PSF 

       3 !NTITLE
 REMARKS this file out/NPT/N10000/NPT_OPC_T300_N10000 - created by using MoSDeF-GOMC. 
 REMARKS parameters from the {'TIP4': './OPC.xml'} force field via MoSDef
 REMARKS created on 2026-06-28 19:40:11.193809


   40000 !NATOM
       1 A    1    TIP4 O1   OW0      0.000000       15.9990           
       2 A    1    TIP4 H1   HW0      0.679100        1.0080           
       3 A    1    TIP4 H2   HW0      0.679100        1.0080           
       4 A    1    TIP4 BD1  LP0     -1.358200        0.0000           
       5 A    2    TIP4 O1   OW0      0.000000       15.9990           
       6 A    2    TIP4 H1   HW0      0.679100        1.0080           
       7 A    2    TIP4 H2   HW0      0.679100        1.0080           
       8 A    2    TIP4 BD1  LP0     -1.358200        0.0000           
       9 A    3    TIP4 O1   OW0      0.000000       15.9990           
      10 A    3    TIP4 H1   HW0      0.679100        1.0080           
      11 A    3    TIP4 H2   HW0      0.679100        1.0080           
      12 A    3    TIP4 BD1  LP0     -1.358200        0.0000           
      13 A    4    TIP4 O1   OW0      0.000000       15.9990           
      14 A    4    TIP4 H1   HW0      0.679100        1.0080           
      15 A    4    TIP4 H2   HW0      0.679100        1.0080           
      16 A    4    TIP4 BD1  LP0     -1.358200        0.0000           
      17 A    5    TIP4 O1   OW0      0.000000       15.9990           
      18 A    5    TIP4 H1   HW0      0.679100        1.0080           
      19 A    5    TIP4 H2   HW0      0.679100        1.0080           
      20 A    5    TIP4 BD1  LP0     -1.358200        0.0000           
      21 A    6    TIP4 O1   OW0      0.000000       15.9990           
      22 A    6    TIP4 H1   HW0      0.679100        1.0080           
      23 A    6    TIP4 H2   HW0      0.679100        1.0080           
      24 A    6    TIP4 BD1  LP0     -1.358200        0.0000           
      25 A    7    TIP4 O1   OW0      0.000000       15.9990           
      26 A    7    TIP4 H1   HW0      0.679100        1.0080           
      27 A    7    TIP4 H2   HW0      0.679100        1.0080           
      28 A    7    TIP4 BD1  LP0     -1.358200        0.0000           
      29 A    8    TIP4 O1   OW0      0.000000       15.9990           
      30 A    8    TIP4 H1   HW0      0.679100        1.0080           
      31 A    8    TIP4 H2   HW0      0.679100        1.0080           
      32 A    8    TIP4 BD1  LP0     -1.358200        0.0000           
      33 A    9    TIP4 O1   OW0      0.000000       15.9990           
      34 A    9    TIP4 H1   HW0      0.679100        1.0080           
      35 A    9    TIP4 H2   HW0      0.679100        1.0080           
      36 A    9    TIP4 BD1  LP0     -1.358200        0.0000           
      37 A    10   TIP4 O1   OW0      0.000000       15.9990           
      38 A    10   TIP4 H1   HW0      0.679100        1.0080           
      39 A    10   TIP4 H2   HW0      0.679100        1.0080           
      40 A    10   TIP4 BD1  LP0     -1.358200        0.0000           
      41 A    11   TIP4 O1   OW0      0.000000       15.9990           
      42 A    11   TIP4 H1   HW0      0.679100        1.0080           
      43 A    11   TIP4 H2   HW0      0.679100        1.0080           
      44 A    11   TIP4 BD1  LP0     -1.358200        0.0000           
      45 A    12   TIP4 O1   OW0      0.000000       15.9990           
      46 A    12   TIP4 H1   HW0      0.679100        1.0080           
      47 A    12   TIP4 H2   HW0      0.679100        1.0080           
      48 A    12   TIP4 BD1  LP0     -1.358200        0.0000           
      49 A    13   TIP4 O1   OW0      0.000000       15.9990           
      50 A    13   TIP4 H1   HW0      0.679100        1.0080           
      51 A    13   TIP4 H2   HW0      0.679100        1.0080           
      52 A    13   TIP4 BD1  LP0     -1.358200        0.0000           
      53 A    14   TIP4 O1   OW0      0.000000       15.9990           
      54 A    14   TIP4 H1   HW0      0.679100        1.0080           
      55 A    14   TIP4 H2   HW0      0.679100        1.0080           
      56 A    14   TIP4 BD1  LP0     -1.358200        0.0000           
      57 A    15   TIP4 O1   OW0      0.000000       15.9990           
      58 A    15   TIP4 H1   HW0      0.679100        1.0080           
      59 A    15   TIP4 H2   HW0      0.679100        1.0080           
      60 A    15   TIP4 BD1  LP0     -1.358200        0.0000           
      61 A    16   TIP4 O1   OW0      0.000000       15.9990           
      62 A    16   TIP4 H1   HW0      0.679100        1.0080           
      63 A    16   TIP4 H2   HW0      0.679100        1.0080           
      64 A    16   TIP4 BD1  LP0     -1.358200        0.0000           
      65 A    17   TIP4 O1   OW0      0.000000       15.9990           
      66 A    17   TIP4 H1   HW0      0.679100        1.0080           
      67 A    17   TIP4 H2   HW0      0.679100        1.0080           
      68 A    17   TIP4 BD1  LP0     -1.358200        0.0000           
      69 A    18   TIP4 O1   OW0      0.000000       15.9990           
      70 A    18   TIP4 H1   HW0      0.679100        1.0080           
      71 A    18   TIP4 H2   HW0      0.679100        1.0080           
      72 A    18   TIP4 BD1  LP0     -1.358200        0.0000           
      73 A    19   TIP4 O1   OW0      0.000000       15.9990           
      74 A    19   TIP4 H1   HW0      0.679100        1.0080           
      75 A    19   TIP4 H2   HW0      0.679100        1.0080           
      76 A    19   TIP4 BD1  LP0     -1.358200        0.0000           
      77 A    20   TIP4 O1   OW0      0.000000       15.9990           
      78 A    20   TIP4 H1   HW0      0.679100        1.0080           
      79 A    20   TIP4 H2   HW0      0.679100        1.0080           
      80 A    20   TIP4 BD1  LP0     -1.358200        0.0000           
      81 A    21   TIP4 O1   OW0      0.000000       15.9990           
      82 A    21   TIP4 H1   HW0      0.679100        1.0080           
      83 A    21   TIP4 H2   HW0      0.679100        1.0080           
      84 A    21   TIP4 BD1  LP0     -1.358200        0.0000           
      85 A    22   TIP4 O1   OW0      0.000000       15.9990           
      86 A    22   TIP4 H1   HW0      0.679100        1.0080           
      87 A    22   TIP4 H2   HW0      0.679100        1.0080           
      88 A    22   TIP4 BD1  LP0     -1.358200        0.0000           
      89 A    23   TIP4 O1   OW0      0.000000       15.9990           
      90 A    23   TIP4 H1   HW0      0.679100        1.0080           
      91 A    23   TIP4 H2   HW0      0.679100        1.0080           
      92 A    23   TIP4 BD1  LP0     -1.358200        0.0000           
      93 A    24   TIP4 O1   OW0      0.000000       15.9990           
      94 A    24   TIP4 H1   HW0      0.679100        1.0080           
      95 A    24   TIP4 H2   HW0      0.679100        1.0080           
      96 A    24   TIP4 BD1  LP0     -1.358200        0.0000           
      97 A    25   TIP4 O1   OW0      0.000000       15.9990           
      98 A    25   TIP4 H1   HW0      0.679100        1.0080           
      99 A    25   TIP4 H2   HW0      0.679100        1.0080           
     100 A    25   TIP4 BD1  LP0     -1.358200        0.0000           
     101 A    26   TIP4 O1   OW0      0.000000       15.9990           
     102 A    26   TIP4 H1   HW0      0.679100        1.0080           
     103 A    26   TIP4 H2   HW0      0.679100        1.0080           
     104 A    26   TIP4 BD1  LP0     -1.358200        0.0000           
     105 A    27   TIP4 O1   OW0      0.000000       15.9990           
     106 A    27   TIP4 H1   HW0      0.679100        1.0080           
     107 A    27   TIP4 H2   HW0      0.679100        1.0080           
     108 A    27   TIP4 BD1  LP0     -1.358200        0.0000           
     109 A    28   TIP4 O1   OW0      0.000000       15.9990           
     110 A    28   TIP4 H1   HW0      0.679100        1.0080           
     111 A    28   TIP4 H2   HW0      0.679100        1.0080           
     112 A    28   TIP4 BD1  LP0     -1.358200        0.0000           
     113 A    29   TIP4 O1   OW0      0.000000       15.9990           
     114 A    29   TIP4 H1   HW0      0.679100        1.0080           
     115 A    29   TIP4 H2   HW0      0.679100        1.0080           
     116 A    29   TIP4 BD1  LP0     -1.358200        0.0000           
     117 A    30   TIP4 O1   OW0      0.000000       15.9990           
     118 A    30   TIP4 H1   HW0      0.679100        1.0080           
     119 A    30   TIP4 H2   HW0      0.679100        1.0080           
     120 A    30   TIP4 BD1  LP0     -1.358200        0.0000           
     121 A    31   TIP4 O1   OW0      0.000000       15.9990           
     122 A    31   TIP4 H1   HW0      0.679100        1.0080           
     123 A    31   TIP4 H2   HW0      0.679100        1.0080           
     124 A    31   TIP4 BD1  LP0     -1.358200        0.0000           
     125 A    32   TIP4 O1   OW0      0.000000       15.9990           
     126 A    32   TIP4 H1   HW0      0.679100        1.0080           
     127 A    32   TIP4 H2   HW0      0.679100        1.0080           
     128 A    32   TIP4 BD1  LP0     -1.358200        0.0000           
     129 A    33   TIP4 O1   OW0      0.000000       15.9990           
     130 A    33   TIP4 H1   HW0      0.679100        1.0080           
     131 A    33   TIP4 H2   HW0      0.679100        1.0080           
     132 A    33   TIP4 BD1  LP0     -1.358200        0.0000           
     133 A    34   TIP4 O1   OW0      0.000000       15.9990           
     134 A    34   TIP4 H1   HW0      0.679100        1.0080           
     135 A    34   TIP4 H2   HW0      0.679100        1.0080           
     136 A    34   TIP4 BD1  LP0     -1.358200        0.0000           
     137 A    35   TIP4 O1   OW0      0.000000       15.9990           
     138 A    35   TIP4 H1   HW0      0.679100        1.0080           
     139 A    35   TIP4 H2   HW0      0.679100        1.0080           
     140 A    35   TIP4 BD1  LP0     -1.358200        0.0000           
     141 A    36   TIP4 O1   OW0      0.000000       15.9990           
     142 A    36   TIP4 H1   HW0      0.679100        1.0080           
     143 A    36   TIP4 H2   HW0      0.679100        1.0080           
     144 A    36   TIP4 BD1  LP0     -1.358200        0.0000           
     145 A    37   TIP4 O1   OW0      0.000000       15.9990           
     146 A    37   TIP4 H1   HW0      0.679100        1.0080           
     147 A    37   TIP4 H2   HW0      0.679100        1.0080           
     148 A    37   TIP4 BD1  LP0     -1.358200        0.0000           
     149 A    38   TIP4 O1   OW0      0.000000       15.9990           
     150 A    38   TIP4 H1   HW0      0.679100        1.0080           
     151 A    38   TIP4 H2   HW0      0.679100        1.0080           
     152 A    38   TIP4 BD1  LP0     -1.358200        0.0000           
     153 A    39   TIP4 O1   OW0      0.000000       15.9990           
     154 A    39   TIP4 H1   HW0      0.679100        1.0080           
     155 A    39   TIP4 H2   HW0      0.679100        1.0080           
     156 A    39   TIP4 BD1  LP0     -1.358200        0.0000           
     157 A    40   TIP4 O1   OW0      0.000000       15.9990           
     158 A    40   TIP4 H1   HW0      0.679100        1.0080           
     159 A    40   TIP4 H2   HW0      0.679100        1.0080           
     160 A    40   TIP4 BD1  LP0     -1.358200        0.0000           
     161 A    41   TIP4 O1   OW0      0.000000       15.9990           
     162 A    41   TIP4 H1   HW0      0.679100        1.0080           
     163 A    41   TIP4 H2   HW0      0.679100        1.0080           
     164 A    41   TIP4 BD1  LP0     -1.358200        0.0000           
     165 A    42   TIP4 O1   OW0      0.000000       15.9990           
     166 A    42   TIP4 H1   HW0      0.679100        1.0080           
     167 A    42   TIP4 H2   HW0      0.679100        1.0080           
     168 A    42   TIP4 BD1  LP0     -1.358200        0.0000           
     169 A    43   TIP4 O1   OW0      0.000000       15.9990           
     170 A    43   TIP4 H1   HW0      0.679100        1.0080           
     171 A    43   TIP4 H2   HW0      0.679100        1.0080           
     172 A    43   TIP4 BD1  LP0     -1.358200        0.0000           
     173 A    44   TIP4 O1   OW0      0.000000       15.9990           
     174 A    44   TIP4 H1   HW0      0.679100        1.0080           
     175 A    44   TIP4 H2   HW0      0.679100        1.0080           
     176 A    44   TIP4 BD1  LP0     -1.358200        0.0000           
     177 A    45   TIP4 O1   OW0      0.000000       15.9990           
     178 A    45   TIP4 H1   HW0      0.679100        1.0080           
     179 A    45   TIP4 H2   HW0      0.679100        1.0080           
     180 A    45   TIP4 BD1  LP0     -1.358200        0.0000           
     181 A    46   TIP4 O1   OW0      0.000000       15.9990           
     182 A    46   TIP4 H1   HW0      0.679100        1.0080           
     183 A    46   TIP4 H2   HW0      0.679100        1.0080           
     184 A    46   TIP4 BD1  LP0     -1.358200        0.0000           
     185 A    47   TIP4 O1   OW0      0.000000       15.9990           
     186 A    47   TIP4 H1   HW0      0.679100        1.0080           
     187 A    47   TIP4 H2   HW0      0.679100        1.0080           
     188 A    47   TIP4 BD1  LP0     -1.358200        0.0000           
     189 A    48   TIP4 O1   OW0      0.000000       15.9990           
     190 A    48   TIP4 H1   HW0      0.679100        1.0080           
     191 A    48   TIP4 H2   HW0      0.679100        1.0080           
     192 A    48   TIP4 BD1  LP0     -1.358200        0.0000           
     193 A    49   TIP4 O1   OW0      0.000000       15.9990           
     194 A    49   TIP4 H1   HW0      0.679100        1.0080           
     195 A    49   TIP4 H2   HW0      0.679100        1.0080           
     196 A    49   TIP4 BD1  LP0     -1.358200        0.0000           
     197 A    50   TIP4 O1   OW0      0.000000       15.9990           
     198 A    50   TIP4 H1   HW0      0.679100        1.0080           
     199 A    50   TIP4 H2   HW0      0.679100        1.0080           
     200 A    50   TIP4 BD1  LP0     -1.358200        0.0000           
     201 A    51   TIP4 O1   OW0      0.000000       15.9990           
     202 A    51   TIP4 H1   HW0      0.679100        1.0080           
     203 A    51   TIP4 H2   HW0      0.679100        1.0080           
     204 A    51   TIP4 BD1  LP0     -1.358200        0.0000           
     205 A    52   TIP4 O1   OW0      0.000000       15.9990           
     206 A    52   TIP4 H1   HW0      0.679100        1.0080           
     207 A    52   TIP4 H2   HW0      0.679100        1.0080           
     208 A    52   TIP4 BD1  LP0     -1.358200        0.0000           
     209 A    53   TIP4 O1   OW0      0.000000       15.9990           
     210 A    53   TIP4 H1   HW0      0.679100        1.0080           
     211 A    53   TIP4 H2   HW0      0.679100        1.0080           
     212 A    53   TIP4 BD1  LP0     -1.358200        0.0000           
     213 A    54   TIP4 O1   OW0      0.000000       15.9990           
     214 A    54   TIP4 H1   HW0      0.679100        1.0080           
     215 A    54   TIP4 H2   HW0      0.679100        1.0080           
     216 A    54   TIP4 BD1  LP0     -1.358200        0.0000           
     217 A    55   TIP4 O1   OW0      0.000000       15.9990           
     218 A    55   TIP4 H1   HW0      0.679100        1.0080           
     219 A    55   TIP4 H2   HW0      0.679100        1.0080           
     220 A    55   TIP4 BD1  LP0     -1.358200        0.0000           
     221 A    56   TIP4 O1   OW0      0.000000       15.9990           
     222 A    56   TIP4 H1   HW0      0.679100        1.0080           
     223 A    56   TIP4 H2   HW0      0.679100        1.0080           
     224 A    56   TIP4 BD1  LP0     -1.358200        0.0000           
     225 A    57   TIP4 O1   OW0      0.000000       15.9990           
     226 A    57   TIP4 H1   HW0      0.679100        1.0080           
     227 A    57   TIP4 H2   HW0      0.679100        1.0080           
     228 A    57   TIP4 BD1  LP0     -1.358200        0.0000           
     229 A    58   TIP4 O1   OW0      0.000000       15.9990           
     230 A    58   TIP4 H1   HW0      0.679100        1.0080           
     231 A    58   TIP4 H2   HW0      0.679100        1.0080           
     232 A    58   TIP4 BD1  LP0     -1.358200        0.0000           
     233 A    59   TIP4 O1   OW0      0.000000       15.9990           
     234 A    59   TIP4 H1   HW0      0.679100        1.0080           
     235 A    59   TIP4 H2   HW0      0.679100        1.0080           
     236 A    59   TIP4 BD1  LP0     -1.358200        0.0000           
     237 A    60   TIP4 O1   OW0      0.000000       15.9990           
     238 A    60   TIP4 H1   HW0      0.679100        1.0080           
     239 A    60   TIP4 H2   HW0      0.679100        1.0080           
     240 A    60   TIP4 BD1  LP0     -1.358200        0.0000           
     241 A    61   TIP4 O1   OW0      0.000000       15.9990           
     242 A    61   TIP4 H1   HW0      0.679100        1.0080           
     243 A    61   TIP4 H2   HW0      0.679100        1.0080           
     244 A    61   TIP4 BD1  LP0     -1.358200        0.0000           
     245 A    62   TIP4 O1   OW0      0.000000       15.9990           
     246 A    62   TIP4 H1   HW0      0.679100        1.0080           
     247 A    62   TIP4 H2   HW0      0.679100        1.0080           
     248 A    62   TIP4 BD1  LP0     -1.358200        0.0000           
     249 A    63   TIP4 O1   OW0      0.000000       15.9990           
     250 A    63   TIP4 H1   HW0      0.679100        1.0080           
     251 A    63   TIP4 H2   HW0      0.679100        1.0080           
     252 A    63   TIP4 BD1  LP0     -1.358200        0.0000           
     253 A    64   TIP4 O1   OW0      0.000000       15.9990           
     254 A    64   TIP4 H1   HW0      0.679100        1.0080           
     255 A    64   TIP4 H2   HW0      0.679100        1.0080           
     256 A    64   TIP4 BD1  LP0     -1.358200        0.0000           
     257 A    65   TIP4 O1   OW0      0.000000       15.9990           
     258 A    65   TIP4 H1   HW0      0.679100        1.0080           
     259 A    65   TIP4 H2   HW0      0.679100        1.0080           
     260 A    65   TIP4 BD1  LP0     -1.358200        0.0000           
     261 A    66   TIP4 O1   OW0      0.000000       15.9990           
     262 A    66   TIP4 H1   HW0      0.679100        1.0080           
     263 A    66   TIP4 H2   HW0      0.679100        1.0080           
     264 A    66   TIP4 BD1  LP0     -1.358200        0.0000           
     265 A    67   TIP4 O1   OW0      0.000000       15.9990           
     266 A    67   TIP4 H1   HW0      0.679100        1.0080           
     267 A    67   TIP4 H2   HW0      0.679100        1.0080           
     268 A    67   TIP4 BD1  LP0     -1.358200        0.0000           
     269 A    68   TIP4 O1   OW0      0.000000       15.9990           
     270 A    68   TIP4 H1   HW0      0.679100        1.0080           
     271 A    68   TIP4 H2   HW0      0.679100        1.0080           
     272 A    68   TIP4 BD1  LP0     -1.358200        0.0000           
     273 A    69   TIP4 O1   OW0      0.000000       15.9990           
     274 A    69   TIP4 H1   HW0      0.679100        1.0080           
     275 A    69   TIP4 H2   HW0      0.679100        1.0080           
     276 A    69   TIP4 BD1  LP0     -1.358200        0.0000           
     277 A    70   TIP4 O1   OW0      0.000000       15.9990           
     278 A    70   TIP4 H1   HW0      0.679100        1.0080           
     279 A    70   TIP4 H2   HW0      0.679100        1.0080           
     280 A    70   TIP4 BD1  LP0     -1.358200        0.0000           
     281 A    71   TIP4 O1   OW0      0.000000       15.9990           
     282 A    71   TIP4 H1   HW0      0.679100        1.0080           
     283 A    71   TIP4 H2   HW0      0.679100        1.0080           
     284 A    71   TIP4 BD1  LP0     -1.358200        0.0000           
     285 A    72   TIP4 O1   OW0      0.000000       15.9990           
     286 A    72   TIP4 H1   HW0      0.679100        1.0080           
     287 A    72   TIP4 H2   HW0      0.679100        1.0080           
     288 A    72   TIP4 BD1  LP0     -1.358200        0.0000           
     289 A    73   TIP4 O1   OW0      0.000000       15.9990           
     290 A    73   TIP4 H1   HW0      0.679100        1.0080           
     291 A    73   TIP4 H2   HW0      0.679100        1.0080           
     292 A    73   TIP4 BD1  LP0     -1.358200        0.0000           
     293 A    74   TIP4 O1   OW0      0.000000       15.9990           
     294 A    74   TIP4 H1   HW0      0.679100        1.0080           
     295 A    74   TIP4 H2   HW0      0.679100        1.0080           
     296 A    74   TIP4 BD1  LP0     -1.358200        0.0000           
     297 A    75   TIP4 O1   OW0      0.000000       15.9990           
     298 A    75   TIP4 H1   HW0      0.679100        1.0080           
     299 A    75   TIP4 H2   HW0      0.679100        1.0080           
     300 A    75   TIP4 BD1  LP0     -1.358200        0.0000           
     301 A    76   TIP4 O1   OW0      0.000000       15.9990           
     302 A    76   TIP4 H1   HW0      0.679100        1.0080           
     303 A    76   TIP4 H2   HW0      0.679100        1.0080           
     304 A    76   TIP4 BD1  LP0     -1.358200        0.0000           
     305 A    77   TIP4 O1   OW0      0.000000       15.9990           
     306 A    77   TIP4 H1   HW0      0.679100        1.0080           
     307 A    77   TIP4 H2   HW0      0.679100        1.0080           
     308 A    77   TIP4 BD1  LP0     -1.358200        0.0000           
     309 A    78   TIP4 O1   OW0      0.000000       15.9990           
     310 A    78   TIP4 H1   HW0      0.679100        1.0080           
     311 A    78   TIP4 H2   HW0      0.679100        1.0080           
     312 A    78   TIP4 BD1  LP0     -1.358200        0.0000           
     313 A    79   TIP4 O1   OW0      0.000000       15.9990           
     314 A    79   TIP4 H1   HW0      0.679100        1.0080           
     315 A    79   TIP4 H2   HW0      0.679100        1.0080           
     316 A    79   TIP4 BD1  LP0     -1.358200        0.0000           
     317 A    80   TIP4 O1   OW0      0.000000       15.9990           
     318 A    80   TIP4 H1   HW0      0.679100        1.0080           
     319 A    80   TIP4 H2   HW0      0.679100        1.0080           
     320 A    80   TIP4 BD1  LP0     -1.358200        0.0000           
     321 A    81   TIP4 O1   OW0      0.000000       15.9990           
     322 A    81   TIP4 H1   HW0      0.679100        1.0080           
     323 A    81   TIP4 H2   HW0      0.679100        1.0080           
     324 A    81   TIP4 BD1  LP0     -1.358200        0.0000           
     325 A    82   TIP4 O1   OW0      0.000000       15.9990           
     326 A    82   TIP4 H1   HW0      0.679100        1.0080           
     327 A    82   TIP4 H2   HW0      0.679100        1.0080           
     328 A    82   TIP4 BD1  LP0     -1.358200        0.0000           
     329 A    83   TIP4 O1   OW0      0.000000       15.9990           
     330 A    83   TIP4 H1   HW0      0.679100        1.0080           
     331 A    83   TIP4 H2   HW0      0.679100        1.0080           
     332 A    83   TIP4 BD1  LP0     -1.358200        0.0000           
     333 A    84   TIP4 O1   OW0      0.000000       15.9990           
     334 A    84   TIP4 H1   HW0      0.679100        1.0080           
     335 A    84   TIP4 H2   HW0      0.679100        1.0080           
     336 A    84   TIP4 BD1  LP0     -1.358200        0.0000           
     337 A    85   TIP4 O1   OW0      0.000000       15.9990           
     338 A    85   TIP4 H1   HW0      0.679100        1.0080           
     339 A    85   TIP4 H2   HW0      0.679100        1.0080           
     340 A    85   TIP4 BD1  LP0     -1.358200        0.0000           
     341 A    86   TIP4 O1   OW0      0.000000       15.9990           
     342 A    86   TIP4 H1   HW0      0.679100        1.0080           
     343 A    86   TIP4 H2   HW0      0.679100        1.0080           
     344 A    86   TIP4 BD1  LP0     -1.358200        0.0000           
     345 A    87   TIP4 O1   OW0      0.000000       15.9990           
     346 A    87   TIP4 H1   HW0      0.679100        1.0080           
     347 A    87   TIP4 H2   HW0      0.679100        1.0080           
     348 A    87   TIP4 BD1  LP0     -1.358200        0.0000           
     349 A    88   TIP4 O1   OW0      0.000000       15.9990           
     350 A    88   TIP4 H1   HW0      0.679100        1.0080           
     351 A    88   TIP4 H2   HW0      0.679100        1.0080           
     352 A    88   TIP4 BD1  LP0     -1.358200        0.0000           
     353 A    89   TIP4 O1   OW0      0.000000       15.9990           
     354 A    89   TIP4 H1   HW0      0.679100        1.0080           
     355 A    89   TIP4 H2   HW0      0.679100        1.0080           
     356 A    89   TIP4 BD1  LP0     -1.358200        0.0000           
     357 A    90   TIP4 O1   OW0      0.000000       15.9990           
     358 A    90   TIP4 H1   HW0      0.679100        1.0080           
     359 A    90   TIP4 H2   HW0      0.679100        1.0080           
     360 A    90   TIP4 BD1  LP0     -1.358200        0.0000           
     361 A    91   TIP4 O1   OW0      0.000000       15.9990           
     362 A    91   TIP4 H1   HW0      0.679100        1.0080           
     363 A    91   TIP4 H2   HW0      0.679100        1.0080           
     364 A    91   TIP4 BD1  LP0     -1.358200        0.0000           
     365 A    92   TIP4 O1   OW0      0.000000       15.9990           
     366 A    92   TIP4 H1   HW0      0.679100        1.0080           
     367 A    92   TIP4 H2   HW0      0.679100        1.0080           
     368 A    92   TIP4 BD1  LP0     -1.358200        0.0000           
     369 A    93   TIP4 O1   OW0      0.000000       15.9990           
     370 A    93   TIP4 H1   HW0      0.679100        1.0080           
     371 A    93   TIP4 H2   HW0      0.679100        1.0080           
     372 A    93   TIP4 BD1  LP0     -1.358200        0.0000           
     373 A    94   TIP4 O1   OW0      0.000000       15.9990           
     374 A    94   TIP4 H1   HW0      0.679100        1.0080           
     375 A    94   TIP4 H2   HW0      0.679100        1.0080           
     376 A    94   TIP4 BD1  LP0     -1.358200        0.0000           
     377 A    95   TIP4 O1   OW0      0.000000       15.9990           
     378 A    95   TIP4 H1   HW0      0.679100        1.0080           
     379 A    95   TIP4 H2   HW0      0.679100        1.0080           
     380 A    95   TIP4 BD1  LP0     -1.358200        0.0000           
     381 A    96   TIP4 O1   OW0      0.000000       15.9990           
     382 A    96   TIP4 H1   HW0      0.679100        1.0080           
     383 A    96   TIP4 H2   HW0      0.679100        1.0080           
     384 A    96   TIP4 BD1  LP0     -1.358200        0.0000           
     385 A    97   TIP4 O1   OW0      0.000000       15.9990           
     386 A    97   TIP4 H1   HW0      0.679100        1.0080           
     387 A    97   TIP4 H2   HW0      0.679100        1.0080           
     388 A    97   TIP4 BD1  LP0     -1.358200        0.0000           
     389 A    98   TIP4 O1   OW0      0.000000       15.9990           
     390 A    98   TIP4 H1   HW0      0.679100        1.0080           
     391 A    98   TIP4 H2   HW0      0.679100        1.0080           
     392 A    98   TIP4 BD1  LP0     -1.358200        0.0000           
     393 A    99   TIP4 O1   OW0      0.000000       15.9990           
     394 A    99   TIP4 H1   HW0      0.679100        1.0080           
     395 A    99   TIP4 H2   HW0      0.679100        1.0080           
     396 A    99   TIP4 BD1  LP0     -1.358200        0.0000           
     397 A    100  TIP4 O1   OW0      0.000000       15.9990           
     398 A    100  TIP4 H1   HW0      0.679100        1.0080           
     399 A    100  TIP4 H2   HW0      0.679100        1.0080           
     400 A    100  TIP4 BD1  LP0     -1.358200        0.0000           
     401 A    101  TIP4 O1   OW0      0.000000       15.9990           
     402 A    101  TIP4 H1   HW0      0.679100        1.0080           
     403 A    101  TIP4 H2   HW0      0.679100        1.0080           
     404 A    101  TIP4 BD1  LP0     -1.358200        0.0000           
     405 A    102  TIP4 O1   OW0      0.000000       15.9990           
     406 A    102  TIP4 H1   HW0      0.679100        1.0080           
     407 A    102  TIP4 H2   HW0      0.679100        1.0080           
     408 A    102  TIP4 BD1  LP0     -1.358200        0.0000           
     409 A    103  TIP4 O1   OW0      0.000000       15.9990           
     410 A    103  TIP4 H1   HW0      0.679100        1.0080           
     411 A    103  TIP4 H2   HW0      0.679100        1.0080           
     412 A    103  TIP4 BD1  LP0     -1.358200        0.0000           
     413 A    104  TIP4 O1   OW0      0.000000       15.9990           
     414 A    104  TIP4 H1   HW0      0.679100        1.0080           
     415 A    104  TIP4 H2   HW0      0.679100        1.0080           
     416 A    104  TIP4 BD1  LP0     -1.358200        0.0000           
     417 A    105  TIP4 O1   OW0      0.000000       15.9990           
     418 A    105  TIP4 H1   HW0      0.679100        1.0080           
     419 A    105  TIP4 H2   HW0      0.679100        1.0080           
     420 A    105  TIP4 BD1  LP0     -1.358200        0.0000           
     421 A    106  TIP4 O1   OW0      0.000000       15.9990           
     422 A    106  TIP4 H1   HW0      0.679100        1.0080           
     423 A    106  TIP4 H2   HW0      0.679100        1.0080           
     424 A    106  TIP4 BD1  LP0     -1.358200        0.0000           
     425 A    107  TIP4 O1   OW0      0.000000       15.9990           
     426 A    107  TIP4 H1   HW0      0.679100        1.0080           
     427 A    107  TIP4 H2   HW0      0.679100        1.0080           
     428 A    107  TIP4 BD1  LP0     -1.358200        0.0000           
     429 A    108  TIP4 O1   OW0      0.000000       15.9990           
     430 A    108  TIP4 H1   HW0      0.679100        1.0080           
     431 A    108  TIP4 H2   HW0      0.679100        1.0080           
     432 A    108  TIP4 BD1  LP0     -1.358200        0.0000           
     433 A    109  TIP4 O1   OW0      0.000000       15.9990           
     434 A    109  TIP4 H1   HW0      0.679100        1.0080           
     435 A    109  TIP4 H2   HW0      0.679100        1.0080           
     436 A    109  TIP4 BD1  LP0     -1.358200        0.0000           
     437 A    110  TIP4 O1   OW0      0.000000       15.9990           
     438 A    110  TIP4 H1   HW0      0.679100        1.0080           
     439 A    110  TIP4 H2   HW0      0.679100        1.0080           
     440 A    110  TIP4 BD1  LP0     -1.358200        0.0000           
     441 A    111  TIP4 O1   OW0      0.000000       15.9990           
     442 A    111  TIP4 H1   HW0      0.679100        1.0080           
     443 A    111  TIP4 H2   HW0      0.679100        1.0080           
     444 A    111  TIP4 BD1  LP0     -1.358200        0.0000           
     445 A    112  TIP4 O1   OW0      0.000000       15.9990           
     446 A    112  TIP4 H1   HW0      0.679100        1.0080           
     447 A    112  TIP4 H2   HW0      0.679100        1.0080           
     448 A    112  TIP4 BD1  LP0     -1.358200        0.0000           
     449 A    113  TIP4 O1   OW0      0.000000       15.9990           
     450 A    113  TIP4 H1   HW0      0.679100        1.0080           
     451 A    113  TIP4 H2   HW0      0.679100        1.0080           
     452 A    113  TIP4 BD1  LP0     -1.358200        0.0000           
     453 A    114  TIP4 O1   OW0      0.000000       15.9990           
     454 A    114  TIP4 H1   HW0      0.679100        1.0080           
     455 A    114  TIP4 H2   HW0      0.679100        1.0080           
     456 A    114  TIP4 BD1  LP0     -1.358200        0.0000           
     457 A    115  TIP4 O1   OW0      0.000000       15.9990           
     458 A    115  TIP4 H1   HW0      0.679100        1.0080           
     459 A    115  TIP4 H2   HW0      0.679100        1.0080           
     460 A    115  TIP4 BD1  LP0     -1.358200        0.0000           
     461 A    116  TIP4 O1   OW0      0.000000       15.9990           
     462 A    116  TIP4 H1   HW0      0.679100        1.0080           
     463 A    116  TIP4 H2   HW0      0.679100        1.0080           
     464 A    116  TIP4 BD1  LP0     -1.358200        0.0000           
     465 A    117  TIP4 O1   OW0      0.000000       15.9990           
     466 A    117  TIP4 H1   HW0      0.679100        1.0080           
     467 A    117  TIP4 H2   HW0      0.679100        1.0080           
     468 A    117  TIP4 BD1  LP0     -1.358200        0.0000           
     469 A    118  TIP4 O1   OW0      0.000000       15.9990           
     470 A    118  TIP4 H1   HW0      0.679100        1.0080           
     471 A    118  TIP4 H2   HW0      0.679100        1.0080           
     472 A    118  TIP4 BD1  LP0     -1.358200        0.0000           
     473 A    119  TIP4 O1   OW0      0.000000       15.9990           
     474 A    119  TIP4 H1   HW0      0.679100        1.0080           
     475 A    119  TIP4 H2   HW0      0.679100        1.0080           
     476 A    119  TIP4 BD1  LP0     -1.358200        0.0000           
     477 A    120  TIP4 O1   OW0      0.000000       15.9990           
     478 A    120  TIP4 H1   HW0      0.679100        1.0080           
     479 A    120  TIP4 H2   HW0      0.679100        1.0080           
     480 A    120  TIP4 BD1  LP0     -1.358200        0.0000           
     481 A    121  TIP4 O1   OW0      0.000000       15.9990           
     482 A    121  TIP4 H1   HW0      0.679100        1.0080           
     483 A    121  TIP4 H2   HW0      0.679100        1.0080           
     484 A    121  TIP4 BD1  LP0     -1.358200        0.0000           
     485 A    122  TIP4 O1   OW0      0.000000       15.9990           
     486 A    122  TIP4 H1   HW0      0.679100        1.0080           
     487 A    122  TIP4 H2   HW0      0.679100        1.0080           
     488 A    122  TIP4 BD1  LP0     -1.358200        0.0000           
     489 A    123  TIP4 O1   OW0      0.000000       15.9990           
     490 A    123  TIP4 H1   HW0      0.679100        1.0080           
     491 A    123  TIP4 H2   HW0      0.679100        1.0080           
     492 A    123  TIP4 BD1  LP0     -1.358200        0.0000           
     493 A    124  TIP4 O1   OW0      0.000000       15.9990           
     494 A    124  TIP4 H1   HW0      0.679100        1.0080           
     495 A    124  TIP4 H2   HW0      0.679100        1.0080           
     496 A    124  TIP4 BD1  LP0     -1.358200        0.0000           
     497 A    125  TIP4 O1   OW0      0.000000       15.9990           
     498 A    125  TIP4 H1   HW0      0.679100        1.0080           
     499 A    125  TIP4 H2   HW0      0.679100        1.0080           
     500 A    125  TIP4 BD1  LP0     -1.358200        0.0000           
     501 A    126  TIP4 O1   OW0      0.000000       15.9990           
     502 A    126  TIP4 H1   HW0      0.679100        1.0080           
     503 A    126  TIP4 H2   HW0      0.679100        1.0080           
     504 A    126  TIP4 BD1  LP0     -1.358200        0.0000           
     505 A    127  TIP4 O1   OW0      0.000000       15.9990           
     506 A    127  TIP4 H1   HW0      0.679100        1.0080           
     507 A    127  TIP4 H2   HW0      0.679100        1.0080           
     508 A    127  TIP4 BD1  LP0     -1.358200        0.0000           
     509 A    128  TIP4 O1   OW0      0.000000       15.9990           
     510 A    128  TIP4 H1   HW0      0.679100        1.0080           
     511 A    128  TIP4 H2   HW0      0.679100        1.0080           
     512 A    128  TIP4 BD1  LP0     -1.358200        0.0000           
     513 A    129  TIP4 O1   OW0      0.000000       15.9990           
     514 A    129  TIP4 H1   HW0      0.679100        1.0080           
     515 A    129  TIP4 H2   HW0      0.679100        1.0080           
     516 A    129  TIP4 BD1  LP0     -1.358200        0.0000           
     517 A    130  TIP4 O1   OW0      0.000000       15.9990           
     518 A    130  TIP4 H1   HW0      0.679100        1.0080           
     519 A    130  TIP4 H2   HW0      0.679100        1.0080           
     520 A    130  TIP4 BD1  LP0     -1.358200        0.0000           
     521 A    131  TIP4 O1   OW0      0.000000       15.9990           
     522 A    131  TIP4 H1   HW0      0.679100        1.0080           
     523 A    131  TIP4 H2   HW0      0.679100        1.0080           
     524 A    131  TIP4 BD1  LP0     -1.358200        0.0000           
     525 A    132  TIP4 O1   OW0      0.000000       15.9990           
     526 A    132  TIP4 H1   HW0      0.679100        1.0080           
     527 A    132  TIP4 H2   HW0      0.679100        1.0080           
     528 A    132  TIP4 BD1  LP0     -1.358200        0.0000           
     529 A    133  TIP4 O1   OW0      0.000000       15.9990           
     530 A    133  TIP4 H1   HW0      0.679100        1.0080           
     531 A    133  TIP4 H2   HW0      0.679100        1.0080           
     532 A    133  TIP4 BD1  LP0     -1.358200        0.0000           
     533 A    134  TIP4 O1   OW0      0.000000       15.9990           
     534 A    134  TIP4 H1   HW0      0.679100        1.0080           
     535 A    134  TIP4 H2   HW0      0.679100        1.0080           
     536 A    134  TIP4 BD1  LP0     -1.358200        0.0000           
     537 A    135  TIP4 O1   OW0      0.000000       15.9990           
     538 A    135  TIP4 H1   HW0      0.679100        1.0080           
     539 A    135  TIP4 H2   HW0      0.679100        1.0080           
     540 A    135  TIP4 BD1  LP0     -1.358200        0.0000           
     541 A    136  TIP4 O1   OW0      0.000000       15.9990           
     542 A    136  TIP4 H1   HW0      0.679100        1.0080           
     543 A    136  TIP4 H2   HW0      0.679100        1.0080           
     544 A    136  TIP4 BD1  LP0     -1.358200        0.0000           
     545 A    137  TIP4 O1   OW0      0.000000       15.9990           
     546 A    137  TIP4 H1   HW0      0.679100        1.0080           
     547 A    137  TIP4 H2   HW0      0.679100        1.0080           
     548 A    137  TIP4 BD1  LP0     -1.358200        0.0000           
     549 A    138  TIP4 O1   OW0      0.000000       15.9990           
     550 A    138  TIP4 H1   HW0      0.679100        1.0080           
     551 A    138  TIP4 H2   HW0      0.679100        1.0080           
     552 A    138  TIP4 BD1  LP0     -1.358200        0.0000           
     553 A    139  TIP4 O1   OW0      0.000000       15.9990           
     554 A    139  TIP4 H1   HW0      0.679100        1.0080           
     555 A    139  TIP4 H2   HW0      0.679100        1.0080           
     556 A    139  TIP4 BD1  LP0     -1.358200        0.0000           
     557 A    140  TIP4 O1   OW0      0.000000       15.9990           
     558 A    140  TIP4 H1   HW0      0.679100        1.0080           
     559 A    140  TIP4 H2   HW0      0.679100        1.0080           
     560 A    140  TIP4 BD1  LP0     -1.358200        0.0000           
     561 A    141  TIP4 O1   OW0      0.000000       15.9990           
     562 A    141  TIP4 H1   HW0      0.679100        1.0080           
     563 A    141  TIP4 H2   HW0      0.679100        1.0080           
     564 A    141  TIP4 BD1  LP0     -1.358200        0.0000           
     565 A    142  TIP4 O1   OW0      0.000000       15.9990           
     566 A    142  TIP4 H1   HW0      0.679100        1.0080           
     567 A    142  TIP4 H2   HW0      0.679100        1.0080           
     568 A    142  TIP4 BD1  LP0     -1.358200        0.0000           
     569 A    143  TIP4 O1   OW0      0.000000       15.9990           
     570 A    143  TIP4 H1   HW0      0.679100        1.0080           
     571 A    143  TIP4 H2   HW0      0.679100        1.0080           
     572 A    143  TIP4 BD1  LP0     -1.358200        0.0000           
     573 A    144  TIP4 O1   OW0      0.000000       15.9990           
     574 A    144  TIP4 H1   HW0      0.679100        1.0080           
     575 A    144  TIP4 H2   HW0      0.679100        1.0080           
     576 A    144  TIP4 BD1  LP0     -1.358200        0.0000           
     577 A    145  TIP4 O1   OW0      0.000000       15.9990           
     578 A    145  TIP4 H1   HW0      0.679100        1.0080           
     579 A    145  TIP4 H2   HW0      0.679100        1.0080           
     580 A    145  TIP4 BD1  LP0     -1.358200        0.0000           
     581 A    146  TIP4 O1   OW0      0.000000       15.9990           
     582 A    146  TIP4 H1   HW0      0.679100        1.0080           
     583 A    146  TIP4 H2   HW0      0.679100        1.0080           
     584 A    146  TIP4 BD1  LP0     -1.358200        0.0000           
     585 A    147  TIP4 O1   OW0      0.000000       15.9990           
     586 A    147  TIP4 H1   HW0      0.679100        1.0080           
     587 A    147  TIP4 H2   HW0      0.679100        1.0080           
     588 A    147  TIP4 BD1  LP0     -1.358200        0.0000           
     589 A    148  TIP4 O1   OW0      0.000000       15.9990           
     590 A    148  TIP4 H1   HW0      0.679100        1.0080           
     591 A    148  TIP4 H2   HW0      0.679100        1.0080           
     592 A    148  TIP4 BD1  LP0     -1.358200        0.0000           
     593 A    149  TIP4 O1   OW0      0.000000       15.9990           
     594 A    149  TIP4 H1   HW0      0.679100        1.0080           
     595 A    149  TIP4 H2   HW0      0.679100        1.0080           
     596 A    149  TIP4 BD1  LP0     -1.358200        0.0000           
     597 A    150  TIP4 O1   OW0      0.000000       15.9990           
     598 A    150  TIP4 H1   HW0      0.679100        1.0080           
     599 A    150  TIP4 H2   HW0      0.679100        1.0080           
     600 A    150  TIP4 BD1  LP0     -1.358200        0.0000           
     601 A    151  TIP4 O1   OW0      0.000000       15.9990           
     602 A    151  TIP4 H1   HW0      0.679100        1.0080           
     603 A    151  TIP4 H2   HW0      0.679100        1.0080           
     604 A    151  TIP4 BD1  LP0     -1.358200        0.0000           
     605 A    152  TIP4 O1   OW0      0.000000       15.9990           
     606 A    152  TIP4 H1   HW0      0.679100        1.0080           
     607 A    152  TIP4 H2   HW0      0.679100        1.0080           
     608 A    152  TIP4 BD1  LP0     -1.358200        0.0000           
     609 A    153  TIP4 O1   OW0      0.000000       15.9990           
     610 A    153  TIP4 H1   HW0      0.679100        1.0080           
     611 A    153  TIP4 H2   HW0      0.679100        1.0080           
     612 A    153  TIP4 BD1  LP0     -1.358200        0.0000           
     613 A    154  TIP4 O1   OW0      0.000000       15.9990           
     614 A    154  TIP4 H1   HW0      0.679100        1.0080           
     615 A    154  TIP4 H2   HW0      0.679100        1.0080           
     616 A    154  TIP4 BD1  LP0     -1.358200        0.0000           
     617 A    155  TIP4 O1   OW0      0.000000       15.9990           
     618 A    155  TIP4 H1   HW0      0.679100        1.0080           
     619 A    155  TIP4 H2   HW0      0.679100        1.0080           
     620 A    155  TIP4 BD1  LP0     -1.358200        0.0000           
     621 A    156  TIP4 O1   OW0      0.000000       15.9990           
     622 A    156  TIP4 H1   HW0      0.679100        1.0080           
     623 A    156  TIP4 H2   HW0      0.679100        1.0080           
     624 A    156  TIP4 BD1  LP0     -1.358200        0.0000           
     625 A    157  TIP4 O1   OW0      0.000000       15.9990           
     626 A    157  TIP4 H1   HW0      0.679100        1.0080           
     627 A    157  TIP4 H2   HW0      0.679100        1.0080           
     628 A    157  TIP4 BD1  LP0     -1.358200        0.0000           
     629 A    158  TIP4 O1   OW0      0.000000       15.9990           
     630 A    158  TIP4 H1   HW0      0.679100        1.0080           
     631 A    158  TIP4 H2   HW0      0.679100        1.0080           
     632 A    158  TIP4 BD1  LP0     -1.358200        0.0000           
     633 A    159  TIP4 O1   OW0      0.000000       15.9990           
     634 A    159  TIP4 H1   HW0      0.679100        1.0080           
     635 A    159  TIP4 H2   HW0      0.679100        1.0080           
     636 A    159  TIP4 BD1  LP0     -1.358200        0.0000           
     637 A    160  TIP4 O1   OW0      0.000000       15.9990           
     638 A    160  TIP4 H1   HW0      0.679100        1.0080           
     639 A    160  TIP4 H2   HW0      0.679100        1.0080           
     640 A    160  TIP4 BD1  LP0     -1.358200        0.0000           
     641 A    161  TIP4 O1   OW0      0.000000       15.9990           
     642 A    161  TIP4 H1   HW0      0.679100        1.0080           
     643 A    161  TIP4 H2   HW0      0.679100        1.0080           
     644 A    161  TIP4 BD1  LP0     -1.358200        0.0000           
     645 A    162  TIP4 O1   OW0      0.000000       15.9990           
     646 A    162  TIP4 H1   HW0      0.679100        1.0080           
     647 A    162  TIP4 H2   HW0      0.679100        1.0080           
     648 A    162  TIP4 BD1  LP0     -1.358200        0.0000           
     649 A    163  TIP4 O1   OW0      0.000000       15.9990           
     650 A    163  TIP4 H1   HW0      0.679100        1.0080           
     651 A    163  TIP4 H2   HW0      0.679100        1.0080           
     652 A    163  TIP4 BD1  LP0     -1.358200        0.0000           
     653 A    164  TIP4 O1   OW0      0.000000       15.9990           
     654 A    164  TIP4 H1   HW0      0.679100        1.0080           
     655 A    164  TIP4 H2   HW0      0.679100        1.0080           
     656 A    164  TIP4 BD1  LP0     -1.358200        0.0000           
     657 A    165  TIP4 O1   OW0      0.000000       15.9990           
     658 A    165  TIP4 H1   HW0      0.679100        1.0080           
     659 A    165  TIP4 H2   HW0      0.679100        1.0080           
     660 A    165  TIP4 BD1  LP0     -1.358200        0.0000           
     661 A    166  TIP4 O1   OW0      0.000000       15.9990           
     662 A    166  TIP4 H1   HW0      0.679100        1.0080           
     663 A    166  TIP4 H2   HW0      0.679100        1.0080           
     664 A    166  TIP4 BD1  LP0     -1.358200        0.0000           
     665 A    167  TIP4 O1   OW0      0.000000       15.9990           
     666 A    167  TIP4 H1   HW0      0.679100        1.0080           
     667 A    167  TIP4 H2   HW0      0.679100        1.0080           
     668 A    167  TIP4 BD1  LP0     -1.358200        0.0000           
     669 A    168  TIP4 O1   OW0      0.000000       15.9990           
     670 A    168  TIP4 H1   HW0      0.679100        1.0080           
     671 A    168  TIP4 H2   HW0      0.679100        1.0080           
     672 A    168  TIP4 BD1  LP0     -1.358200        0.0000           
     673 A    169  TIP4 O1   OW0      0.000000       15.9990           
     674 A    169  TIP4 H1   HW0      0.679100        1.0080           
     675 A    169  TIP4 H2   HW0      0.679100        1.0080           
     676 A    169  TIP4 BD1  LP0     -1.358200        0.0000           
     677 A    170  TIP4 O1   OW0      0.000000       15.9990           
     678 A    170  TIP4 H1   HW0      0.679100        1.0080           
     679 A    170  TIP4 H2   HW0      0.679100        1.0080           
     680 A    170  TIP4 BD1  LP0     -1.358200        0.0000           
     681 A    171  TIP4 O1   OW0      0.000000       15.9990           
     682 A    171  TIP4 H1   HW0      0.679100        1.0080           
     683 A    171  TIP4 H2   HW0      0.679100        1.0080           
     684 A    171  TIP4 BD1  LP0     -1.358200        0.0000           
     685 A    172  TIP4 O1   OW0      0.000000       15.9990           
     686 A    172  TIP4 H1   HW0      0.679100        1.0080           
     687 A    172  TIP4 H2   HW0      0.679100        1.0080           
     688 A    172  TIP4 BD1  LP0     -1.358200        0.0000           
     689 A    173  TIP4 O1   OW0      0.000000       15.9990           
     690 A    173  TIP4 H1   HW0      0.679100        1.0080           
     691 A    173  TIP4 H2   HW0      0.679100        1.0080           
     692 A    173  TIP4 BD1  LP0     -1.358200        0.0000           
     693 A    174  TIP4 O1   OW0      0.000000       15.9990           
     694 A    174  TIP4 H1   HW0      0.679100        1.0080           
     695 A    174  TIP4 H2   HW0      0.679100        1.0080           
     696 A    174  TIP4 BD1  LP0     -1.358200        0.0000           
     697 A    175  TIP4 O1   OW0      0.000000       15.9990           
     698 A    175  TIP4 H1   HW0      0.679100        1.0080           
     699 A    175  TIP4 H2   HW0      0.679100        1.0080           
     700 A    175  TIP4 BD1  LP0     -1.358200        0.0000           
     701 A    176  TIP4 O1   OW0      0.000000       15.9990           
     702 A    176  TIP4 H1   HW0      0.679100        1.0080           
     703 A    176  TIP4 H2   HW0      0.679100        1.0080           
     704 A    176  TIP4 BD1  LP0     -1.358200        0.0000           
     705 A    177  TIP4 O1   OW0      0.000000       15.9990           
     706 A    177  TIP4 H1   HW0      0.679100        1.0080           
     707 A    177  TIP4 H2   HW0      0.679100        1.0080           
     708 A    177  TIP4 BD1  LP0     -1.358200        0.0000           
     709 A    178  TIP4 O1   OW0      0.000000       15.9990           
     710 A    178  TIP4 H1   HW0      0.679100        1.0080           
     711 A    178  TIP4 H2   HW0      0.679100        1.0080           
     712 A    178  TIP4 BD1  LP0     -1.358200        0.0000           
     713 A    179  TIP4 O1   OW0      0.000000       15.9990           
     714 A    179  TIP4 H1   HW0      0.679100        1.0080           
     715 A    179  TIP4 H2   HW0      0.679100        1.0080           
     716 A    179  TIP4 BD1  LP0     -1.358200        0.0000           
     717 A    180  TIP4 O1   OW0      0.000000       15.9990           
     718 A    180  TIP4 H1   HW0      0.679100        1.0080           
     719 A    180  TIP4 H2   HW0      0.679100        1.0080           
     720 A    180  TIP4 BD1  LP0     -1.358200        0.0000           
     721 A    181  TIP4 O1   OW0      0.000000       15.9990           
     722 A    181  TIP4 H1   HW0      0.679100        1.0080           
     723 A    181  TIP4 H2   HW0      0.679100        1.0080           
     724 A    181  TIP4 BD1  LP0     -1.358200        0.0000           
     725 A    182  TIP4 O1   OW0      0.000000       15.9990           
     726 A    182  TIP4 H1   HW0      0.679100        1.0080           
     727 A    182  TIP4 H2   HW0      0.679100        1.0080           
     728 A    182  TIP4 BD1  LP0     -1.358200        0.0000           
     729 A    183  TIP4 O1   OW0      0.000000       15.9990           
     730 A    183  TIP4 H1   HW0      0.679100        1.0080           
     731 A    183  TIP4 H2   HW0      0.679100        1.0080           
     732 A    183  TIP4 BD1  LP0     -1.358200        0.0000           
     733 A    184  TIP4 O1   OW0      0.000000       15.9990           
     734 A    184  TIP4 H1   HW0      0.679100        1.0080           
     735 A    184  TIP4 H2   HW0      0.679100        1.0080           
     736 A    184  TIP4 BD1  LP0     -1.358200        0.0000           
     737 A    185  TIP4 O1   OW0      0.000000       15.9990           
     738 A    185  TIP4 H1   HW0      0.679100        1.0080           
     739 A    185  TIP4 H2   HW0      0.679100        1.0080           
     740 A    185  TIP4 BD1  LP0     -1.358200        0.0000           
     741 A    186  TIP4 O1   OW0      0.000000       15.9990           
     742 A    186  TIP4 H1   HW0      0.679100        1.0080           
     743 A    186  TIP4 H2   HW0      0.679100        1.0080           
     744 A    186  TIP4 BD1  LP0     -1.358200        0.0000           
     745 A    187  TIP4 O1   OW0      0.000000       15.9990           
     746 A    187  TIP4 H1   HW0      0.679100        1.0080           
     747 A    187  TIP4 H2   HW0      0.679100        1.0080           
     748 A    187  TIP4 BD1  LP0     -1.358200        0.0000           
     749 A    188  TIP4 O1   OW0      0.000000       15.9990           
     750 A    188  TIP4 H1   HW0      0.679100        1.0080           
     751 A    188  TIP4 H2   HW0      0.679100        1.0080           
     752 A    188  TIP4 BD1  LP0     -1.358200        0.0000           
     753 A    189  TIP4 O1   OW0      0.000000       15.9990           
     754 A    189  TIP4 H1   HW0      0.679100        1.0080           
     755 A    189  TIP4 H2   HW0      0.679100        1.0080           
     756 A    189  TIP4 BD1  LP0     -1.358200        0.0000           
     757 A    190  TIP4 O1   OW0      0.000000       15.9990           
     758 A    190  TIP4 H1   HW0      0.679100        1.0080           
     759 A    190  TIP4 H2   HW0      0.679100        1.0080           
     760 A    190  TIP4 BD1  LP0     -1.358200        0.0000           
     761 A    191  TIP4 O1   OW0      0.000000       15.9990           
     762 A    191  TIP4 H1   HW0      0.679100        1.0080           
     763 A    191  TIP4 H2   HW0      0.679100        1.0080           
     764 A    191  TIP4 BD1  LP0     -1.358200        0.0000           
     765 A    192  TIP4 O1   OW0      0.000000       15.9990           
     766 A    192  TIP4 H1   HW0      0.679100        1.0080           
     767 A    192  TIP4 H2   HW0      0.679100        1.0080           
     768 A    192  TIP4 BD1  LP0     -1.358200        0.0000           
     769 A    193  TIP4 O1   OW0      0.000000       15.9990           
     770 A    193  TIP4 H1   HW0      0.679100        1.0080           
     771 A    193  TIP4 H2   HW0      0.679100        1.0080           
     772 A    193  TIP4 BD1  LP0     -1.358200        0.0000           
     773 A    194  TIP4 O1   OW0      0.000000       15.9990           
     774 A    194  TIP4 H1   HW0      0.679100        1.0080           
     775 A    194  TIP4 H2   HW0      0.679100        1.0080           
     776 A    194  TIP4 BD1  LP0     -1.358200        0.0000           
     777 A    195  TIP4 O1   OW0      0.000000       15.9990           
     778 A    195  TIP4 H1   HW0      0.679100        1.0080           
     779 A    195  TIP4 H2   HW0      0.679100        1.0080           
     780 A    195  TIP4 BD1  LP0     -1.358200        0.0000           
     781 A    196  TIP4 O1   OW0      0.000000       15.9990           
     782 A    196  TIP4 H1   HW0      0.679100        1.0080           
     783 A    196  TIP4 H2   HW0      0.679100        1.0080           
     784 A    196  TIP4 BD1  LP0     -1.358200        0.0000           
     785 A    197  TIP4 O1   OW0      0.000000       15.9990           
     786 A    197  TIP4 H1   HW0      0.679100        1.0080           
     787 A    197  TIP4 H2   HW0      0.679100        1.0080           
     788 A    197  TIP4 BD1  LP0     -1.358200        0.0000           
     789 A    198  TIP4 O1   OW0      0.000000       15.9990           
     790 A    198  TIP4 H1   HW0      0.679100        1.0080           
     791 A    198  TIP4 H2   HW0      0.679100        1.0080           
     792 A    198  TIP4 BD1  LP0     -1.358200        0.0000           
     793 A    199  TIP4 O1   OW0      0.000000       15.9990           
     794 A    199  TIP4 H1   HW0      0.679100        1.0080           
     795 A    199  TIP4 H2   HW0      0.679100        1.0080           
     796 A    199  TIP4 BD1  LP0     -1.358200        0.0000           
     797 A    200  TIP4 O1   OW0      0.000000       15.9990           
     798 A    200  TIP4 H1   HW0      0.679100        1.0080           
     799 A    200  TIP4 H2   HW0      0.679100        1.0080           
     800 A    200  TIP4 BD1  LP0     -1.358200        0.0000           
     801 A    201  TIP4 O1   OW0      0.000000       15.9990           
     802 A    201  TIP4 H1   HW0      0.679100        1.0080           
     803 A    201  TIP4 H2   HW0      0.679100        1.0080           
     804 A    201  TIP4 BD1  LP0     -1.358200        0.0000           
     805 A    202  TIP4 O1   OW0      0.000000       15.9990           
     806 A    202  TIP4 H1   HW0      0.679100        1.0080           
     807 A    202  TIP4 H2   HW0      0.679100        1.0080           
     808 A    202  TIP4 BD1  LP0     -1.358200        0.0000           
     809 A    203  TIP4 O1   OW0      0.000000       15.9990           
     810 A    203  TIP4 H1   HW0      0.679100        1.0080           
     811 A    203  TIP4 H2   HW0      0.679100        1.0080           
     812 A    203  TIP4 BD1  LP0     -1.358200        0.0000           
     813 A    204  TIP4 O1   OW0      0.000000       15.9990           
     814 A    204  TIP4 H1   HW0      0.679100        1.0080           
     815 A    204  TIP4 H2   HW0      0.679100        1.0080           
     816 A    204  TIP4 BD1  LP0     -1.358200        0.0000           
     817 A    205  TIP4 O1   OW0      0.000000       15.9990           
     818 A    205  TIP4 H1   HW0      0.679100        1.0080           
     819 A    205  TIP4 H2   HW0      0.679100        1.0080           
     820 A    205  TIP4 BD1  LP0     -1.358200        0.0000           
     821 A    206  TIP4 O1   OW0      0.000000       15.9990           
     822 A    206  TIP4 H1   HW0      0.679100        1.0080           
     823 A    206  TIP4 H2   HW0      0.679100        1.0080           
     824 A    206  TIP4 BD1  LP0     -1.358200        0.0000           
     825 A    207  TIP4 O1   OW0      0.000000       15.9990           
     826 A    207  TIP4 H1   HW0      0.679100        1.0080           
     827 A    207  TIP4 H2   HW0      0.679100        1.0080           
     828 A    207  TIP4 BD1  LP0     -1.358200        0.0000           
     829 A    208  TIP4 O1   OW0      0.000000       15.9990           
     830 A    208  TIP4 H1   HW0      0.679100        1.0080           
     831 A    208  TIP4 H2   HW0      0.679100        1.0080           
     832 A    208  TIP4 BD1  LP0     -1.358200        0.0000           
     833 A    209  TIP4 O1   OW0      0.000000       15.9990           
     834 A    209  TIP4 H1   HW0      0.679100        1.0080           
     835 A    209  TIP4 H2   HW0      0.679100        1.0080           
     836 A    209  TIP4 BD1  LP0     -1.358200        0.0000           
     837 A    210  TIP4 O1   OW0      0.000000       15.9990           
     838 A    210  TIP4 H1   HW0      0.679100        1.0080           
     839 A    210  TIP4 H2   HW0      0.679100        1.0080           
     840 A    210  TIP4 BD1  LP0     -1.358200        0.0000           
     841 A    211  TIP4 O1   OW0      0.000000       15.9990           
     842 A    211  TIP4 H1   HW0      0.679100        1.0080           
     843 A    211  TIP4 H2   HW0      0.679100        1.0080           
     844 A    211  TIP4 BD1  LP0     -1.358200        0.0000           
     845 A    212  TIP4 O1   OW0      0.000000       15.9990           
     846 A    212  TIP4 H1   HW0      0.679100        1.0080           
     847 A    212  TIP4 H2   HW0      0.679100        1.0080           
     848 A    212  TIP4 BD1  LP0     -1.358200        0.0000           
     849 A    213  TIP4 O1   OW0      0.000000       15.9990           
     850 A    213  TIP4 H1   HW0      0.679100        1.0080           
     851 A    213  TIP4 H2   HW0      0.679100        1.0080           
     852 A    213  TIP4 BD1  LP0     -1.358200        0.0000           
     853 A    214  TIP4 O1   OW0      0.000000       15.9990           
     854 A    214  TIP4 H1   HW0      0.679100        1.0080           
     855 A    214  TIP4 H2   HW0      0.679100        1.0080           
     856 A    214  TIP4 BD1  LP0     -1.358200        0.0000           
     857 A    215  TIP4 O1   OW0      0.000000       15.9990           
     858 A    215  TIP4 H1   HW0      0.679100        1.0080           
     859 A    215  TIP4 H2   HW0      0.679100        1.0080           
     860 A    215  TIP4 BD1  LP0     -1.358200        0.0000           
     861 A    216  TIP4 O1   OW0      0.000000       15.9990           
     862 A    216  TIP4 H1   HW0      0.679100        1.0080           
     863 A    216  TIP4 H2   HW0      0.679100        1.0080           
     864 A    216  TIP4 BD1  LP0     -1.358200        0.0000           
     865 A    217  TIP4 O1   OW0      0.000000       15.9990           
     866 A    217  TIP4 H1   HW0      0.679100        1.0080           
     867 A    217  TIP4 H2   HW0      0.679100        1.0080           
     868 A    217  TIP4 BD1  LP0     -1.358200        0.0000           
     869 A    218  TIP4 O1   OW0      0.000000       15.9990           
     870 A    218  TIP4 H1   HW0      0.679100        1.0080           
     871 A    218  TIP4 H2   HW0      0.679100        1.0080           
     872 A    218  TIP4 BD1  LP0     -1.358200        0.0000           
     873 A    219  TIP4 O1   OW0      0.000000       15.9990           
     874 A    219  TIP4 H1   HW0      0.679100        1.0080           
     875 A    219  TIP4 H2   HW0      0.679100        1.0080           
     876 A    219  TIP4 BD1  LP0     -1.358200        0.0000           
     877 A    220  TIP4 O1   OW0      0.000000       15.9990           
     878 A    220  TIP4 H1   HW0      0.679100        1.0080           
     879 A    220  TIP4 H2   HW0      0.679100        1.0080           
     880 A    220  TIP4 BD1  LP0     -1.358200        0.0000           
     881 A    221  TIP4 O1   OW0      0.000000       15.9990           
     882 A    221  TIP4 H1   HW0      0.679100        1.0080           
     883 A    221  TIP4 H2   HW0      0.679100        1.0080           
     884 A    221  TIP4 BD1  LP0     -1.358200        0.0000           
     885 A    222  TIP4 O1   OW0      0.000000       15.9990           
     886 A    222  TIP4 H1   HW0      0.679100        1.0080           
     887 A    222  TIP4 H2   HW0      0.679100        1.0080           
     888 A    222  TIP4 BD1  LP0     -1.358200        0.0000           
     889 A    223  TIP4 O1   OW0      0.000000       15.9990           
     890 A    223  TIP4 H1   HW0      0.679100        1.0080           
     891 A    223  TIP4 H2   HW0      0.679100        1.0080           
     892 A    223  TIP4 BD1  LP0     -1.358200        0.0000           
     893 A    224  TIP4 O1   OW0      0.000000       15.9990           
     894 A    224  TIP4 H1   HW0      0.679100        1.0080           
     895 A    224  TIP4 H2   HW0      0.679100        1.0080           
     896 A    224  TIP4 BD1  LP0     -1.358200        0.0000           
     897 A    225  TIP4 O1   OW0      0.000000       15.9990           
     898 A    225  TIP4 H1   HW0      0.679100        1.0080           
     899 A    225  TIP4 H2   HW0      0.679100        1.0080           
     900 A    225  TIP4 BD1  LP0     -1.358200        0.0000           
     901 A    226  TIP4 O1   OW0      0.000000       15.9990           
     902 A    226  TIP4 H1   HW0      0.679100        1.0080           
     903 A    226  TIP4 H2   HW0      0.679100        1.0080           
     904 A    226  TIP4 BD1  LP0     -1.358200        0.0000           
     905 A    227  TIP4 O1   OW0      0.000000       15.9990           
     906 A    227  TIP4 H1   HW0      0.679100        1.0080           
     907 A    227  TIP4 H2   HW0      0.679100        1.0080           
     908 A    227  TIP4 BD1  LP0     -1.358200        0.0000           
     909 A    228  TIP4 O1   OW0      0.000000       15.9990           
     910 A    228  TIP4 H1   HW0      0.679100        1.0080           
     911 A    228  TIP4 H2   HW0      0.679100        1.0080           
     912 A    228  TIP4 BD1  LP0     -1.358200        0.0000           
     913 A    229  TIP4 O1   OW0      0.000000       15.9990           
     914 A    229  TIP4 H1   HW0      0.679100        1.0080           
     915 A    229  TIP4 H2   HW0      0.679100        1.0080           
     916 A    229  TIP4 BD1  LP0     -1.358200        0.0000           
     917 A    230  TIP4 O1   OW0      0.000000       15.9990           
     918 A    230  TIP4 H1   HW0      0.679100        1.0080           
     919 A    230  TIP4 H2   HW0      0.679100        1.0080           
     920 A    230  TIP4 BD1  LP0     -1.358200        0.0000           
     921 A    231  TIP4 O1   OW0      0.000000       15.9990           
     922 A    231  TIP4 H1   HW0      0.679100        1.0080           
     923 A    231  TIP4 H2   HW0      0.679100        1.0080           
     924 A    231  TIP4 BD1  LP0     -1.358200        0.0000           
     925 A    232  TIP4 O1   OW0      0.000000       15.9990           
     926 A    232  TIP4 H1   HW0      0.679100        1.0080           
     927 A    232  TIP4 H2   HW0      0.679100        1.0080           
     928 A    232  TIP4 BD1  LP0     -1.358200        0.0000           
     929 A    233  TIP4 O1   OW0      0.000000       15.9990           
     930 A    233  TIP4 H1   HW0      0.679100        1.0080           
     931 A    233  TIP4 H2   HW0      0.679100        1.0080           
     932 A    233  TIP4 BD1  LP0     -1.358200        0.0000           
     933 A    234  TIP4 O1   OW0      0.000000       15.9990           
     934 A    234  TIP4 H1   HW0      0.679100        1.0080           
     935 A    234  TIP4 H2   HW0      0.679100        1.0080           
     936 A    234  TIP4 BD1  LP0     -1.358200        0.0000           
     937 A    235  TIP4 O1   OW0      0.000000       15.9990           
     938 A    235  TIP4 H1   HW0      0.679100        1.0080           
     939 A    235  TIP4 H2   HW0      0.679100        1.0080           
     940 A    235  TIP4 BD1  LP0     -1.358200        0.0000           
     941 A    236  TIP4 O1   OW0      0.000000       15.9990           
     942 A    236  TIP4 H1   HW0      0.679100        1.0080           
     943 A    236  TIP4 H2   HW0      0.679100        1.0080           
     944 A    236  TIP4 BD1  LP0     -1.358200        0.0000           
     945 A    237  TIP4 O1   OW0      0.000000       15.9990           
     946 A    237  TIP4 H1   HW0      0.679100        1.0080           
     947 A    237  TIP4 H2   HW0      0.679100        1.0080           
     948 A    237  TIP4 BD1  LP0     -1.358200        0.0000           
     949 A    238  TIP4 O1   OW0      0.000000       15.9990           
     950 A    238  TIP4 H1   HW0      0.679100        1.0080           
     951 A    238  TIP4 H2   HW0      0.679100        1.0080           
     952 A    238  TIP4 BD1  LP0     -1.358200        0.0000           
     953 A    239  TIP4 O1   OW0      0.000000       15.9990           
     954 A    239  TIP4 H1   HW0      0.679100        1.0080           
     955 A    239  TIP4 H2   HW0      0.679100        1.0080           
     956 A    239  TIP4 BD1  LP0     -1.358200        0.0000           
     957 A    240  TIP4 O1   OW0      0.000000       15.9990           
     958 A    240  TIP4 H1   HW0      0.679100        1.0080           
     959 A    240  TIP4 H2   HW0      0.679100        1.0080           
     960 A    240  TIP4 BD1  LP0     -1.358200        0.0000           
     961 A    241  TIP4 O1   OW0      0.000000       15.9990           
     962 A    241  TIP4 H1   HW0      0.679100        1.0080           
     963 A    241  TIP4 H2   HW0      0.679100        1.0080           
     964 A    241  TIP4 BD1  LP0     -1.358200        0.0000           
     965 A    242  TIP4 O1   OW0      0.000000       15.9990           
     966 A    242  TIP4 H1   HW0      0.679100        1.0080           
     967 A    242  TIP4 H2   HW0      0.679100        1.0080           
     968 A    242  TIP4 BD1  LP0     -1.358200        0.0000           
     969 A    243  TIP4 O1   OW0      0.000000       15.9990           
     970 A    243  TIP4 H1   HW0      0.679100        1.0080           
     971 A    243  TIP4 H2   HW0      0.679100        1.0080           
     972 A    243  TIP4 BD1  LP0     -1.358200        0.0000           
     973 A    244  TIP4 O1   OW0      0.000000       15.9990           
     974 A    244  TIP4 H1   HW0      0.679100        1.0080           
     975 A    244  TIP4 H2   HW0      0.679100        1.0080           
     976 A    244  TIP4 BD1  LP0     -1.358200        0.0000           
     977 A    245  TIP4 O1   OW0      0.000000       15.9990           
     978 A    245  TIP4 H1   HW0      0.679100        1.0080           
     979 A    245  TIP4 H2   HW0      0.679100        1.0080           
     980 A    245  TIP4 BD1  LP0     -1.358200        0.0000           
     981 A    246  TIP4 O1   OW0      0.000000       15.9990           
     982 A    246  TIP4 H1   HW0      0.679100        1.0080           
     983 A    246  TIP4 H2   HW0      0.679100        1.0080           
     984 A    246  TIP4 BD1  LP0     -1.358200        0.0000           
     985 A    247  TIP4 O1   OW0      0.000000       15.9990           
     986 A    247  TIP4 H1   HW0      0.679100        1.0080           
     987 A    247  TIP4 H2   HW0      0.679100        1.0080           
     988 A    247  TIP4 BD1  LP0     -1.358200        0.0000           
     989 A    248  TIP4 O1   OW0      0.000000       15.9990           
     990 A    248  TIP4 H1   HW0      0.679100        1.0080           
     991 A    248  TIP4 H2   HW0      0.679100        1.0080           
     992 A    248  TIP4 BD1  LP0     -1.358200        0.0000           
     993 A    249  TIP4 O1   OW0      0.000000       15.9990           
     994 A    249  TIP4 H1   HW0      0.679100        1.0080           
     995 A    249  TIP4 H2   HW0      0.679100        1.0080           
     996 A    249  TIP4 BD1  LP0     -1.358200        0.0000           
     997 A    250  TIP4 O1   OW0      0.000000       15.9990           
     998 A    250  TIP4 H1   HW0      0.679100        1.0080           
     999 A    250  TIP4 H2   HW0      0.679100        1.0080           
    1000 A    250  TIP4 BD1  LP0     -1.358200        0.0000           
    1001 A    251  TIP4 O1   OW0      0.000000       15.9990           
    1002 A    251  TIP4 H1   HW0      0.679100        1.0080           
    1003 A    251  TIP4 H2   HW0      0.679100        1.0080           
    1004 A    251  TIP4 BD1  LP0     -1.358200        0.0000           
    1005 A    252  TIP4 O1   OW0      0.000000       15.9990           
    1006 A    252  TIP4 H1   HW0      0.679100        1.0080           
    1007 A    252  TIP4 H2   HW0      0.679100        1.0080           
    1008 A    252  TIP4 BD1  LP0     -1.358200        0.0000           
    1009 A    253  TIP4 O1   OW0      0.000000       15.9990           
    1010 A    253  TIP4 H1   HW0      0.679100        1.0080           
    1011 A    253  TIP4 H2   HW0      0.679100        1.0080           
    1012 A    253  TIP4 BD1  LP0     -1.358200        0.0000           
    1013 A    254  TIP4 O1   OW0      0.000000       15.9990           
    1014 A    254  TIP4 H1   HW0      0.679100        1.0080           
    1015 A    254  TIP4 H2   HW0      0.679100        1.0080           
    1016 A    254  TIP4 BD1  LP0     -1.358200        0.0000           
    1017 A    255  TIP4 O1   OW0      0.000000       15.9990           
    1018 A    255  TIP4 H1   HW0      0.679100        1.0080           
    1019 A    255  TIP4 H2   HW0      0.679100        1.0080           
    1020 A    255  TIP4 BD1  LP0     -1.358200        0.0000           
    1021 A    256  TIP4 O1   OW0      0.000000       15.9990           
    1022 A    256  TIP4 H1   HW0      0.679100        1.0080           
    1023 A    256  TIP4 H2   HW0      0.679100        1.0080           
    1024 A    256  TIP4 BD1  LP0     -1.358200        0.0000           
    1025 A    257  TIP4 O1   OW0      0.000000       15.9990           
    1026 A    257  TIP4 H1   HW0      0.679100        1.0080           
    1027 A    257  TIP4 H2   HW0      0.679100        1.0080           
    1028 A    257  TIP4 BD1  LP0     -1.358200        0.0000           
    1029 A    258  TIP4 O1   OW0      0.000000       15.9990           
    1030 A    258  TIP4 H1   HW0      0.679100        1.0080           
    1031 A    258  TIP4 H2   HW0      0.679100        1.0080           
    1032 A    258  TIP4 BD1  LP0     -1.358200        0.0000           
    1033 A    259  TIP4 O1   OW0      0.000000       15.9990           
    1034 A    259  TIP4 H1   HW0      0.679100        1.0080           
    1035 A    259  TIP4 H2   HW0      0.679100        1.0080           
    1036 A    259  TIP4 BD1  LP0     -1.358200        0.0000           
    1037 A    260  TIP4 O1   OW0      0.000000       15.9990           
    1038 A    260  TIP4 H1   HW0      0.679100        1.0080           
    1039 A    260  TIP4 H2   HW0      0.679100        1.0080           
    1040 A    260  TIP4 BD1  LP0     -1.358200        0.0000           
    1041 A    261  TIP4 O1   OW0      0.000000       15.9990           
    1042 A    261  TIP4 H1   HW0      0.679100        1.0080           
    1043 A    261  TIP4 H2   HW0      0.679100        1.0080           
    1044 A    261  TIP4 BD1  LP0     -1.358200        0.0000           
    1045 A    262  TIP4 O1   OW0      0.000000       15.9990           
    1046 A    262  TIP4 H1   HW0      0.679100        1.0080           
    1047 A    262  TIP4 H2   HW0      0.679100        1.0080           
    1048 A    262  TIP4 BD1  LP0     -1.358200        0.0000           
    1049 A    263  TIP4 O1   OW0      0.000000       15.9990           
    1050 A    263  TIP4 H1   HW0      0.679100        1.0080           
    1051 A    263  TIP4 H2   HW0      0.679100        1.0080           
    1052 A    263  TIP4 BD1  LP0     -1.358200        0.0000           
    1053 A    264  TIP4 O1   OW0      0.000000       15.9990           
    1054 A    264  TIP4 H1   HW0      0.679100        1.0080           
    1055 A    264  TIP4 H2   HW0      0.679100        1.0080           
    1056 A    264  TIP4 BD1  LP0     -1.358200        0.0000           
    1057 A    265  TIP4 O1   OW0      0.000000       15.9990           
    1058 A    265  TIP4 H1   HW0      0.679100        1.0080           
    1059 A    265  TIP4 H2   HW0      0.679100        1.0080           
    1060 A    265  TIP4 BD1  LP0     -1.358200        0.0000           
    1061 A    266  TIP4 O1   OW0      0.000000       15.9990           
    1062 A    266  TIP4 H1   HW0      0.679100        1.0080           
    1063 A    266  TIP4 H2   HW0      0.679100        1.0080           
    1064 A    266  TIP4 BD1  LP0     -1.358200        0.0000           
    1065 A    267  TIP4 O1   OW0      0.000000       15.9990           
    1066 A    267  TIP4 H1   HW0      0.679100        1.0080           
    1067 A    267  TIP4 H2   HW0      0.679100        1.0080           
    1068 A    267  TIP4 BD1  LP0     -1.358200        0.0000           
    1069 A    268  TIP4 O1   OW0      0.000000       15.9990           
    1070 A    268  TIP4 H1   HW0      0.679100        1.0080           
    1071 A    268  TIP4 H2   HW0      0.679100        1.0080           
    1072 A    268  TIP4 BD1  LP0     -1.358200        0.0000           
    1073 A    269  TIP4 O1   OW0      0.000000       15.9990           
    1074 A    269  TIP4 H1   HW0      0.679100        1.0080           
    1075 A    269  TIP4 H2   HW0      0.679100        1.0080           
    1076 A    269  TIP4 BD1  LP0     -1.358200        0.0000           
    1077 A    270  TIP4 O1   OW0      0.000000       15.9990           
    1078 A    270  TIP4 H1   HW0      0.679100        1.0080           
    1079 A    270  TIP4 H2   HW0      0.679100        1.0080           
    1080 A    270  TIP4 BD1  LP0     -1.358200        0.0000           
    1081 A    271  TIP4 O1   OW0      0.000000       15.9990           
    1082 A    271  TIP4 H1   HW0      0.679100        1.0080           
    1083 A    271  TIP4 H2   HW0      0.679100        1.0080           
    1084 A    271  TIP4 BD1  LP0     -1.358200        0.0000           
    1085 A    272  TIP4 O1   OW0      0.000000       15.9990           
    1086 A    272  TIP4 H1   HW0      0.679100        1.0080           
    1087 A    272  TIP4 H2   HW0      0.679100        1.0080           
    1088 A    272  TIP4 BD1  LP0     -1.358200        0.0000           
    1089 A    273  TIP4 O1   OW0      0.000000       15.9990           
    1090 A    273  TIP4 H1   HW0      0.679100        1.0080           
    1091 A    273  TIP4 H2   HW0      0.679100        1.0080           
    1092 A    273  TIP4 BD1  LP0     -1.358200        0.0000           
    1093 A    274  TIP4 O1   OW0      0.000000       15.9990           
    1094 A    274  TIP4 H1   HW0      0.679100        1.0080           
    1095 A    274  TIP4 H2   HW0      0.679100        1.0080           
    1096 A    274  TIP4 BD1  LP0     -1.358200        0.0000           
    1097 A    275  TIP4 O1   OW0      0.000000       15.9990           
    1098 A    275  TIP4 H1   HW0      0.679100        1.0080           
    1099 A    275  TIP4 H2   HW0      0.679100        1.0080           
    1100 A    275  TIP4 BD1  LP0     -1.358200        0.0000           
    1101 A    276  TIP4 O1   OW0      0.000000       15.9990           
    1102 A    276  TIP4 H1   HW0      0.679100        1.0080           
    1103 A    276  TIP4 H2   HW0      0.679100        1.0080           
    1104 A    276  TIP4 BD1  LP0     -1.358200        0.0000           
    1105 A    277  TIP4 O1   OW0      0.000000       15.9990           
    1106 A    277  TIP4 H1   HW0      0.679100        1.0080           
    1107 A    277  TIP4 H2   HW0      0.679100        1.0080           
    1108 A    277  TIP4 BD1  LP0     -1.358200        0.0000           
    1109 A    278  TIP4 O1   OW0      0.000000       15.9990           
    1110 A    278  TIP4 H1   HW0      0.679100        1.0080           
    1111 A    278  TIP4 H2   HW0      0.679100        1.0080           
    1112 A    278  TIP4 BD1  LP0     -1.358200        0.0000           
    1113 A    279  TIP4 O1   OW0      0.000000       15.9990           
    1114 A    279  TIP4 H1   HW0      0.679100        1.0080           
    1115 A    279  TIP4 H2   HW0      0.679100        1.0080           
    1116 A    279  TIP4 BD1  LP0     -1.358200        0.0000           
    1117 A    280  TIP4 O1   OW0      0.000000       15.9990           
    1118 A    280  TIP4 H1   HW0      0.679100        1.0080           
    1119 A    280  TIP4 H2   HW0      0.679100        1.0080           
    1120 A    280  TIP4 BD1  LP0     -1.358200        0.0000           
    1121 A    281  TIP4 O1   OW0      0.000000       15.9990           
    1122 A    281  TIP4 H1   HW0      0.679100        1.0080           
    1123 A    281  TIP4 H2   HW0      0.679100        1.0080           
    1124 A    281  TIP4 BD1  LP0     -1.358200        0.0000           
    1125 A    282  TIP4 O1   OW0      0.000000       15.9990           
    1126 A    282  TIP4 H1   HW0      0.679100        1.0080           
    1127 A    282  TIP4 H2   HW0      0.679100        1.0080           
    1128 A    282  TIP4 BD1  LP0     -1.358200        0.0000           
    1129 A    283  TIP4 O1   OW0      0.000000       15.9990           
    1130 A    283  TIP4 H1   HW0      0.679100        1.0080           
    1131 A    283  TIP4 H2   HW0      0.679100        1.0080           
    1132 A    283  TIP4 BD1  LP0     -1.358200        0.0000           
    1133 A    284  TIP4 O1   OW0      0.000000       15.9990           
    1134 A    284  TIP4 H1   HW0      0.679100        1.0080           
    1135 A    284  TIP4 H2   HW0      0.679100        1.0080           
    1136 A    284  TIP4 BD1  LP0     -1.358200        0.0000           
    1137 A    285  TIP4 O1   OW0      0.000000       15.9990           
    1138 A    285  TIP4 H1   HW0      0.679100        1.0080           
    1139 A    285  TIP4 H2   HW0      0.679100        1.0080           
    1140 A    285  TIP4 BD1  LP0     -1.358200        0.0000           
    1141 A    286  TIP4 O1   OW0      0.000000       15.9990           
    1142 A    286  TIP4 H1   HW0      0.679100        1.0080           
    1143 A    286  TIP4 H2   HW0      0.679100        1.0080           
    1144 A    286  TIP4 BD1  LP0     -1.358200        0.0000           
    1145 A    287  TIP4 O1   OW0      0.000000       15.9990           
    1146 A    287  TIP4 H1   HW0      0.679100        1.0080           
    1147 A    287  TIP4 H2   HW0      0.679100        1.0080           
    1148 A    287  TIP4 BD1  LP0     -1.358200        0.0000           
    1149 A    288  TIP4 O1   OW0      0.000000       15.9990           
    1150 A    288  TIP4 H1   HW0      0.679100        1.0080           
    1151 A    288  TIP4 H2   HW0      0.679100        1.0080           
    1152 A    288  TIP4 BD1  LP0     -1.358200        0.0000           
    1153 A    289  TIP4 O1   OW0      0.000000       15.9990           
    1154 A    289  TIP4 H1   HW0      0.679100        1.0080           
    1155 A    289  TIP4 H2   HW0      0.679100        1.0080           
    1156 A    289  TIP4 BD1  LP0     -1.358200        0.0000           
    1157 A    290  TIP4 O1   OW0      0.000000       15.9990           
    1158 A    290  TIP4 H1   HW0      0.679100        1.0080           
    1159 A    290  TIP4 H2   HW0      0.679100        1.0080           
    1160 A    290  TIP4 BD1  LP0     -1.358200        0.0000           
    1161 A    291  TIP4 O1   OW0      0.000000       15.9990           
    1162 A    291  TIP4 H1   HW0      0.679100        1.0080           
    1163 A    291  TIP4 H2   HW0      0.679100        1.0080           
    1164 A    291  TIP4 BD1  LP0     -1.358200        0.0000           
    1165 A    292  TIP4 O1   OW0      0.000000       15.9990           
    1166 A    292  TIP4 H1   HW0      0.679100        1.0080           
    1167 A    292  TIP4 H2   HW0      0.679100        1.0080           
    1168 A    292  TIP4 BD1  LP0     -1.358200        0.0000           
    1169 A    293  TIP4 O1   OW0      0.000000       15.9990           
    1170 A    293  TIP4 H1   HW0      0.679100        1.0080           
    1171 A    293  TIP4 H2   HW0      0.679100        1.0080           
    1172 A    293  TIP4 BD1  LP0     -1.358200        0.0000           
    1173 A    294  TIP4 O1   OW0      0.000000       15.9990           
    1174 A    294  TIP4 H1   HW0      0.679100        1.0080           
    1175 A    294  TIP4 H2   HW0      0.679100        1.0080           
    1176 A    294  TIP4 BD1  LP0     -1.358200        0.0000           
    1177 A    295  TIP4 O1   OW0      0.000000       15.9990           
    1178 A    295  TIP4 H1   HW0      0.679100        1.0080           
    1179 A    295  TIP4 H2   HW0      0.679100        1.0080           
    1180 A    295  TIP4 BD1  LP0     -1.358200        0.0000           
    1181 A    296  TIP4 O1   OW0      0.000000       15.9990           
    1182 A    296  TIP4 H1   HW0      0.679100        1.0080           
    1183 A    296  TIP4 H2   HW0      0.679100        1.0080           
    1184 A    296  TIP4 BD1  LP0     -1.358200        0.0000           
    1185 A    297  TIP4 O1   OW0      0.000000       15.9990           
    1186 A    297  TIP4 H1   HW0      0.679100        1.0080           
    1187 A    297  TIP4 H2   HW0      0.679100        1.0080           
    1188 A    297  TIP4 BD1  LP0     -1.358200        0.0000           
    1189 A    298  TIP4 O1   OW0      0.000000       15.9990           
    1190 A    298  TIP4 H1   HW0      0.679100        1.0080           
    1191 A    298  TIP4 H2   HW0      0.679100        1.0080           
    1192 A    298  TIP4 BD1  LP0     -1.358200        0.0000           
    1193 A    299  TIP4 O1   OW0      0.000000       15.9990           
    1194 A    299  TIP4 H1   HW0      0.679100        1.0080           
    1195 A    299  TIP4 H2   HW0      0.679100        1.0080           
    1196 A    299  TIP4 BD1  LP0     -1.358200        0.0000           
    1197 A    300  TIP4 O1   OW0      0.000000       15.9990           
    1198 A    300  TIP4 H1   HW0      0.679100        1.0080           
    1199 A    300  TIP4 H2   HW0      0.679100        1.0080           
    1200 A    300  TIP4 BD1  LP0     -1.358200        0.0000           
    1201 A    301  TIP4 O1   OW0      0.000000       15.9990           
    1202 A    301  TIP4 H1   HW0      0.679100        1.0080           
    1203 A    301  TIP4 H2   HW0      0.679100        1.0080           
    1204 A    301  TIP4 BD1  LP0     -1.358200        0.0000           
    1205 A    302  TIP4 O1   OW0      0.000000       15.9990           
    1206 A    302  TIP4 H1   HW0      0.679100        1.0080           
    1207 A    302  TIP4 H2   HW0      0.679100        1.0080           
    1208 A    302  TIP4 BD1  LP0     -1.358200        0.0000           
    1209 A    303  TIP4 O1   OW0      0.000000       15.9990           
    1210 A    303  TIP4 H1   HW0      0.679100        1.0080           
    1211 A    303  TIP4 H2   HW0      0.679100        1.0080           
    1212 A    303  TIP4 BD1  LP0     -1.358200        0.0000           
    1213 A    304  TIP4 O1   OW0      0.000000       15.9990           
    1214 A    304  TIP4 H1   HW0      0.679100        1.0080           
    1215 A    304  TIP4 H2   HW0      0.679100        1.0080           
    1216 A    304  TIP4 BD1  LP0     -1.358200        0.0000           
    1217 A    305  TIP4 O1   OW0      0.000000       15.9990           
    1218 A    305  TIP4 H1   HW0      0.679100        1.0080           
    1219 A    305  TIP4 H2   HW0      0.679100        1.0080           
    1220 A    305  TIP4 BD1  LP0     -1.358200        0.0000           
    1221 A    306  TIP4 O1   OW0      0.000000       15.9990           
    1222 A    306  TIP4 H1   HW0      0.679100        1.0080           
    1223 A    306  TIP4 H2   HW0      0.679100        1.0080           
    1224 A    306  TIP4 BD1  LP0     -1.358200        0.0000           
    1225 A    307  TIP4 O1   OW0      0.000000       15.9990           
    1226 A    307  TIP4 H1   HW0      0.679100        1.0080           
    1227 A    307  TIP4 H2   HW0      0.679100        1.0080           
    1228 A    307  TIP4 BD1  LP0     -1.358200        0.0000           
    1229 A    308  TIP4 O1   OW0      0.000000       15.9990           
    1230 A    308  TIP4 H1   HW0      0.679100        1.0080           
    1231 A    308  TIP4 H2   HW0      0.679100        1.0080           
    1232 A    308  TIP4 BD1  LP0     -1.358200        0.0000           
    1233 A    309  TIP4 O1   OW0      0.000000       15.9990           
    1234 A    309  TIP4 H1   HW0      0.679100        1.0080           
    1235 A    309  TIP4 H2   HW0      0.679100        1.0080           
    1236 A    309  TIP4 BD1  LP0     -1.358200        0.0000           
    1237 A    310  TIP4 O1   OW0      0.000000       15.9990           
    1238 A    310  TIP4 H1   HW0      0.679100        1.0080           
    1239 A    310  TIP4 H2   HW0      0.679100        1.0080           
    1240 A    310  TIP4 BD1  LP0     -1.358200        0.0000           
    1241 A    311  TIP4 O1   OW0      0.000000       15.9990           
    1242 A    311  TIP4 H1   HW0      0.679100        1.0080           
    1243 A    311  TIP4 H2   HW0      0.679100        1.0080           
    1244 A    311  TIP4 BD1  LP0     -1.358200        0.0000           
    1245 A    312  TIP4 O1   OW0      0.000000       15.9990           
    1246 A    312  TIP4 H1   HW0      0.679100        1.0080           
    1247 A    312  TIP4 H2   HW0      0.679100        1.0080           
    1248 A    312  TIP4 BD1  LP0     -1.358200        0.0000           
    1249 A    313  TIP4 O1   OW0      0.000000       15.9990           
    1250 A    313  TIP4 H1   HW0      0.679100        1.0080           
    1251 A    313  TIP4 H2   HW0      0.679100        1.0080           
    1252 A    313  TIP4 BD1  LP0     -1.358200        0.0000           
    1253 A    314  TIP4 O1   OW0      0.000000       15.9990           
    1254 A    314  TIP4 H1   HW0      0.679100        1.0080           
    1255 A    314  TIP4 H2   HW0      0.679100        1.0080           
    1256 A    314  TIP4 BD1  LP0     -1.358200        0.0000           
    1257 A    315  TIP4 O1   OW0      0.000000       15.9990           
    1258 A    315  TIP4 H1   HW0      0.679100        1.0080           
    1259 A    315  TIP4 H2   HW0      0.679100        1.0080           
    1260 A    315  TIP4 BD1  LP0     -1.358200        0.0000           
    1261 A    316  TIP4 O1   OW0      0.000000       15.9990           
    1262 A    316  TIP4 H1   HW0      0.679100        1.0080           
    1263 A    316  TIP4 H2   HW0      0.679100        1.0080           
    1264 A    316  TIP4 BD1  LP0     -1.358200        0.0000           
    1265 A    317  TIP4 O1   OW0      0.000000       15.9990           
    1266 A    317  TIP4 H1   HW0      0.679100        1.0080           
    1267 A    317  TIP4 H2   HW0      0.679100        1.0080           
    1268 A    317  TIP4 BD1  LP0     -1.358200        0.0000           
    1269 A    318  TIP4 O1   OW0      0.000000       15.9990           
    1270 A    318  TIP4 H1   HW0      0.679100        1.0080           
    1271 A    318  TIP4 H2   HW0      0.679100        1.0080           
    1272 A    318  TIP4 BD1  LP0     -1.358200        0.0000           
    1273 A    319  TIP4 O1   OW0      0.000000       15.9990           
    1274 A    319  TIP4 H1   HW0      0.679100        1.0080           
    1275 A    319  TIP4 H2   HW0      0.679100        1.0080           
    1276 A    319  TIP4 BD1  LP0     -1.358200        0.0000           
    1277 A    320  TIP4 O1   OW0      0.000000       15.9990           
    1278 A    320  TIP4 H1   HW0      0.679100        1.0080           
    1279 A    320  TIP4 H2   HW0      0.679100        1.0080           
    1280 A    320  TIP4 BD1  LP0     -1.358200        0.0000           
    1281 A    321  TIP4 O1   OW0      0.000000       15.9990           
    1282 A    321  TIP4 H1   HW0      0.679100        1.0080           
    1283 A    321  TIP4 H2   HW0      0.679100        1.0080           
    1284 A    321  TIP4 BD1  LP0     -1.358200        0.0000           
    1285 A    322  TIP4 O1   OW0      0.000000       15.9990           
    1286 A    322  TIP4 H1   HW0      0.679100        1.0080           
    1287 A    322  TIP4 H2   HW0      0.679100        1.0080           
    1288 A    322  TIP4 BD1  LP0     -1.358200        0.0000           
    1289 A    323  TIP4 O1   OW0      0.000000       15.9990           
    1290 A    323  TIP4 H1   HW0      0.679100        1.0080           
    1291 A    323  TIP4 H2   HW0      0.679100        1.0080           
    1292 A    323  TIP4 BD1  LP0     -1.358200        0.0000           
    1293 A    324  TIP4 O1   OW0      0.000000       15.9990           
    1294 A    324  TIP4 H1   HW0      0.679100        1.0080           
    1295 A    324  TIP4 H2   HW0      0.679100        1.0080           
    1296 A    324  TIP4 BD1  LP0     -1.358200        0.0000           
    1297 A    325  TIP4 O1   OW0      0.000000       15.9990           
    1298 A    325  TIP4 H1   HW0      0.679100        1.0080           
    1299 A    325  TIP4 H2   HW0      0.679100        1.0080           
    1300 A    325  TIP4 BD1  LP0     -1.358200        0.0000           
    1301 A    326  TIP4 O1   OW0      0.000000       15.9990           
    1302 A    326  TIP4 H1   HW0      0.679100        1.0080           
    1303 A    326  TIP4 H2   HW0      0.679100        1.0080           
    1304 A    326  TIP4 BD1  LP0     -1.358200        0.0000           
    1305 A    327  TIP4 O1   OW0      0.000000       15.9990           
    1306 A    327  TIP4 H1   HW0      0.679100        1.0080           
    1307 A    327  TIP4 H2   HW0      0.679100        1.0080           
    1308 A    327  TIP4 BD1  LP0     -1.358200        0.0000           
    1309 A    328  TIP4 O1   OW0      0.000000       15.9990           
    1310 A    328  TIP4 H1   HW0      0.679100        1.0080           
    1311 A    328  TIP4 H2   HW0      0.679100        1.0080           
    1312 A    328  TIP4 BD1  LP0     -1.358200        0.0000           
    1313 A    329  TIP4 O1   OW0      0.000000       15.9990           
    1314 A    329  TIP4 H1   HW0      0.679100        1.0080           
    1315 A    329  TIP4 H2   HW0      0.679100        1.0080           
    1316 A    329  TIP4 BD1  LP0     -1.358200        0.0000           
    1317 A    330  TIP4 O1   OW0      0.000000       15.9990           
    1318 A    330  TIP4 H1   HW0      0.679100        1.0080           
    1319 A    330  TIP4 H2   HW0      0.679100        1.0080           
    1320 A    330  TIP4 BD1  LP0     -1.358200        0.0000           
    1321 A    331  TIP4 O1   OW0      0.000000       15.9990           
    1322 A    331  TIP4 H1   HW0      0.679100        1.0080           
    1323 A    331  TIP4 H2   HW0      0.679100        1.0080           
    1324 A    331  TIP4 BD1  LP0     -1.358200        0.0000           
    1325 A    332  TIP4 O1   OW0      0.000000       15.9990           
    1326 A    332  TIP4 H1   HW0      0.679100        1.0080           
    1327 A    332  TIP4 H2   HW0      0.679100        1.0080           
    1328 A    332  TIP4 BD1  LP0     -1.358200        0.0000           
    1329 A    333  TIP4 O1   OW0      0.000000       15.9990           
    1330 A    333  TIP4 H1   HW0      0.679100        1.0080           
    1331 A    333  TIP4 H2   HW0      0.679100        1.0080           
    1332 A    333  TIP4 BD1  LP0     -1.358200        0.0000           
    1333 A    334  TIP4 O1   OW0      0.000000       15.9990           
    1334 A    334  TIP4 H1   HW0      0.679100        1.0080           
    1335 A    334  TIP4 H2   HW0      0.679100        1.0080           
    1336 A    334  TIP4 BD1  LP0     -1.358200        0.0000           
    1337 A    335  TIP4 O1   OW0      0.000000       15.9990           
    1338 A    335  TIP4 H1   HW0      0.679100        1.0080           
    1339 A    335  TIP4 H2   HW0      0.679100        1.0080           
    1340 A    335  TIP4 BD1  LP0     -1.358200        0.0000           
    1341 A    336  TIP4 O1   OW0      0.000000       15.9990           
    1342 A    336  TIP4 H1   HW0      0.679100        1.0080           
    1343 A    336  TIP4 H2   HW0      0.679100        1.0080           
    1344 A    336  TIP4 BD1  LP0     -1.358200        0.0000           
    1345 A    337  TIP4 O1   OW0      0.000000       15.9990           
    1346 A    337  TIP4 H1   HW0      0.679100        1.0080           
    1347 A    337  TIP4 H2   HW0      0.679100        1.0080           
    1348 A    337  TIP4 BD1  LP0     -1.358200        0.0000           
    1349 A    338  TIP4 O1   OW0      0.000000       15.9990           
    1350 A    338  TIP4 H1   HW0      0.679100        1.0080           
    1351 A    338  TIP4 H2   HW0      0.679100        1.0080           
    1352 A    338  TIP4 BD1  LP0     -1.358200        0.0000           
    1353 A    339  TIP4 O1   OW0      0.000000       15.9990           
    1354 A    339  TIP4 H1   HW0      0.679100        1.0080           
    1355 A    339  TIP4 H2   HW0      0.679100        1.0080           
    1356 A    339  TIP4 BD1  LP0     -1.358200        0.0000           
    1357 A    340  TIP4 O1   OW0      0.000000       15.9990           
    1358 A    340  TIP4 H1   HW0      0.679100        1.0080           
    1359 A    340  TIP4 H2   HW0      0.679100        1.0080           
    1360 A    340  TIP4 BD1  LP0     -1.358200        0.0000           
    1361 A    341  TIP4 O1   OW0      0.000000       15.9990           
    1362 A    341  TIP4 H1   HW0      0.679100        1.0080           
    1363 A    341  TIP4 H2   HW0      0.679100        1.0080           
    1364 A    341  TIP4 BD1  LP0     -1.358200        0.0000           
    1365 A    342  TIP4 O1   OW0      0.000000       15.9990           
    1366 A    342  TIP4 H1   HW0      0.679100        1.0080           
    1367 A    342  TIP4 H2   HW0      0.679100        1.0080           
    1368 A    342  TIP4 BD1  LP0     -1.358200        0.0000           
    1369 A    343  TIP4 O1   OW0      0.000000       15.9990           
    1370 A    343  TIP4 H1   HW0      0.679100        1.0080           
    1371 A    343  TIP4 H2   HW0      0.679100        1.0080           
    1372 A    343  TIP4 BD1  LP0     -1.358200        0.0000           
    1373 A    344  TIP4 O1   OW0      0.000000       15.9990           
    1374 A    344  TIP4 H1   HW0      0.679100        1.0080           
    1375 A    344  TIP4 H2   HW0      0.679100        1.0080           
    1376 A    344  TIP4 BD1  LP0     -1.358200        0.0000           
    1377 A    345  TIP4 O1   OW0      0.000000       15.9990           
    1378 A    345  TIP4 H1   HW0      0.679100        1.0080           
    1379 A    345  TIP4 H2   HW0      0.679100        1.0080           
    1380 A    345  TIP4 BD1  LP0     -1.358200        0.0000           
    1381 A    346  TIP4 O1   OW0      0.000000       15.9990           
    1382 A    346  TIP4 H1   HW0      0.679100        1.0080           
    1383 A    346  TIP4 H2   HW0      0.679100        1.0080           
    1384 A    346  TIP4 BD1  LP0     -1.358200        0.0000           
    1385 A    347  TIP4 O1   OW0      0.000000       15.9990           
    1386 A    347  TIP4 H1   HW0      0.679100        1.0080           
    1387 A    347  TIP4 H2   HW0      0.679100        1.0080           
    1388 A    347  TIP4 BD1  LP0     -1.358200        0.0000           
    1389 A    348  TIP4 O1   OW0      0.000000       15.9990           
    1390 A    348  TIP4 H1   HW0      0.679100        1.0080           
    1391 A    348  TIP4 H2   HW0      0.679100        1.0080           
    1392 A    348  TIP4 BD1  LP0     -1.358200        0.0000           
    1393 A    349  TIP4 O1   OW0      0.000000       15.9990           
    1394 A    349  TIP4 H1   HW0      0.679100        1.0080           
    1395 A    349  TIP4 H2   HW0      0.679100        1.0080           
    1396 A    349  TIP4 BD1  LP0     -1.358200        0.0000           
    1397 A    350  TIP4 O1   OW0      0.000000       15.9990           
    1398 A    350  TIP4 H1   HW0      0.679100        1.0080           
    1399 A    350  TIP4 H2   HW0      0.679100        1.0080           
    1400 A    350  TIP4 BD1  LP0     -1.358200        0.0000           
    1401 A    351  TIP4 O1   OW0      0.000000       15.9990           
    1402 A    351  TIP4 H1   HW0      0.679100        1.0080           
    1403 A    351  TIP4 H2   HW0      0.679100        1.0080           
    1404 A    351  TIP4 BD1  LP0     -1.358200        0.0000           
    1405 A    352  TIP4 O1   OW0      0.000000       15.9990           
    1406 A    352  TIP4 H1   HW0      0.679100        1.0080           
    1407 A    352  TIP4 H2   HW0      0.679100        1.0080           
    1408 A    352  TIP4 BD1  LP0     -1.358200        0.0000           
    1409 A    353  TIP4 O1   OW0      0.000000       15.9990           
    1410 A    353  TIP4 H1   HW0      0.679100        1.0080           
    1411 A    353  TIP4 H2   HW0      0.679100        1.0080           
    1412 A    353  TIP4 BD1  LP0     -1.358200        0.0000           
    1413 A    354  TIP4 O1   OW0      0.000000       15.9990           
    1414 A    354  TIP4 H1   HW0      0.679100        1.0080           
    1415 A    354  TIP4 H2   HW0      0.679100        1.0080           
    1416 A    354  TIP4 BD1  LP0     -1.358200        0.0000           
    1417 A    355  TIP4 O1   OW0      0.000000       15.9990           
    1418 A    355  TIP4 H1   HW0      0.679100        1.0080           
    1419 A    355  TIP4 H2   HW0      0.679100        1.0080           
    1420 A    355  TIP4 BD1  LP0     -1.358200        0.0000           
    1421 A    356  TIP4 O1   OW0      0.000000       15.9990           
    1422 A    356  TIP4 H1   HW0      0.679100        1.0080           
    1423 A    356  TIP4 H2   HW0      0.679100        1.0080           
    1424 A    356  TIP4 BD1  LP0     -1.358200        0.0000           
    1425 A    357  TIP4 O1   OW0      0.000000       15.9990           
    1426 A    357  TIP4 H1   HW0      0.679100        1.0080           
    1427 A    357  TIP4 H2   HW0      0.679100        1.0080           
    1428 A    357  TIP4 BD1  LP0     -1.358200        0.0000           
    1429 A    358  TIP4 O1   OW0      0.000000       15.9990           
    1430 A    358  TIP4 H1   HW0      0.679100        1.0080           
    1431 A    358  TIP4 H2   HW0      0.679100        1.0080           
    1432 A    358  TIP4 BD1  LP0     -1.358200        0.0000           
    1433 A    359  TIP4 O1   OW0      0.000000       15.9990           
    1434 A    359  TIP4 H1   HW0      0.679100        1.0080           
    1435 A    359  TIP4 H2   HW0      0.679100        1.0080           
    1436 A    359  TIP4 BD1  LP0     -1.358200        0.0000           
    1437 A    360  TIP4 O1   OW0      0.000000       15.9990           
    1438 A    360  TIP4 H1   HW0      0.679100        1.0080           
    1439 A    360  TIP4 H2   HW0      0.679100        1.0080           
    1440 A    360  TIP4 BD1  LP0     -1.358200        0.0000           
    1441 A    361  TIP4 O1   OW0      0.000000       15.9990           
    1442 A    361  TIP4 H1   HW0      0.679100        1.0080           
    1443 A    361  TIP4 H2   HW0      0.679100        1.0080           
    1444 A    361  TIP4 BD1  LP0     -1.358200        0.0000           
    1445 A    362  TIP4 O1   OW0      0.000000       15.9990           
    1446 A    362  TIP4 H1   HW0      0.679100        1.0080           
    1447 A    362  TIP4 H2   HW0      0.679100        1.0080           
    1448 A    362  TIP4 BD1  LP0     -1.358200        0.0000           
    1449 A    363  TIP4 O1   OW0      0.000000       15.9990           
    1450 A    363  TIP4 H1   HW0      0.679100        1.0080           
    1451 A    363  TIP4 H2   HW0      0.679100        1.0080           
    1452 A    363  TIP4 BD1  LP0     -1.358200        0.0000           
    1453 A    364  TIP4 O1   OW0      0.000000       15.9990           
    1454 A    364  TIP4 H1   HW0      0.679100        1.0080           
    1455 A    364  TIP4 H2   HW0      0.679100        1.0080           
    1456 A    364  TIP4 BD1  LP0     -1.358200        0.0000           
    1457 A    365  TIP4 O1   OW0      0.000000       15.9990           
    1458 A    365  TIP4 H1   HW0      0.679100        1.0080           
    1459 A    365  TIP4 H2   HW0      0.679100        1.0080           
    1460 A    365  TIP4 BD1  LP0     -1.358200        0.0000           
    1461 A    366  TIP4 O1   OW0      0.000000       15.9990           
    1462 A    366  TIP4 H1   HW0      0.679100        1.0080           
    1463 A    366  TIP4 H2   HW0      0.679100        1.0080           
    1464 A    366  TIP4 BD1  LP0     -1.358200        0.0000           
    1465 A    367  TIP4 O1   OW0      0.000000       15.9990           
    1466 A    367  TIP4 H1   HW0      0.679100        1.0080           
    1467 A    367  TIP4 H2   HW0      0.679100        1.0080           
    1468 A    367  TIP4 BD1  LP0     -1.358200        0.0000           
    1469 A    368  TIP4 O1   OW0      0.000000       15.9990           
    1470 A    368  TIP4 H1   HW0      0.679100        1.0080           
    1471 A    368  TIP4 H2   HW0      0.679100        1.0080           
    1472 A    368  TIP4 BD1  LP0     -1.358200        0.0000           
    1473 A    369  TIP4 O1   OW0      0.000000       15.9990           
    1474 A    369  TIP4 H1   HW0      0.679100        1.0080           
    1475 A    369  TIP4 H2   HW0      0.679100        1.0080           
    1476 A    369  TIP4 BD1  LP0     -1.358200        0.0000           
    1477 A    370  TIP4 O1   OW0      0.000000       15.9990           
    1478 A    370  TIP4 H1   HW0      0.679100        1.0080           
    1479 A    370  TIP4 H2   HW0      0.679100        1.0080           
    1480 A    370  TIP4 BD1  LP0     -1.358200        0.0000           
    1481 A    371  TIP4 O1   OW0      0.000000       15.9990           
    1482 A    371  TIP4 H1   HW0      0.679100        1.0080           
    1483 A    371  TIP4 H2   HW0      0.679100        1.0080           
    1484 A    371  TIP4 BD1  LP0     -1.358200        0.0000           
    1485 A    372  TIP4 O1   OW0      0.000000       15.9990           
    1486 A    372  TIP4 H1   HW0      0.679100        1.0080           
    1487 A    372  TIP4 H2   HW0      0.679100        1.0080           
    1488 A    372  TIP4 BD1  LP0     -1.358200        0.0000           
    1489 A    373  TIP4 O1   OW0      0.000000       15.9990           
    1490 A    373  TIP4 H1   HW0      0.679100        1.0080           
    1491 A    373  TIP4 H2   HW0      0.679100        1.0080           
    1492 A    373  TIP4 BD1  LP0     -1.358200        0.0000           
    1493 A    374  TIP4 O1   OW0      0.000000       15.9990           
    1494 A    374  TIP4 H1   HW0      0.679100        1.0080           
    1495 A    374  TIP4 H2   HW0      0.679100        1.0080           
    1496 A    374  TIP4 BD1  LP0     -1.358200        0.0000           
    1497 A    375  TIP4 O1   OW0      0.000000       15.9990           
    1498 A    375  TIP4 H1   HW0      0.679100        1.0080           
    1499 A    375  TIP4 H2   HW0      0.679100        1.0080           
    1500 A    375  TIP4 BD1  LP0     -1.358200        0.0000           
    1501 A    376  TIP4 O1   OW0      0.000000       15.9990           
    1502 A    376  TIP4 H1   HW0      0.679100        1.0080           
    1503 A    376  TIP4 H2   HW0      0.679100        1.0080           
    1504 A    376  TIP4 BD1  LP0     -1.358200        0.0000           
    1505 A    377  TIP4 O1   OW0      0.000000       15.9990           
    1506 A    377  TIP4 H1   HW0      0.679100        1.0080           
    1507 A    377  TIP4 H2   HW0      0.679100        1.0080           
    1508 A    377  TIP4 BD1  LP0     -1.358200        0.0000           
    1509 A    378  TIP4 O1   OW0      0.000000       15.9990           
    1510 A    378  TIP4 H1   HW0      0.679100        1.0080           
    1511 A    378  TIP4 H2   HW0      0.679100        1.0080           
    1512 A    378  TIP4 BD1  LP0     -1.358200        0.0000           
    1513 A    379  TIP4 O1   OW0      0.000000       15.9990           
    1514 A    379  TIP4 H1   HW0      0.679100        1.0080           
    1515 A    379  TIP4 H2   HW0      0.679100        1.0080           
    1516 A    379  TIP4 BD1  LP0     -1.358200        0.0000           
    1517 A    380  TIP4 O1   OW0      0.000000       15.9990           
    1518 A    380  TIP4 H1   HW0      0.679100        1.0080           
    1519 A    380  TIP4 H2   HW0      0.679100        1.0080           
    1520 A    380  TIP4 BD1  LP0     -1.358200        0.0000           
    1521 A    381  TIP4 O1   OW0      0.000000       15.9990           
    1522 A    381  TIP4 H1   HW0      0.679100        1.0080           
    1523 A    381  TIP4 H2   HW0      0.679100        1.0080           
    1524 A    381  TIP4 BD1  LP0     -1.358200        0.0000           
    1525 A    382  TIP4 O1   OW0      0.000000       15.9990           
    1526 A    382  TIP4 H1   HW0      0.679100        1.0080           
    1527 A    382  TIP4 H2   HW0      0.679100        1.0080           
    1528 A    382  TIP4 BD1  LP0     -1.358200        0.0000           
    1529 A    383  TIP4 O1   OW0      0.000000       15.9990           
    1530 A    383  TIP4 H1   HW0      0.679100        1.0080           
    1531 A    383  TIP4 H2   HW0      0.679100        1.0080           
    1532 A    383  TIP4 BD1  LP0     -1.358200        0.0000           
    1533 A    384  TIP4 O1   OW0      0.000000       15.9990           
    1534 A    384  TIP4 H1   HW0      0.679100        1.0080           
    1535 A    384  TIP4 H2   HW0      0.679100        1.0080           
    1536 A    384  TIP4 BD1  LP0     -1.358200        0.0000           
    1537 A    385  TIP4 O1   OW0      0.000000       15.9990           
    1538 A    385  TIP4 H1   HW0      0.679100        1.0080           
    1539 A    385  TIP4 H2   HW0      0.679100        1.0080           
    1540 A    385  TIP4 BD1  LP0     -1.358200        0.0000           
    1541 A    386  TIP4 O1   OW0      0.000000       15.9990           
    1542 A    386  TIP4 H1   HW0      0.679100        1.0080           
    1543 A    386  TIP4 H2   HW0      0.679100        1.0080           
    1544 A    386  TIP4 BD1  LP0     -1.358200        0.0000           
    1545 A    387  TIP4 O1   OW0      0.000000       15.9990           
    1546 A    387  TIP4 H1   HW0      0.679100        1.0080           
    1547 A    387  TIP4 H2   HW0      0.679100        1.0080           
    1548 A    387  TIP4 BD1  LP0     -1.358200        0.0000           
    1549 A    388  TIP4 O1   OW0      0.000000       15.9990           
    1550 A    388  TIP4 H1   HW0      0.679100        1.0080           
    1551 A    388  TIP4 H2   HW0      0.679100        1.0080           
    1552 A    388  TIP4 BD1  LP0     -1.358200        0.0000           
    1553 A    389  TIP4 O1   OW0      0.000000       15.9990           
    1554 A    389  TIP4 H1   HW0      0.679100        1.0080           
    1555 A    389  TIP4 H2   HW0      0.679100        1.0080           
    1556 A    389  TIP4 BD1  LP0     -1.358200        0.0000           
    1557 A    390  TIP4 O1   OW0      0.000000       15.9990           
    1558 A    390  TIP4 H1   HW0      0.679100        1.0080           
    1559 A    390  TIP4 H2   HW0      0.679100        1.0080           
    1560 A    390  TIP4 BD1  LP0     -1.358200        0.0000           
    1561 A    391  TIP4 O1   OW0      0.000000       15.9990           
    1562 A    391  TIP4 H1   HW0      0.679100        1.0080           
    1563 A    391  TIP4 H2   HW0      0.679100        1.0080           
    1564 A    391  TIP4 BD1  LP0     -1.358200        0.0000           
    1565 A    392  TIP4 O1   OW0      0.000000       15.9990           
    1566 A    392  TIP4 H1   HW0      0.679100        1.0080           
    1567 A    392  TIP4 H2   HW0      0.679100        1.0080           
    1568 A    392  TIP4 BD1  LP0     -1.358200        0.0000           
    1569 A    393  TIP4 O1   OW0      0.000000       15.9990           
    1570 A    393  TIP4 H1   HW0      0.679100        1.0080           
    1571 A    393  TIP4 H2   HW0      0.679100        1.0080           
    1572 A    393  TIP4 BD1  LP0     -1.358200        0.0000           
    1573 A    394  TIP4 O1   OW0      0.000000       15.9990           
    1574 A    394  TIP4 H1   HW0      0.679100        1.0080           
    1575 A    394  TIP4 H2   HW0      0.679100        1.0080           
    1576 A    394  TIP4 BD1  LP0     -1.358200        0.0000           
    1577 A    395  TIP4 O1   OW0      0.000000       15.9990           
    1578 A    395  TIP4 H1   HW0      0.679100        1.0080           
    1579 A    395  TIP4 H2   HW0      0.679100        1.0080           
    1580 A    395  TIP4 BD1  LP0     -1.358200        0.0000           
    1581 A    396  TIP4 O1   OW0      0.000000       15.9990           
    1582 A    396  TIP4 H1   HW0      0.679100        1.0080           
    1583 A    396  TIP4 H2   HW0      0.679100        1.0080           
    1584 A    396  TIP4 BD1  LP0     -1.358200        0.0000           
    1585 A    397  TIP4 O1   OW0      0.000000       15.9990           
    1586 A    397  TIP4 H1   HW0      0.679100        1.0080           
    1587 A    397  TIP4 H2   HW0      0.679100        1.0080           
    1588 A    397  TIP4 BD1  LP0     -1.358200        0.0000           
    1589 A    398  TIP4 O1   OW0      0.000000       15.9990           
    1590 A    398  TIP4 H1   HW0      0.679100        1.0080           
    1591 A    398  TIP4 H2   HW0      0.679100        1.0080           
    1592 A    398  TIP4 BD1  LP0     -1.358200        0.0000           
    1593 A    399  TIP4 O1   OW0      0.000000       15.9990           
    1594 A    399  TIP4 H1   HW0      0.679100        1.0080           
    1595 A    399  TIP4 H2   HW0      0.679100        1.0080           
    1596 A    399  TIP4 BD1  LP0     -1.358200        0.0000           
    1597 A    400  TIP4 O1   OW0      0.000000       15.9990           
    1598 A    400  TIP4 H1   HW0      0.679100        1.0080           
    1599 A    400  TIP4 H2   HW0      0.679100        1.0080           
    1600 A    400  TIP4 BD1  LP0     -1.358200        0.0000           
    1601 A    401  TIP4 O1   OW0      0.000000       15.9990           
    1602 A    401  TIP4 H1   HW0      0.679100        1.0080           
    1603 A    401  TIP4 H2   HW0      0.679100        1.0080           
    1604 A    401  TIP4 BD1  LP0     -1.358200        0.0000           
    1605 A    402  TIP4 O1   OW0      0.000000       15.9990           
    1606 A    402  TIP4 H1   HW0      0.679100        1.0080           
    1607 A    402  TIP4 H2   HW0      0.679100        1.0080           
    1608 A    402  TIP4 BD1  LP0     -1.358200        0.0000           
    1609 A    403  TIP4 O1   OW0      0.000000       15.9990           
    1610 A    403  TIP4 H1   HW0      0.679100        1.0080           
    1611 A    403  TIP4 H2   HW0      0.679100        1.0080           
    1612 A    403  TIP4 BD1  LP0     -1.358200        0.0000           
    1613 A    404  TIP4 O1   OW0      0.000000       15.9990           
    1614 A    404  TIP4 H1   HW0      0.679100        1.0080           
    1615 A    404  TIP4 H2   HW0      0.679100        1.0080           
    1616 A    404  TIP4 BD1  LP0     -1.358200        0.0000           
    1617 A    405  TIP4 O1   OW0      0.000000       15.9990           
    1618 A    405  TIP4 H1   HW0      0.679100        1.0080           
    1619 A    405  TIP4 H2   HW0      0.679100        1.0080           
    1620 A    405  TIP4 BD1  LP0     -1.358200        0.0000           
    1621 A    406  TIP4 O1   OW0      0.000000       15.9990           
    1622 A    406  TIP4 H1   HW0      0.679100        1.0080           
    1623 A    406  TIP4 H2   HW0      0.679100        1.0080           
    1624 A    406  TIP4 BD1  LP0     -1.358200        0.0000           
    1625 A    407  TIP4 O1   OW0      0.000000       15.9990           
    1626 A    407  TIP4 H1   HW0      0.679100        1.0080           
    1627 A    407  TIP4 H2   HW0      0.679100        1.0080           
    1628 A    407  TIP4 BD1  LP0     -1.358200        0.0000           
    1629 A    408  TIP4 O1   OW0      0.000000       15.9990           
    1630 A    408  TIP4 H1   HW0      0.679100        1.0080           
    1631 A    408  TIP4 H2   HW0      0.679100        1.0080           
    1632 A    408  TIP4 BD1  LP0     -1.358200        0.0000           
    1633 A    409  TIP4 O1   OW0      0.000000       15.9990           
    1634 A    409  TIP4 H1   HW0      0.679100        1.0080           
    1635 A    409  TIP4 H2   HW0      0.679100        1.0080           
    1636 A    409  TIP4 BD1  LP0     -1.358200        0.0000           
    1637 A    410  TIP4 O1   OW0      0.000000       15.9990           
    1638 A    410  TIP4 H1   HW0      0.679100        1.0080           
    1639 A    410  TIP4 H2   HW0      0.679100        1.0080           
    1640 A    410  TIP4 BD1  LP0     -1.358200        0.0000           
    1641 A    411  TIP4 O1   OW0      0.000000       15.9990           
    1642 A    411  TIP4 H1   HW0      0.679100        1.0080           
    1643 A    411  TIP4 H2   HW0      0.679100        1.0080           
    1644 A    411  TIP4 BD1  LP0     -1.358200        0.0000           
    1645 A    412  TIP4 O1   OW0      0.000000       15.9990           
    1646 A    412  TIP4 H1   HW0      0.679100        1.0080           
    1647 A    412  TIP4 H2   HW0      0.679100        1.0080           
    1648 A    412  TIP4 BD1  LP0     -1.358200        0.0000           
    1649 A    413  TIP4 O1   OW0      0.000000       15.9990           
    1650 A    413  TIP4 H1   HW0      0.679100        1.0080           
    1651 A    413  TIP4 H2   HW0      0.679100        1.0080           
    1652 A    413  TIP4 BD1  LP0     -1.358200        0.0000           
    1653 A    414  TIP4 O1   OW0      0.000000       15.9990           
    1654 A    414  TIP4 H1   HW0      0.679100        1.0080           
    1655 A    414  TIP4 H2   HW0      0.679100        1.0080           
    1656 A    414  TIP4 BD1  LP0     -1.358200        0.0000           
    1657 A    415  TIP4 O1   OW0      0.000000       15.9990           
    1658 A    415  TIP4 H1   HW0      0.679100        1.0080           
    1659 A    415  TIP4 H2   HW0      0.679100        1.0080           
    1660 A    415  TIP4 BD1  LP0     -1.358200        0.0000           
    1661 A    416  TIP4 O1   OW0      0.000000       15.9990           
    1662 A    416  TIP4 H1   HW0      0.679100        1.0080           
    1663 A    416  TIP4 H2   HW0      0.679100        1.0080           
    1664 A    416  TIP4 BD1  LP0     -1.358200        0.0000           
    1665 A    417  TIP4 O1   OW0      0.000000       15.9990           
    1666 A    417  TIP4 H1   HW0      0.679100        1.0080           
    1667 A    417  TIP4 H2   HW0      0.679100        1.0080           
    1668 A    417  TIP4 BD1  LP0     -1.358200        0.0000           
    1669 A    418  TIP4 O1   OW0      0.000000       15.9990           
    1670 A    418  TIP4 H1   HW0      0.679100        1.0080           
    1671 A    418  TIP4 H2   HW0      0.679100        1.0080           
    1672 A    418  TIP4 BD1  LP0     -1.358200        0.0000           
    1673 A    419  TIP4 O1   OW0      0.000000       15.9990           
    1674 A    419  TIP4 H1   HW0      0.679100        1.0080           
    1675 A    419  TIP4 H2   HW0      0.679100        1.0080           
    1676 A    419  TIP4 BD1  LP0     -1.358200        0.0000           
    1677 A    420  TIP4 O1   OW0      0.000000       15.9990           
    1678 A    420  TIP4 H1   HW0      0.679100        1.0080           
    1679 A    420  TIP4 H2   HW0      0.679100        1.0080           
    1680 A    420  TIP4 BD1  LP0     -1.358200        0.0000           
    1681 A    421  TIP4 O1   OW0      0.000000       15.9990           
    1682 A    421  TIP4 H1   HW0      0.679100        1.0080           
    1683 A    421  TIP4 H2   HW0      0.679100        1.0080           
    1684 A    421  TIP4 BD1  LP0     -1.358200        0.0000           
    1685 A    422  TIP4 O1   OW0      0.000000       15.9990           
    1686 A    422  TIP4 H1   HW0      0.679100        1.0080           
    1687 A    422  TIP4 H2   HW0      0.679100        1.0080           
    1688 A    422  TIP4 BD1  LP0     -1.358200        0.0000           
    1689 A    423  TIP4 O1   OW0      0.000000       15.9990           
    1690 A    423  TIP4 H1   HW0      0.679100        1.0080           
    1691 A    423  TIP4 H2   HW0      0.679100        1.0080           
    1692 A    423  TIP4 BD1  LP0     -1.358200        0.0000           
    1693 A    424  TIP4 O1   OW0      0.000000       15.9990           
    1694 A    424  TIP4 H1   HW0      0.679100        1.0080           
    1695 A    424  TIP4 H2   HW0      0.679100        1.0080           
    1696 A    424  TIP4 BD1  LP0     -1.358200        0.0000           
    1697 A    425  TIP4 O1   OW0      0.000000       15.9990           
    1698 A    425  TIP4 H1   HW0      0.679100        1.0080           
    1699 A    425  TIP4 H2   HW0      0.679100        1.0080           
    1700 A    425  TIP4 BD1  LP0     -1.358200        0.0000           
    1701 A    426  TIP4 O1   OW0      0.000000       15.9990           
    1702 A    426  TIP4 H1   HW0      0.679100        1.0080           
    1703 A    426  TIP4 H2   HW0      0.679100        1.0080           
    1704 A    426  TIP4 BD1  LP0     -1.358200        0.0000           
    1705 A    427  TIP4 O1   OW0      0.000000       15.9990           
    1706 A    427  TIP4 H1   HW0      0.679100        1.0080           
    1707 A    427  TIP4 H2   HW0      0.679100        1.0080           
    1708 A    427  TIP4 BD1  LP0     -1.358200        0.0000           
    1709 A    428  TIP4 O1   OW0      0.000000       15.9990           
    1710 A    428  TIP4 H1   HW0      0.679100        1.0080           
    1711 A    428  TIP4 H2   HW0      0.679100        1.0080           
    1712 A    428  TIP4 BD1  LP0     -1.358200        0.0000           
    1713 A    429  TIP4 O1   OW0      0.000000       15.9990           
    1714 A    429  TIP4 H1   HW0      0.679100        1.0080           
    1715 A    429  TIP4 H2   HW0      0.679100        1.0080           
    1716 A    429  TIP4 BD1  LP0     -1.358200        0.0000           
    1717 A    430  TIP4 O1   OW0      0.000000       15.9990           
    1718 A    430  TIP4 H1   HW0      0.679100        1.0080           
    1719 A    430  TIP4 H2   HW0      0.679100        1.0080           
    1720 A    430  TIP4 BD1  LP0     -1.358200        0.0000           
    1721 A    431  TIP4 O1   OW0      0.000000       15.9990           
    1722 A    431  TIP4 H1   HW0      0.679100        1.0080           
    1723 A    431  TIP4 H2   HW0      0.679100        1.0080           
    1724 A    431  TIP4 BD1  LP0     -1.358200        0.0000           
    1725 A    432  TIP4 O1   OW0      0.000000       15.9990           
    1726 A    432  TIP4 H1   HW0      0.679100        1.0080           
    1727 A    432  TIP4 H2   HW0      0.679100        1.0080           
    1728 A    432  TIP4 BD1  LP0     -1.358200        0.0000           
    1729 A    433  TIP4 O1   OW0      0.000000       15.9990           
    1730 A    433  TIP4 H1   HW0      0.679100        1.0080           
    1731 A    433  TIP4 H2   HW0      0.679100        1.0080           
    1732 A    433  TIP4 BD1  LP0     -1.358200        0.0000           
    1733 A    434  TIP4 O1   OW0      0.000000       15.9990           
    1734 A    434  TIP4 H1   HW0      0.679100        1.0080           
    1735 A    434  TIP4 H2   HW0      0.679100        1.0080           
    1736 A    434  TIP4 BD1  LP0     -1.358200        0.0000           
    1737 A    435  TIP4 O1   OW0      0.000000       15.9990           
    1738 A    435  TIP4 H1   HW0      0.679100        1.0080           
    1739 A    435  TIP4 H2   HW0      0.679100        1.0080           
    1740 A    435  TIP4 BD1  LP0     -1.358200        0.0000           
    1741 A    436  TIP4 O1   OW0      0.000000       15.9990           
    1742 A    436  TIP4 H1   HW0      0.679100        1.0080           
    1743 A    436  TIP4 H2   HW0      0.679100        1.0080           
    1744 A    436  TIP4 BD1  LP0     -1.358200        0.0000           
    1745 A    437  TIP4 O1   OW0      0.000000       15.9990           
    1746 A    437  TIP4 H1   HW0      0.679100        1.0080           
    1747 A    437  TIP4 H2   HW0      0.679100        1.0080           
    1748 A    437  TIP4 BD1  LP0     -1.358200        0.0000           
    1749 A    438  TIP4 O1   OW0      0.000000       15.9990           
    1750 A    438  TIP4 H1   HW0      0.679100        1.0080           
    1751 A    438  TIP4 H2   HW0      0.679100        1.0080           
    1752 A    438  TIP4 BD1  LP0     -1.358200        0.0000           
    1753 A    439  TIP4 O1   OW0      0.000000       15.9990           
    1754 A    439  TIP4 H1   HW0      0.679100        1.0080           
    1755 A    439  TIP4 H2   HW0      0.679100        1.0080           
    1756 A    439  TIP4 BD1  LP0     -1.358200        0.0000           
    1757 A    440  TIP4 O1   OW0      0.000000       15.9990           
    1758 A    440  TIP4 H1   HW0      0.679100        1.0080           
    1759 A    440  TIP4 H2   HW0      0.679100        1.0080           
    1760 A    440  TIP4 BD1  LP0     -1.358200        0.0000           
    1761 A    441  TIP4 O1   OW0      0.000000       15.9990           
    1762 A    441  TIP4 H1   HW0      0.679100        1.0080           
    1763 A    441  TIP4 H2   HW0      0.679100        1.0080           
    1764 A    441  TIP4 BD1  LP0     -1.358200        0.0000           
    1765 A    442  TIP4 O1   OW0      0.000000       15.9990           
    1766 A    442  TIP4 H1   HW0      0.679100        1.0080           
    1767 A    442  TIP4 H2   HW0      0.679100        1.0080           
    1768 A    442  TIP4 BD1  LP0     -1.358200        0.0000           
    1769 A    443  TIP4 O1   OW0      0.000000       15.9990           
    1770 A    443  TIP4 H1   HW0      0.679100        1.0080           
    1771 A    443  TIP4 H2   HW0      0.679100        1.0080           
    1772 A    443  TIP4 BD1  LP0     -1.358200        0.0000           
    1773 A    444  TIP4 O1   OW0      0.000000       15.9990           
    1774 A    444  TIP4 H1   HW0      0.679100        1.0080           
    1775 A    444  TIP4 H2   HW0      0.679100        1.0080           
    1776 A    444  TIP4 BD1  LP0     -1.358200        0.0000           
    1777 A    445  TIP4 O1   OW0      0.000000       15.9990           
    1778 A    445  TIP4 H1   HW0      0.679100        1.0080           
    1779 A    445  TIP4 H2   HW0      0.679100        1.0080           
    1780 A    445  TIP4 BD1  LP0     -1.358200        0.0000           
    1781 A    446  TIP4 O1   OW0      0.000000       15.9990           
    1782 A    446  TIP4 H1   HW0      0.679100        1.0080           
    1783 A    446  TIP4 H2   HW0      0.679100        1.0080           
    1784 A    446  TIP4 BD1  LP0     -1.358200        0.0000           
    1785 A    447  TIP4 O1   OW0      0.000000       15.9990           
    1786 A    447  TIP4 H1   HW0      0.679100        1.0080           
    1787 A    447  TIP4 H2   HW0      0.679100        1.0080           
    1788 A    447  TIP4 BD1  LP0     -1.358200        0.0000           
    1789 A    448  TIP4 O1   OW0      0.000000       15.9990           
    1790 A    448  TIP4 H1   HW0      0.679100        1.0080           
    1791 A    448  TIP4 H2   HW0      0.679100        1.0080           
    1792 A    448  TIP4 BD1  LP0     -1.358200        0.0000           
    1793 A    449  TIP4 O1   OW0      0.000000       15.9990           
    1794 A    449  TIP4 H1   HW0      0.679100        1.0080           
    1795 A    449  TIP4 H2   HW0      0.679100        1.0080           
    1796 A    449  TIP4 BD1  LP0     -1.358200        0.0000           
    1797 A    450  TIP4 O1   OW0      0.000000       15.9990           
    1798 A    450  TIP4 H1   HW0      0.679100        1.0080           
    1799 A    450  TIP4 H2   HW0      0.679100        1.0080           
    1800 A    450  TIP4 BD1  LP0     -1.358200        0.0000           
    1801 A    451  TIP4 O1   OW0      0.000000       15.9990           
    1802 A    451  TIP4 H1   HW0      0.679100        1.0080           
    1803 A    451  TIP4 H2   HW0      0.679100        1.0080           
    1804 A    451  TIP4 BD1  LP0     -1.358200        0.0000           
    1805 A    452  TIP4 O1   OW0      0.000000       15.9990           
    1806 A    452  TIP4 H1   HW0      0.679100        1.0080           
    1807 A    452  TIP4 H2   HW0      0.679100        1.0080           
    1808 A    452  TIP4 BD1  LP0     -1.358200        0.0000           
    1809 A    453  TIP4 O1   OW0      0.000000       15.9990           
    1810 A    453  TIP4 H1   HW0      0.679100        1.0080           
    1811 A    453  TIP4 H2   HW0      0.679100        1.0080           
    1812 A    453  TIP4 BD1  LP0     -1.358200        0.0000           
    1813 A    454  TIP4 O1   OW0      0.000000       15.9990           
    1814 A    454  TIP4 H1   HW0      0.679100        1.0080           
    1815 A    454  TIP4 H2   HW0      0.679100        1.0080           
    1816 A    454  TIP4 BD1  LP0     -1.358200        0.0000           
    1817 A    455  TIP4 O1   OW0      0.000000       15.9990           
    1818 A    455  TIP4 H1   HW0      0.679100        1.0080           
    1819 A    455  TIP4 H2   HW0      0.679100        1.0080           
    1820 A    455  TIP4 BD1  LP0     -1.358200        0.0000           
    1821 A    456  TIP4 O1   OW0      0.000000       15.9990           
    1822 A    456  TIP4 H1   HW0      0.679100        1.0080           
    1823 A    456  TIP4 H2   HW0      0.679100        1.0080           
    1824 A    456  TIP4 BD1  LP0     -1.358200        0.0000           
    1825 A    457  TIP4 O1   OW0      0.000000       15.9990           
    1826 A    457  TIP4 H1   HW0      0.679100        1.0080           
    1827 A    457  TIP4 H2   HW0      0.679100        1.0080           
    1828 A    457  TIP4 BD1  LP0     -1.358200        0.0000           
    1829 A    458  TIP4 O1   OW0      0.000000       15.9990           
    1830 A    458  TIP4 H1   HW0      0.679100        1.0080           
    1831 A    458  TIP4 H2   HW0      0.679100        1.0080           
    1832 A    458  TIP4 BD1  LP0     -1.358200        0.0000           
    1833 A    459  TIP4 O1   OW0      0.000000       15.9990           
    1834 A    459  TIP4 H1   HW0      0.679100        1.0080           
    1835 A    459  TIP4 H2   HW0      0.679100        1.0080           
    1836 A    459  TIP4 BD1  LP0     -1.358200        0.0000           
    1837 A    460  TIP4 O1   OW0      0.000000       15.9990           
    1838 A    460  TIP4 H1   HW0      0.679100        1.0080           
    1839 A    460  TIP4 H2   HW0      0.679100        1.0080           
    1840 A    460  TIP4 BD1  LP0     -1.358200        0.0000           
    1841 A    461  TIP4 O1   OW0      0.000000       15.9990           
    1842 A    461  TIP4 H1   HW0      0.679100        1.0080           
    1843 A    461  TIP4 H2   HW0      0.679100        1.0080           
    1844 A    461  TIP4 BD1  LP0     -1.358200        0.0000           
    1845 A    462  TIP4 O1   OW0      0.000000       15.9990           
    1846 A    462  TIP4 H1   HW0      0.679100        1.0080           
    1847 A    462  TIP4 H2   HW0      0.679100        1.0080           
    1848 A    462  TIP4 BD1  LP0     -1.358200        0.0000           
    1849 A    463  TIP4 O1   OW0      0.000000       15.9990           
    1850 A    463  TIP4 H1   HW0      0.679100        1.0080           
    1851 A    463  TIP4 H2   HW0      0.679100        1.0080           
    1852 A    463  TIP4 BD1  LP0     -1.358200        0.0000           
    1853 A    464  TIP4 O1   OW0      0.000000       15.9990           
    1854 A    464  TIP4 H1   HW0      0.679100        1.0080           
    1855 A    464  TIP4 H2   HW0      0.679100        1.0080           
    1856 A    464  TIP4 BD1  LP0     -1.358200        0.0000           
    1857 A    465  TIP4 O1   OW0      0.000000       15.9990           
    1858 A    465  TIP4 H1   HW0      0.679100        1.0080           
    1859 A    465  TIP4 H2   HW0      0.679100        1.0080           
    1860 A    465  TIP4 BD1  LP0     -1.358200        0.0000           
    1861 A    466  TIP4 O1   OW0      0.000000       15.9990           
    1862 A    466  TIP4 H1   HW0      0.679100        1.0080           
    1863 A    466  TIP4 H2   HW0      0.679100        1.0080           
    1864 A    466  TIP4 BD1  LP0     -1.358200        0.0000           
    1865 A    467  TIP4 O1   OW0      0.000000       15.9990           
    1866 A    467  TIP4 H1   HW0      0.679100        1.0080           
    1867 A    467  TIP4 H2   HW0      0.679100        1.0080           
    1868 A    467  TIP4 BD1  LP0     -1.358200        0.0000           
    1869 A    468  TIP4 O1   OW0      0.000000       15.9990           
    1870 A    468  TIP4 H1   HW0      0.679100        1.0080           
    1871 A    468  TIP4 H2   HW0      0.679100        1.0080           
    1872 A    468  TIP4 BD1  LP0     -1.358200        0.0000           
    1873 A    469  TIP4 O1   OW0      0.000000       15.9990           
    1874 A    469  TIP4 H1   HW0      0.679100        1.0080           
    1875 A    469  TIP4 H2   HW0      0.679100        1.0080           
    1876 A    469  TIP4 BD1  LP0     -1.358200        0.0000           
    1877 A    470  TIP4 O1   OW0      0.000000       15.9990           
    1878 A    470  TIP4 H1   HW0      0.679100        1.0080           
    1879 A    470  TIP4 H2   HW0      0.679100        1.0080           
    1880 A    470  TIP4 BD1  LP0     -1.358200        0.0000           
    1881 A    471  TIP4 O1   OW0      0.000000       15.9990           
    1882 A    471  TIP4 H1   HW0      0.679100        1.0080           
    1883 A    471  TIP4 H2   HW0      0.679100        1.0080           
    1884 A    471  TIP4 BD1  LP0     -1.358200        0.0000           
    1885 A    472  TIP4 O1   OW0      0.000000       15.9990           
    1886 A    472  TIP4 H1   HW0      0.679100        1.0080           
    1887 A    472  TIP4 H2   HW0      0.679100        1.0080           
    1888 A    472  TIP4 BD1  LP0     -1.358200        0.0000           
    1889 A    473  TIP4 O1   OW0      0.000000       15.9990           
    1890 A    473  TIP4 H1   HW0      0.679100        1.0080           
    1891 A    473  TIP4 H2   HW0      0.679100        1.0080           
    1892 A    473  TIP4 BD1  LP0     -1.358200        0.0000           
    1893 A    474  TIP4 O1   OW0      0.000000       15.9990           
    1894 A    474  TIP4 H1   HW0      0.679100        1.0080           
    1895 A    474  TIP4 H2   HW0      0.679100        1.0080           
    1896 A    474  TIP4 BD1  LP0     -1.358200        0.0000           
    1897 A    475  TIP4 O1   OW0      0.000000       15.9990           
    1898 A    475  TIP4 H1   HW0      0.679100        1.0080           
    1899 A    475  TIP4 H2   HW0      0.679100        1.0080           
    1900 A    475  TIP4 BD1  LP0     -1.358200        0.0000           
    1901 A    476  TIP4 O1   OW0      0.000000       15.9990           
    1902 A    476  TIP4 H1   HW0      0.679100        1.0080           
    1903 A    476  TIP4 H2   HW0      0.679100        1.0080           
    1904 A    476  TIP4 BD1  LP0     -1.358200        0.0000           
    1905 A    477  TIP4 O1   OW0      0.000000       15.9990           
    1906 A    477  TIP4 H1   HW0      0.679100        1.0080           
    1907 A    477  TIP4 H2   HW0      0.679100        1.0080           
    1908 A    477  TIP4 BD1  LP0     -1.358200        0.0000           
    1909 A    478  TIP4 O1   OW0      0.000000       15.9990           
    1910 A    478  TIP4 H1   HW0      0.679100        1.0080           
    1911 A    478  TIP4 H2   HW0      0.679100        1.0080           
    1912 A    478  TIP4 BD1  LP0     -1.358200        0.0000           
    1913 A    479  TIP4 O1   OW0      0.000000       15.9990           
    1914 A    479  TIP4 H1   HW0      0.679100        1.0080           
    1915 A    479  TIP4 H2   HW0      0.679100        1.0080           
    1916 A    479  TIP4 BD1  LP0     -1.358200        0.0000           
    1917 A    480  TIP4 O1   OW0      0.000000       15.9990           
    1918 A    480  TIP4 H1   HW0      0.679100        1.0080           
    1919 A    480  TIP4 H2   HW0      0.679100        1.0080           
    1920 A    480  TIP4 BD1  LP0     -1.358200        0.0000           
    1921 A    481  TIP4 O1   OW0      0.000000       15.9990           
    1922 A    481  TIP4 H1   HW0      0.679100        1.0080           
    1923 A    481  TIP4 H2   HW0      0.679100        1.0080           
    1924 A    481  TIP4 BD1  LP0     -1.358200        0.0000           
    1925 A    482  TIP4 O1   OW0      0.000000       15.9990           
    1926 A    482  TIP4 H1   HW0      0.679100        1.0080           
    1927 A    482  TIP4 H2   HW0      0.679100        1.0080           
    1928 A    482  TIP4 BD1  LP0     -1.358200        0.0000           
    1929 A    483  TIP4 O1   OW0      0.000000       15.9990           
    1930 A    483  TIP4 H1   HW0      0.679100        1.0080           
    1931 A    483  TIP4 H2   HW0      0.679100        1.0080           
    1932 A    483  TIP4 BD1  LP0     -1.358200        0.0000           
    1933 A    484  TIP4 O1   OW0      0.000000       15.9990           
    1934 A    484  TIP4 H1   HW0      0.679100        1.0080           
    1935 A    484  TIP4 H2   HW0      0.679100        1.0080           
    1936 A    484  TIP4 BD1  LP0     -1.358200        0.0000           
    1937 A    485  TIP4 O1   OW0      0.000000       15.9990           
    1938 A    485  TIP4 H1   HW0      0.679100        1.0080           
    1939 A    485  TIP4 H2   HW0      0.679100        1.0080           
    1940 A    485  TIP4 BD1  LP0     -1.358200        0.0000           
    1941 A    486  TIP4 O1   OW0      0.000000       15.9990           
    1942 A    486  TIP4 H1   HW0      0.679100        1.0080           
    1943 A    486  TIP4 H2   HW0      0.679100        1.0080           
    1944 A    486  TIP4 BD1  LP0     -1.358200        0.0000           
    1945 A    487  TIP4 O1   OW0      0.000000       15.9990           
    1946 A    487  TIP4 H1   HW0      0.679100        1.0080           
    1947 A    487  TIP4 H2   HW0      0.679100        1.0080           
    1948 A    487  TIP4 BD1  LP0     -1.358200        0.0000           
    1949 A    488  TIP4 O1   OW0      0.000000       15.9990           
    1950 A    488  TIP4 H1   HW0      0.679100        1.0080           
    1951 A    488  TIP4 H2   HW0      0.679100        1.0080           
    1952 A    488  TIP4 BD1  LP0     -1.358200        0.0000           
    1953 A    489  TIP4 O1   OW0      0.000000       15.9990           
    1954 A    489  TIP4 H1   HW0      0.679100        1.0080           
    1955 A    489  TIP4 H2   HW0      0.679100        1.0080           
    1956 A    489  TIP4 BD1  LP0     -1.358200        0.0000           
    1957 A    490  TIP4 O1   OW0      0.000000       15.9990           
    1958 A    490  TIP4 H1   HW0      0.679100        1.0080           
    1959 A    490  TIP4 H2   HW0      0.679100        1.0080           
    1960 A    490  TIP4 BD1  LP0     -1.358200        0.0000           
    1961 A    491  TIP4 O1   OW0      0.000000       15.9990           
    1962 A    491  TIP4 H1   HW0      0.679100        1.0080           
    1963 A    491  TIP4 H2   HW0      0.679100        1.0080           
    1964 A    491  TIP4 BD1  LP0     -1.358200        0.0000           
    1965 A    492  TIP4 O1   OW0      0.000000       15.9990           
    1966 A    492  TIP4 H1   HW0      0.679100        1.0080           
    1967 A    492  TIP4 H2   HW0      0.679100        1.0080           
    1968 A    492  TIP4 BD1  LP0     -1.358200        0.0000           
    1969 A    493  TIP4 O1   OW0      0.000000       15.9990           
    1970 A    493  TIP4 H1   HW0      0.679100        1.0080           
    1971 A    493  TIP4 H2   HW0      0.679100        1.0080           
    1972 A    493  TIP4 BD1  LP0     -1.358200        0.0000           
    1973 A    494  TIP4 O1   OW0      0.000000       15.9990           
    1974 A    494  TIP4 H1   HW0      0.679100        1.0080           
    1975 A    494  TIP4 H2   HW0      0.679100        1.0080           
    1976 A    494  TIP4 BD1  LP0     -1.358200        0.0000           
    1977 A    495  TIP4 O1   OW0      0.000000       15.9990           
    1978 A    495  TIP4 H1   HW0      0.679100        1.0080           
    1979 A    495  TIP4 H2   HW0      0.679100        1.0080           
    1980 A    495  TIP4 BD1  LP0     -1.358200        0.0000           
    1981 A    496  TIP4 O1   OW0      0.000000       15.9990           
    1982 A    496  TIP4 H1   HW0      0.679100        1.0080           
    1983 A    496  TIP4 H2   HW0      0.679100        1.0080           
    1984 A    496  TIP4 BD1  LP0     -1.358200        0.0000           
    1985 A    497  TIP4 O1   OW0      0.000000       15.9990           
    1986 A    497  TIP4 H1   HW0      0.679100        1.0080           
    1987 A    497  TIP4 H2   HW0      0.679100        1.0080           
    1988 A    497  TIP4 BD1  LP0     -1.358200        0.0000           
    1989 A    498  TIP4 O1   OW0      0.000000       15.9990           
    1990 A    498  TIP4 H1   HW0      0.679100        1.0080           
    1991 A    498  TIP4 H2   HW0      0.679100        1.0080           
    1992 A    498  TIP4 BD1  LP0     -1.358200        0.0000           
    1993 A    499  TIP4 O1   OW0      0.000000       15.9990           
    1994 A    499  TIP4 H1   HW0      0.679100        1.0080           
    1995 A    499  TIP4 H2   HW0      0.679100        1.0080           
    1996 A    499  TIP4 BD1  LP0     -1.358200        0.0000           
    1997 A    500  TIP4 O1   OW0      0.000000       15.9990           
    1998 A    500  TIP4 H1   HW0      0.679100        1.0080           
    1999 A    500  TIP4 H2   HW0      0.679100        1.0080           
    2000 A    500  TIP4 BD1  LP0     -1.358200        0.0000           
    2001 A    501  TIP4 O1   OW0      0.000000       15.9990           
    2002 A    501  TIP4 H1   HW0      0.679100        1.0080           
    2003 A    501  TIP4 H2   HW0      0.679100        1.0080           
    2004 A    501  TIP4 BD1  LP0     -1.358200        0.0000           
    2005 A    502  TIP4 O1   OW0      0.000000       15.9990           
    2006 A    502  TIP4 H1   HW0      0.679100        1.0080           
    2007 A    502  TIP4 H2   HW0      0.679100        1.0080           
    2008 A    502  TIP4 BD1  LP0     -1.358200        0.0000           
    2009 A    503  TIP4 O1   OW0      0.000000       15.9990           
    2010 A    503  TIP4 H1   HW0      0.679100        1.0080           
    2011 A    503  TIP4 H2   HW0      0.679100        1.0080           
    2012 A    503  TIP4 BD1  LP0     -1.358200        0.0000           
    2013 A    504  TIP4 O1   OW0      0.000000       15.9990           
    2014 A    504  TIP4 H1   HW0      0.679100        1.0080           
    2015 A    504  TIP4 H2   HW0      0.679100        1.0080           
    2016 A    504  TIP4 BD1  LP0     -1.358200        0.0000           
    2017 A    505  TIP4 O1   OW0      0.000000       15.9990           
    2018 A    505  TIP4 H1   HW0      0.679100        1.0080           
    2019 A    505  TIP4 H2   HW0      0.679100        1.0080           
    2020 A    505  TIP4 BD1  LP0     -1.358200        0.0000           
    2021 A    506  TIP4 O1   OW0      0.000000       15.9990           
    2022 A    506  TIP4 H1   HW0      0.679100        1.0080           
    2023 A    506  TIP4 H2   HW0      0.679100        1.0080           
    2024 A    506  TIP4 BD1  LP0     -1.358200        0.0000           
    2025 A    507  TIP4 O1   OW0      0.000000       15.9990           
    2026 A    507  TIP4 H1   HW0      0.679100        1.0080           
    2027 A    507  TIP4 H2   HW0      0.679100        1.0080           
    2028 A    507  TIP4 BD1  LP0     -1.358200        0.0000           
    2029 A    508  TIP4 O1   OW0      0.000000       15.9990           
    2030 A    508  TIP4 H1   HW0      0.679100        1.0080           
    2031 A    508  TIP4 H2   HW0      0.679100        1.0080           
    2032 A    508  TIP4 BD1  LP0     -1.358200        0.0000           
    2033 A    509  TIP4 O1   OW0      0.000000       15.9990           
    2034 A    509  TIP4 H1   HW0      0.679100        1.0080           
    2035 A    509  TIP4 H2   HW0      0.679100        1.0080           
    2036 A    509  TIP4 BD1  LP0     -1.358200        0.0000           
    2037 A    510  TIP4 O1   OW0      0.000000       15.9990           
    2038 A    510  TIP4 H1   HW0      0.679100        1.0080           
    2039 A    510  TIP4 H2   HW0      0.679100        1.0080           
    2040 A    510  TIP4 BD1  LP0     -1.358200        0.0000           
    2041 A    511  TIP4 O1   OW0      0.000000       15.9990           
    2042 A    511  TIP4 H1   HW0      0.679100        1.0080           
    2043 A    511  TIP4 H2   HW0      0.679100        1.0080           
    2044 A    511  TIP4 BD1  LP0     -1.358200        0.0000           
    2045 A    512  TIP4 O1   OW0      0.000000       15.9990           
    2046 A    512  TIP4 H1   HW0      0.679100        1.0080           
    2047 A    512  TIP4 H2   HW0      0.679100        1.0080           
    2048 A    512  TIP4 BD1  LP0     -1.358200        0.0000           
    2049 A    513  TIP4 O1   OW0      0.000000       15.9990           
    2050 A    513  TIP4 H1   HW0      0.679100        1.0080           
    2051 A    513  TIP4 H2   HW0      0.679100        1.0080           
    2052 A    513  TIP4 BD1  LP0     -1.358200        0.0000           
    2053 A    514  TIP4 O1   OW0      0.000000       15.9990           
    2054 A    514  TIP4 H1   HW0      0.679100        1.0080           
    2055 A    514  TIP4 H2   HW0      0.679100        1.0080           
    2056 A    514  TIP4 BD1  LP0     -1.358200        0.0000           
    2057 A    515  TIP4 O1   OW0      0.000000       15.9990           
    2058 A    515  TIP4 H1   HW0      0.679100        1.0080           
    2059 A    515  TIP4 H2   HW0      0.679100        1.0080           
    2060 A    515  TIP4 BD1  LP0     -1.358200        0.0000           
    2061 A    516  TIP4 O1   OW0      0.000000       15.9990           
    2062 A    516  TIP4 H1   HW0      0.679100        1.0080           
    2063 A    516  TIP4 H2   HW0      0.679100        1.0080           
    2064 A    516  TIP4 BD1  LP0     -1.358200        0.0000           
    2065 A    517  TIP4 O1   OW0      0.000000       15.9990           
    2066 A    517  TIP4 H1   HW0      0.679100        1.0080           
    2067 A    517  TIP4 H2   HW0      0.679100        1.0080           
    2068 A    517  TIP4 BD1  LP0     -1.358200        0.0000           
    2069 A    518  TIP4 O1   OW0      0.000000       15.9990           
    2070 A    518  TIP4 H1   HW0      0.679100        1.0080           
    2071 A    518  TIP4 H2   HW0      0.679100        1.0080           
    2072 A    518  TIP4 BD1  LP0     -1.358200        0.0000           
    2073 A    519  TIP4 O1   OW0      0.000000       15.9990           
    2074 A    519  TIP4 H1   HW0      0.679100        1.0080           
    2075 A    519  TIP4 H2   HW0      0.679100        1.0080           
    2076 A    519  TIP4 BD1  LP0     -1.358200        0.0000           
    2077 A    520  TIP4 O1   OW0      0.000000       15.9990           
    2078 A    520  TIP4 H1   HW0      0.679100        1.0080           
    2079 A    520  TIP4 H2   HW0      0.679100        1.0080           
    2080 A    520  TIP4 BD1  LP0     -1.358200        0.0000           
    2081 A    521  TIP4 O1   OW0      0.000000       15.9990           
    2082 A    521  TIP4 H1   HW0      0.679100        1.0080           
    2083 A    521  TIP4 H2   HW0      0.679100        1.0080           
    2084 A    521  TIP4 BD1  LP0     -1.358200        0.0000           
    2085 A    522  TIP4 O1   OW0      0.000000       15.9990           
    2086 A    522  TIP4 H1   HW0      0.679100        1.0080           
    2087 A    522  TIP4 H2   HW0      0.679100        1.0080           
    2088 A    522  TIP4 BD1  LP0     -1.358200        0.0000           
    2089 A    523  TIP4 O1   OW0      0.000000       15.9990           
    2090 A    523  TIP4 H1   HW0      0.679100        1.0080           
    2091 A    523  TIP4 H2   HW0      0.679100        1.0080           
    2092 A    523  TIP4 BD1  LP0     -1.358200        0.0000           
    2093 A    524  TIP4 O1   OW0      0.000000       15.9990           
    2094 A    524  TIP4 H1   HW0      0.679100        1.0080           
    2095 A    524  TIP4 H2   HW0      0.679100        1.0080           
    2096 A    524  TIP4 BD1  LP0     -1.358200        0.0000           
    2097 A    525  TIP4 O1   OW0      0.000000       15.9990           
    2098 A    525  TIP4 H1   HW0      0.679100        1.0080           
    2099 A    525  TIP4 H2   HW0      0.679100        1.0080           
    2100 A    525  TIP4 BD1  LP0     -1.358200        0.0000           
    2101 A    526  TIP4 O1   OW0      0.000000       15.9990           
    2102 A    526  TIP4 H1   HW0      0.679100        1.0080           
    2103 A    526  TIP4 H2   HW0      0.679100        1.0080           
    2104 A    526  TIP4 BD1  LP0     -1.358200        0.0000           
    2105 A    527  TIP4 O1   OW0      0.000000       15.9990           
    2106 A    527  TIP4 H1   HW0      0.679100        1.0080           
    2107 A    527  TIP4 H2   HW0      0.679100        1.0080           
    2108 A    527  TIP4 BD1  LP0     -1.358200        0.0000           
    2109 A    528  TIP4 O1   OW0      0.000000       15.9990           
    2110 A    528  TIP4 H1   HW0      0.679100        1.0080           
    2111 A    528  TIP4 H2   HW0      0.679100        1.0080           
    2112 A    528  TIP4 BD1  LP0     -1.358200        0.0000           
    2113 A    529  TIP4 O1   OW0      0.000000       15.9990           
    2114 A    529  TIP4 H1   HW0      0.679100        1.0080           
    2115 A    529  TIP4 H2   HW0      0.679100        1.0080           
    2116 A    529  TIP4 BD1  LP0     -1.358200        0.0000           
    2117 A    530  TIP4 O1   OW0      0.000000       15.9990           
    2118 A    530  TIP4 H1   HW0      0.679100        1.0080           
    2119 A    530  TIP4 H2   HW0      0.679100        1.0080           
    2120 A    530  TIP4 BD1  LP0     -1.358200        0.0000           
    2121 A    531  TIP4 O1   OW0      0.000000       15.9990           
    2122 A    531  TIP4 H1   HW0      0.679100        1.0080           
    2123 A    531  TIP4 H2   HW0      0.679100        1.0080           
    2124 A    531  TIP4 BD1  LP0     -1.358200        0.0000           
    2125 A    532  TIP4 O1   OW0      0.000000       15.9990           
    2126 A    532  TIP4 H1   HW0      0.679100        1.0080           
    2127 A    532  TIP4 H2   HW0      0.679100        1.0080           
    2128 A    532  TIP4 BD1  LP0     -1.358200        0.0000           
    2129 A    533  TIP4 O1   OW0      0.000000       15.9990           
    2130 A    533  TIP4 H1   HW0      0.679100        1.0080           
    2131 A    533  TIP4 H2   HW0      0.679100        1.0080           
    2132 A    533  TIP4 BD1  LP0     -1.358200        0.0000           
    2133 A    534  TIP4 O1   OW0      0.000000       15.9990           
    2134 A    534  TIP4 H1   HW0      0.679100        1.0080           
    2135 A    534  TIP4 H2   HW0      0.679100        1.0080           
    2136 A    534  TIP4 BD1  LP0     -1.358200        0.0000           
    2137 A    535  TIP4 O1   OW0      0.000000       15.9990           
    2138 A    535  TIP4 H1   HW0      0.679100        1.0080           
    2139 A    535  TIP4 H2   HW0      0.679100        1.0080           
    2140 A    535  TIP4 BD1  LP0     -1.358200        0.0000           
    2141 A    536  TIP4 O1   OW0      0.000000       15.9990           
    2142 A    536  TIP4 H1   HW0      0.679100        1.0080           
    2143 A    536  TIP4 H2   HW0      0.679100        1.0080           
    2144 A    536  TIP4 BD1  LP0     -1.358200        0.0000           
    2145 A    537  TIP4 O1   OW0      0.000000       15.9990           
    2146 A    537  TIP4 H1   HW0      0.679100        1.0080           
    2147 A    537  TIP4 H2   HW0      0.679100        1.0080           
    2148 A    537  TIP4 BD1  LP0     -1.358200        0.0000           
    2149 A    538  TIP4 O1   OW0      0.000000       15.9990           
    2150 A    538  TIP4 H1   HW0      0.679100        1.0080           
    2151 A    538  TIP4 H2   HW0      0.679100        1.0080           
    2152 A    538  TIP4 BD1  LP0     -1.358200        0.0000           
    2153 A    539  TIP4 O1   OW0      0.000000       15.9990           
    2154 A    539  TIP4 H1   HW0      0.679100        1.0080           
    2155 A    539  TIP4 H2   HW0      0.679100        1.0080           
    2156 A    539  TIP4 BD1  LP0     -1.358200        0.0000           
    2157 A    540  TIP4 O1   OW0      0.000000       15.9990           
    2158 A    540  TIP4 H1   HW0      0.679100        1.0080           
    2159 A    540  TIP4 H2   HW0      0.679100        1.0080           
    2160 A    540  TIP4 BD1  LP0     -1.358200        0.0000           
    2161 A    541  TIP4 O1   OW0      0.000000       15.9990           
    2162 A    541  TIP4 H1   HW0      0.679100        1.0080           
    2163 A    541  TIP4 H2   HW0      0.679100        1.0080           
    2164 A    541  TIP4 BD1  LP0     -1.358200        0.0000           
    2165 A    542  TIP4 O1   OW0      0.000000       15.9990           
    2166 A    542  TIP4 H1   HW0      0.679100        1.0080           
    2167 A    542  TIP4 H2   HW0      0.679100        1.0080           
    2168 A    542  TIP4 BD1  LP0     -1.358200        0.0000           
    2169 A    543  TIP4 O1   OW0      0.000000       15.9990           
    2170 A    543  TIP4 H1   HW0      0.679100        1.0080           
    2171 A    543  TIP4 H2   HW0      0.679100        1.0080           
    2172 A    543  TIP4 BD1  LP0     -1.358200        0.0000           
    2173 A    544  TIP4 O1   OW0      0.000000       15.9990           
    2174 A    544  TIP4 H1   HW0      0.679100        1.0080           
    2175 A    544  TIP4 H2   HW0      0.679100        1.0080           
    2176 A    544  TIP4 BD1  LP0     -1.358200        0.0000           
    2177 A    545  TIP4 O1   OW0      0.000000       15.9990           
    2178 A    545  TIP4 H1   HW0      0.679100        1.0080           
    2179 A    545  TIP4 H2   HW0      0.679100        1.0080           
    2180 A    545  TIP4 BD1  LP0     -1.358200        0.0000           
    2181 A    546  TIP4 O1   OW0      0.000000       15.9990           
    2182 A    546  TIP4 H1   HW0      0.679100        1.0080           
    2183 A    546  TIP4 H2   HW0      0.679100        1.0080           
    2184 A    546  TIP4 BD1  LP0     -1.358200        0.0000           
    2185 A    547  TIP4 O1   OW0      0.000000       15.9990           
    2186 A    547  TIP4 H1   HW0      0.679100        1.0080           
    2187 A    547  TIP4 H2   HW0      0.679100        1.0080           
    2188 A    547  TIP4 BD1  LP0     -1.358200        0.0000           
    2189 A    548  TIP4 O1   OW0      0.000000       15.9990           
    2190 A    548  TIP4 H1   HW0      0.679100        1.0080           
    2191 A    548  TIP4 H2   HW0      0.679100        1.0080           
    2192 A    548  TIP4 BD1  LP0     -1.358200        0.0000           
    2193 A    549  TIP4 O1   OW0      0.000000       15.9990           
    2194 A    549  TIP4 H1   HW0      0.679100        1.0080           
    2195 A    549  TIP4 H2   HW0      0.679100        1.0080           
    2196 A    549  TIP4 BD1  LP0     -1.358200        0.0000           
    2197 A    550  TIP4 O1   OW0      0.000000       15.9990           
    2198 A    550  TIP4 H1   HW0      0.679100        1.0080           
    2199 A    550  TIP4 H2   HW0      0.679100        1.0080           
    2200 A    550  TIP4 BD1  LP0     -1.358200        0.0000           
    2201 A    551  TIP4 O1   OW0      0.000000       15.9990           
    2202 A    551  TIP4 H1   HW0      0.679100        1.0080           
    2203 A    551  TIP4 H2   HW0      0.679100        1.0080           
    2204 A    551  TIP4 BD1  LP0     -1.358200        0.0000           
    2205 A    552  TIP4 O1   OW0      0.000000       15.9990           
    2206 A    552  TIP4 H1   HW0      0.679100        1.0080           
    2207 A    552  TIP4 H2   HW0      0.679100        1.0080           
    2208 A    552  TIP4 BD1  LP0     -1.358200        0.0000           
    2209 A    553  TIP4 O1   OW0      0.000000       15.9990           
    2210 A    553  TIP4 H1   HW0      0.679100        1.0080           
    2211 A    553  TIP4 H2   HW0      0.679100        1.0080           
    2212 A    553  TIP4 BD1  LP0     -1.358200        0.0000           
    2213 A    554  TIP4 O1   OW0      0.000000       15.9990           
    2214 A    554  TIP4 H1   HW0      0.679100        1.0080           
    2215 A    554  TIP4 H2   HW0      0.679100        1.0080           
    2216 A    554  TIP4 BD1  LP0     -1.358200        0.0000           
    2217 A    555  TIP4 O1   OW0      0.000000       15.9990           
    2218 A    555  TIP4 H1   HW0      0.679100        1.0080           
    2219 A    555  TIP4 H2   HW0      0.679100        1.0080           
    2220 A    555  TIP4 BD1  LP0     -1.358200        0.0000           
    2221 A    556  TIP4 O1   OW0      0.000000       15.9990           
    2222 A    556  TIP4 H1   HW0      0.679100        1.0080           
    2223 A    556  TIP4 H2   HW0      0.679100        1.0080           
    2224 A    556  TIP4 BD1  LP0     -1.358200        0.0000           
    2225 A    557  TIP4 O1   OW0      0.000000       15.9990           
    2226 A    557  TIP4 H1   HW0      0.679100        1.0080           
    2227 A    557  TIP4 H2   HW0      0.679100        1.0080           
    2228 A    557  TIP4 BD1  LP0     -1.358200        0.0000           
    2229 A    558  TIP4 O1   OW0      0.000000       15.9990           
    2230 A    558  TIP4 H1   HW0      0.679100        1.0080           
    2231 A    558  TIP4 H2   HW0      0.679100        1.0080           
    2232 A    558  TIP4 BD1  LP0     -1.358200        0.0000           
    2233 A    559  TIP4 O1   OW0      0.000000       15.9990           
    2234 A    559  TIP4 H1   HW0      0.679100        1.0080           
    2235 A    559  TIP4 H2   HW0      0.679100        1.0080           
    2236 A    559  TIP4 BD1  LP0     -1.358200        0.0000           
    2237 A    560  TIP4 O1   OW0      0.000000       15.9990           
    2238 A    560  TIP4 H1   HW0      0.679100        1.0080           
    2239 A    560  TIP4 H2   HW0      0.679100        1.0080           
    2240 A    560  TIP4 BD1  LP0     -1.358200        0.0000           
    2241 A    561  TIP4 O1   OW0      0.000000       15.9990           
    2242 A    561  TIP4 H1   HW0      0.679100        1.0080           
    2243 A    561  TIP4 H2   HW0      0.679100        1.0080           
    2244 A    561  TIP4 BD1  LP0     -1.358200        0.0000           
    2245 A    562  TIP4 O1   OW0      0.000000       15.9990           
    2246 A    562  TIP4 H1   HW0      0.679100        1.0080           
    2247 A    562  TIP4 H2   HW0      0.679100        1.0080           
    2248 A    562  TIP4 BD1  LP0     -1.358200        0.0000           
    2249 A    563  TIP4 O1   OW0      0.000000       15.9990           
    2250 A    563  TIP4 H1   HW0      0.679100        1.0080           
    2251 A    563  TIP4 H2   HW0      0.679100        1.0080           
    2252 A    563  TIP4 BD1  LP0     -1.358200        0.0000           
    2253 A    564  TIP4 O1   OW0      0.000000       15.9990           
    2254 A    564  TIP4 H1   HW0      0.679100        1.0080           
    2255 A    564  TIP4 H2   HW0      0.679100        1.0080           
    2256 A    564  TIP4 BD1  LP0     -1.358200        0.0000           
    2257 A    565  TIP4 O1   OW0      0.000000       15.9990           
    2258 A    565  TIP4 H1   HW0      0.679100        1.0080           
    2259 A    565  TIP4 H2   HW0      0.679100        1.0080           
    2260 A    565  TIP4 BD1  LP0     -1.358200        0.0000           
    2261 A    566  TIP4 O1   OW0      0.000000       15.9990           
    2262 A    566  TIP4 H1   HW0      0.679100        1.0080           
    2263 A    566  TIP4 H2   HW0      0.679100        1.0080           
    2264 A    566  TIP4 BD1  LP0     -1.358200        0.0000           
    2265 A    567  TIP4 O1   OW0      0.000000       15.9990           
    2266 A    567  TIP4 H1   HW0      0.679100        1.0080           
    2267 A    567  TIP4 H2   HW0      0.679100        1.0080           
    2268 A    567  TIP4 BD1  LP0     -1.358200        0.0000           
    2269 A    568  TIP4 O1   OW0      0.000000       15.9990           
    2270 A    568  TIP4 H1   HW0      0.679100        1.0080           
    2271 A    568  TIP4 H2   HW0      0.679100        1.0080           
    2272 A    568  TIP4 BD1  LP0     -1.358200        0.0000           
    2273 A    569  TIP4 O1   OW0      0.000000       15.9990           
    2274 A    569  TIP4 H1   HW0      0.679100        1.0080           
    2275 A    569  TIP4 H2   HW0      0.679100        1.0080           
    2276 A    569  TIP4 BD1  LP0     -1.358200        0.0000           
    2277 A    570  TIP4 O1   OW0      0.000000       15.9990           
    2278 A    570  TIP4 H1   HW0      0.679100        1.0080           
    2279 A    570  TIP4 H2   HW0      0.679100        1.0080           
    2280 A    570  TIP4 BD1  LP0     -1.358200        0.0000           
    2281 A    571  TIP4 O1   OW0      0.000000       15.9990           
    2282 A    571  TIP4 H1   HW0      0.679100        1.0080           
    2283 A    571  TIP4 H2   HW0      0.679100        1.0080           
    2284 A    571  TIP4 BD1  LP0     -1.358200        0.0000           
    2285 A    572  TIP4 O1   OW0      0.000000       15.9990           
    2286 A    572  TIP4 H1   HW0      0.679100        1.0080           
    2287 A    572  TIP4 H2   HW0      0.679100        1.0080           
    2288 A    572  TIP4 BD1  LP0     -1.358200        0.0000           
    2289 A    573  TIP4 O1   OW0      0.000000       15.9990           
    2290 A    573  TIP4 H1   HW0      0.679100        1.0080           
    2291 A    573  TIP4 H2   HW0      0.679100        1.0080           
    2292 A    573  TIP4 BD1  LP0     -1.358200        0.0000           
    2293 A    574  TIP4 O1   OW0      0.000000       15.9990           
    2294 A    574  TIP4 H1   HW0      0.679100        1.0080           
    2295 A    574  TIP4 H2   HW0      0.679100        1.0080           
    2296 A    574  TIP4 BD1  LP0     -1.358200        0.0000           
    2297 A    575  TIP4 O1   OW0      0.000000       15.9990           
    2298 A    575  TIP4 H1   HW0      0.679100        1.0080           
    2299 A    575  TIP4 H2   HW0      0.679100        1.0080           
    2300 A    575  TIP4 BD1  LP0     -1.358200        0.0000           
    2301 A    576  TIP4 O1   OW0      0.000000       15.9990           
    2302 A    576  TIP4 H1   HW0      0.679100        1.0080           
    2303 A    576  TIP4 H2   HW0      0.679100        1.0080           
    2304 A    576  TIP4 BD1  LP0     -1.358200        0.0000           
    2305 A    577  TIP4 O1   OW0      0.000000       15.9990           
    2306 A    577  TIP4 H1   HW0      0.679100        1.0080           
    2307 A    577  TIP4 H2   HW0      0.679100        1.0080           
    2308 A    577  TIP4 BD1  LP0     -1.358200        0.0000           
    2309 A    578  TIP4 O1   OW0      0.000000       15.9990           
    2310 A    578  TIP4 H1   HW0      0.679100        1.0080           
    2311 A    578  TIP4 H2   HW0      0.679100        1.0080           
    2312 A    578  TIP4 BD1  LP0     -1.358200        0.0000           
    2313 A    579  TIP4 O1   OW0      0.000000       15.9990           
    2314 A    579  TIP4 H1   HW0      0.679100        1.0080           
    2315 A    579  TIP4 H2   HW0      0.679100        1.0080           
    2316 A    579  TIP4 BD1  LP0     -1.358200        0.0000           
    2317 A    580  TIP4 O1   OW0      0.000000       15.9990           
    2318 A    580  TIP4 H1   HW0      0.679100        1.0080           
    2319 A    580  TIP4 H2   HW0      0.679100        1.0080           
    2320 A    580  TIP4 BD1  LP0     -1.358200        0.0000           
    2321 A    581  TIP4 O1   OW0      0.000000       15.9990           
    2322 A    581  TIP4 H1   HW0      0.679100        1.0080           
    2323 A    581  TIP4 H2   HW0      0.679100        1.0080           
    2324 A    581  TIP4 BD1  LP0     -1.358200        0.0000           
    2325 A    582  TIP4 O1   OW0      0.000000       15.9990           
    2326 A    582  TIP4 H1   HW0      0.679100        1.0080           
    2327 A    582  TIP4 H2   HW0      0.679100        1.0080           
    2328 A    582  TIP4 BD1  LP0     -1.358200        0.0000           
    2329 A    583  TIP4 O1   OW0      0.000000       15.9990           
    2330 A    583  TIP4 H1   HW0      0.679100        1.0080           
    2331 A    583  TIP4 H2   HW0      0.679100        1.0080           
    2332 A    583  TIP4 BD1  LP0     -1.358200        0.0000           
    2333 A    584  TIP4 O1   OW0      0.000000       15.9990           
    2334 A    584  TIP4 H1   HW0      0.679100        1.0080           
    2335 A    584  TIP4 H2   HW0      0.679100        1.0080           
    2336 A    584  TIP4 BD1  LP0     -1.358200        0.0000           
    2337 A    585  TIP4 O1   OW0      0.000000       15.9990           
    2338 A    585  TIP4 H1   HW0      0.679100        1.0080           
    2339 A    585  TIP4 H2   HW0      0.679100        1.0080           
    2340 A    585  TIP4 BD1  LP0     -1.358200        0.0000           
    2341 A    586  TIP4 O1   OW0      0.000000       15.9990           
    2342 A    586  TIP4 H1   HW0      0.679100        1.0080           
    2343 A    586  TIP4 H2   HW0      0.679100        1.0080           
    2344 A    586  TIP4 BD1  LP0     -1.358200        0.0000           
    2345 A    587  TIP4 O1   OW0      0.000000       15.9990           
    2346 A    587  TIP4 H1   HW0      0.679100        1.0080           
    2347 A    587  TIP4 H2   HW0      0.679100        1.0080           
    2348 A    587  TIP4 BD1  LP0     -1.358200        0.0000           
    2349 A    588  TIP4 O1   OW0      0.000000       15.9990           
    2350 A    588  TIP4 H1   HW0      0.679100        1.0080           
    2351 A    588  TIP4 H2   HW0      0.679100        1.0080           
    2352 A    588  TIP4 BD1  LP0     -1.358200        0.0000           
    2353 A    589  TIP4 O1   OW0      0.000000       15.9990           
    2354 A    589  TIP4 H1   HW0      0.679100        1.0080           
    2355 A    589  TIP4 H2   HW0      0.679100        1.0080           
    2356 A    589  TIP4 BD1  LP0     -1.358200        0.0000           
    2357 A    590  TIP4 O1   OW0      0.000000       15.9990           
    2358 A    590  TIP4 H1   HW0      0.679100        1.0080           
    2359 A    590  TIP4 H2   HW0      0.679100        1.0080           
    2360 A    590  TIP4 BD1  LP0     -1.358200        0.0000           
    2361 A    591  TIP4 O1   OW0      0.000000       15.9990           
    2362 A    591  TIP4 H1   HW0      0.679100        1.0080           
    2363 A    591  TIP4 H2   HW0      0.679100        1.0080           
    2364 A    591  TIP4 BD1  LP0     -1.358200        0.0000           
    2365 A    592  TIP4 O1   OW0      0.000000       15.9990           
    2366 A    592  TIP4 H1   HW0      0.679100        1.0080           
    2367 A    592  TIP4 H2   HW0      0.679100        1.0080           
    2368 A    592  TIP4 BD1  LP0     -1.358200        0.0000           
    2369 A    593  TIP4 O1   OW0      0.000000       15.9990           
    2370 A    593  TIP4 H1   HW0      0.679100        1.0080           
    2371 A    593  TIP4 H2   HW0      0.679100        1.0080           
    2372 A    593  TIP4 BD1  LP0     -1.358200        0.0000           
    2373 A    594  TIP4 O1   OW0      0.000000       15.9990           
    2374 A    594  TIP4 H1   HW0      0.679100        1.0080           
    2375 A    594  TIP4 H2   HW0      0.679100        1.0080           
    2376 A    594  TIP4 BD1  LP0     -1.358200        0.0000           
    2377 A    595  TIP4 O1   OW0      0.000000       15.9990           
    2378 A    595  TIP4 H1   HW0      0.679100        1.0080           
    2379 A    595  TIP4 H2   HW0      0.679100        1.0080           
    2380 A    595  TIP4 BD1  LP0     -1.358200        0.0000           
    2381 A    596  TIP4 O1   OW0      0.000000       15.9990           
    2382 A    596  TIP4 H1   HW0      0.679100        1.0080           
    2383 A    596  TIP4 H2   HW0      0.679100        1.0080           
    2384 A    596  TIP4 BD1  LP0     -1.358200        0.0000           
    2385 A    597  TIP4 O1   OW0      0.000000       15.9990           
    2386 A    597  TIP4 H1   HW0      0.679100        1.0080           
    2387 A    597  TIP4 H2   HW0      0.679100        1.0080           
    2388 A    597  TIP4 BD1  LP0     -1.358200        0.0000           
    2389 A    598  TIP4 O1   OW0      0.000000       15.9990           
    2390 A    598  TIP4 H1   HW0      0.679100        1.0080           
    2391 A    598  TIP4 H2   HW0      0.679100        1.0080           
    2392 A    598  TIP4 BD1  LP0     -1.358200        0.0000           
    2393 A    599  TIP4 O1   OW0      0.000000       15.9990           
    2394 A    599  TIP4 H1   HW0      0.679100        1.0080           
    2395 A    599  TIP4 H2   HW0      0.679100        1.0080           
    2396 A    599  TIP4 BD1  LP0     -1.358200        0.0000           
    2397 A    600  TIP4 O1   OW0      0.000000       15.9990           
    2398 A    600  TIP4 H1   HW0      0.679100        1.0080           
    2399 A    600  TIP4 H2   HW0      0.679100        1.0080           
    2400 A    600  TIP4 BD1  LP0     -1.358200        0.0000           
    2401 A    601  TIP4 O1   OW0      0.000000       15.9990           
    2402 A    601  TIP4 H1   HW0      0.679100        1.0080           
    2403 A    601  TIP4 H2   HW0      0.679100        1.0080           
    2404 A    601  TIP4 BD1  LP0     -1.358200        0.0000           
    2405 A    602  TIP4 O1   OW0      0.000000       15.9990           
    2406 A    602  TIP4 H1   HW0      0.679100        1.0080           
    2407 A    602  TIP4 H2   HW0      0.679100        1.0080           
    2408 A    602  TIP4 BD1  LP0     -1.358200        0.0000           
    2409 A    603  TIP4 O1   OW0      0.000000       15.9990           
    2410 A    603  TIP4 H1   HW0      0.679100        1.0080           
    2411 A    603  TIP4 H2   HW0      0.679100        1.0080           
    2412 A    603  TIP4 BD1  LP0     -1.358200        0.0000           
    2413 A    604  TIP4 O1   OW0      0.000000       15.9990           
    2414 A    604  TIP4 H1   HW0      0.679100        1.0080           
    2415 A    604  TIP4 H2   HW0      0.679100        1.0080           
    2416 A    604  TIP4 BD1  LP0     -1.358200        0.0000           
    2417 A    605  TIP4 O1   OW0      0.000000       15.9990           
    2418 A    605  TIP4 H1   HW0      0.679100        1.0080           
    2419 A    605  TIP4 H2   HW0      0.679100        1.0080           
    2420 A    605  TIP4 BD1  LP0     -1.358200        0.0000           
    2421 A    606  TIP4 O1   OW0      0.000000       15.9990           
    2422 A    606  TIP4 H1   HW0      0.679100        1.0080           
    2423 A    606  TIP4 H2   HW0      0.679100        1.0080           
    2424 A    606  TIP4 BD1  LP0     -1.358200        0.0000           
    2425 A    607  TIP4 O1   OW0      0.000000       15.9990           
    2426 A    607  TIP4 H1   HW0      0.679100        1.0080           
    2427 A    607  TIP4 H2   HW0      0.679100        1.0080           
    2428 A    607  TIP4 BD1  LP0     -1.358200        0.0000           
    2429 A    608  TIP4 O1   OW0      0.000000       15.9990           
    2430 A    608  TIP4 H1   HW0      0.679100        1.0080           
    2431 A    608  TIP4 H2   HW0      0.679100        1.0080           
    2432 A    608  TIP4 BD1  LP0     -1.358200        0.0000           
    2433 A    609  TIP4 O1   OW0      0.000000       15.9990           
    2434 A    609  TIP4 H1   HW0      0.679100        1.0080           
    2435 A    609  TIP4 H2   HW0      0.679100        1.0080           
    2436 A    609  TIP4 BD1  LP0     -1.358200        0.0000           
    2437 A    610  TIP4 O1   OW0      0.000000       15.9990           
    2438 A    610  TIP4 H1   HW0      0.679100        1.0080           
    2439 A    610  TIP4 H2   HW0      0.679100        1.0080           
    2440 A    610  TIP4 BD1  LP0     -1.358200        0.0000           
    2441 A    611  TIP4 O1   OW0      0.000000       15.9990           
    2442 A    611  TIP4 H1   HW0      0.679100        1.0080           
    2443 A    611  TIP4 H2   HW0      0.679100        1.0080           
    2444 A    611  TIP4 BD1  LP0     -1.358200        0.0000           
    2445 A    612  TIP4 O1   OW0      0.000000       15.9990           
    2446 A    612  TIP4 H1   HW0      0.679100        1.0080           
    2447 A    612  TIP4 H2   HW0      0.679100        1.0080           
    2448 A    612  TIP4 BD1  LP0     -1.358200        0.0000           
    2449 A    613  TIP4 O1   OW0      0.000000       15.9990           
    2450 A    613  TIP4 H1   HW0      0.679100        1.0080           
    2451 A    613  TIP4 H2   HW0      0.679100        1.0080           
    2452 A    613  TIP4 BD1  LP0     -1.358200        0.0000           
    2453 A    614  TIP4 O1   OW0      0.000000       15.9990           
    2454 A    614  TIP4 H1   HW0      0.679100        1.0080           
    2455 A    614  TIP4 H2   HW0      0.679100        1.0080           
    2456 A    614  TIP4 BD1  LP0     -1.358200        0.0000           
    2457 A    615  TIP4 O1   OW0      0.000000       15.9990           
    2458 A    615  TIP4 H1   HW0      0.679100        1.0080           
    2459 A    615  TIP4 H2   HW0      0.679100        1.0080           
    2460 A    615  TIP4 BD1  LP0     -1.358200        0.0000           
    2461 A    616  TIP4 O1   OW0      0.000000       15.9990           
    2462 A    616  TIP4 H1   HW0      0.679100        1.0080           
    2463 A    616  TIP4 H2   HW0      0.679100        1.0080           
    2464 A    616  TIP4 BD1  LP0     -1.358200        0.0000           
    2465 A    617  TIP4 O1   OW0      0.000000       15.9990           
    2466 A    617  TIP4 H1   HW0      0.679100        1.0080           
    2467 A    617  TIP4 H2   HW0      0.679100        1.0080           
    2468 A    617  TIP4 BD1  LP0     -1.358200        0.0000           
    2469 A    618  TIP4 O1   OW0      0.000000       15.9990           
    2470 A    618  TIP4 H1   HW0      0.679100        1.0080           
    2471 A    618  TIP4 H2   HW0      0.679100        1.0080           
    2472 A    618  TIP4 BD1  LP0     -1.358200        0.0000           
    2473 A    619  TIP4 O1   OW0      0.000000       15.9990           
    2474 A    619  TIP4 H1   HW0      0.679100        1.0080           
    2475 A    619  TIP4 H2   HW0      0.679100        1.0080           
    2476 A    619  TIP4 BD1  LP0     -1.358200        0.0000           
    2477 A    620  TIP4 O1   OW0      0.000000       15.9990           
    2478 A    620  TIP4 H1   HW0      0.679100        1.0080           
    2479 A    620  TIP4 H2   HW0      0.679100        1.0080           
    2480 A    620  TIP4 BD1  LP0     -1.358200        0.0000           
    2481 A    621  TIP4 O1   OW0      0.000000       15.9990           
    2482 A    621  TIP4 H1   HW0      0.679100        1.0080           
    2483 A    621  TIP4 H2   HW0      0.679100        1.0080           
    2484 A    621  TIP4 BD1  LP0     -1.358200        0.0000           
    2485 A    622  TIP4 O1   OW0      0.000000       15.9990           
    2486 A    622  TIP4 H1   HW0      0.679100        1.0080           
    2487 A    622  TIP4 H2   HW0      0.679100        1.0080           
    2488 A    622  TIP4 BD1  LP0     -1.358200        0.0000           
    2489 A    623  TIP4 O1   OW0      0.000000       15.9990           
    2490 A    623  TIP4 H1   HW0      0.679100        1.0080           
    2491 A    623  TIP4 H2   HW0      0.679100        1.0080           
    2492 A    623  TIP4 BD1  LP0     -1.358200        0.0000           
    2493 A    624  TIP4 O1   OW0      0.000000       15.9990           
    2494 A    624  TIP4 H1   HW0      0.679100        1.0080           
    2495 A    624  TIP4 H2   HW0      0.679100        1.0080           
    2496 A    624  TIP4 BD1  LP0     -1.358200        0.0000           
    2497 A    625  TIP4 O1   OW0      0.000000       15.9990           
    2498 A    625  TIP4 H1   HW0      0.679100        1.0080           
    2499 A    625  TIP4 H2   HW0      0.679100        1.0080           
    2500 A    625  TIP4 BD1  LP0     -1.358200        0.0000           
    2501 A    626  TIP4 O1   OW0      0.000000       15.9990           
    2502 A    626  TIP4 H1   HW0      0.679100        1.0080           
    2503 A    626  TIP4 H2   HW0      0.679100        1.0080           
    2504 A    626  TIP4 BD1  LP0     -1.358200        0.0000           
    2505 A    627  TIP4 O1   OW0      0.000000       15.9990           
    2506 A    627  TIP4 H1   HW0      0.679100        1.0080           
    2507 A    627  TIP4 H2   HW0      0.679100        1.0080           
    2508 A    627  TIP4 BD1  LP0     -1.358200        0.0000           
    2509 A    628  TIP4 O1   OW0      0.000000       15.9990           
    2510 A    628  TIP4 H1   HW0      0.679100        1.0080           
    2511 A    628  TIP4 H2   HW0      0.679100        1.0080           
    2512 A    628  TIP4 BD1  LP0     -1.358200        0.0000           
    2513 A    629  TIP4 O1   OW0      0.000000       15.9990           
    2514 A    629  TIP4 H1   HW0      0.679100        1.0080           
    2515 A    629  TIP4 H2   HW0      0.679100        1.0080           
    2516 A    629  TIP4 BD1  LP0     -1.358200        0.0000           
    2517 A    630  TIP4 O1   OW0      0.000000       15.9990           
    2518 A    630  TIP4 H1   HW0      0.679100        1.0080           
    2519 A    630  TIP4 H2   HW0      0.679100        1.0080           
    2520 A    630  TIP4 BD1  LP0     -1.358200        0.0000           
    2521 A    631  TIP4 O1   OW0      0.000000       15.9990           
    2522 A    631  TIP4 H1   HW0      0.679100        1.0080           
    2523 A    631  TIP4 H2   HW0      0.679100        1.0080           
    2524 A    631  TIP4 BD1  LP0     -1.358200        0.0000           
    2525 A    632  TIP4 O1   OW0      0.000000       15.9990           
    2526 A    632  TIP4 H1   HW0      0.679100        1.0080           
    2527 A    632  TIP4 H2   HW0      0.679100        1.0080           
    2528 A    632  TIP4 BD1  LP0     -1.358200        0.0000           
    2529 A    633  TIP4 O1   OW0      0.000000       15.9990           
    2530 A    633  TIP4 H1   HW0      0.679100        1.0080           
    2531 A    633  TIP4 H2   HW0      0.679100        1.0080           
    2532 A    633  TIP4 BD1  LP0     -1.358200        0.0000           
    2533 A    634  TIP4 O1   OW0      0.000000       15.9990           
    2534 A    634  TIP4 H1   HW0      0.679100        1.0080           
    2535 A    634  TIP4 H2   HW0      0.679100        1.0080           
    2536 A    634  TIP4 BD1  LP0     -1.358200        0.0000           
    2537 A    635  TIP4 O1   OW0      0.000000       15.9990           
    2538 A    635  TIP4 H1   HW0      0.679100        1.0080           
    2539 A    635  TIP4 H2   HW0      0.679100        1.0080           
    2540 A    635  TIP4 BD1  LP0     -1.358200        0.0000           
    2541 A    636  TIP4 O1   OW0      0.000000       15.9990           
    2542 A    636  TIP4 H1   HW0      0.679100        1.0080           
    2543 A    636  TIP4 H2   HW0      0.679100        1.0080           
    2544 A    636  TIP4 BD1  LP0     -1.358200        0.0000           
    2545 A    637  TIP4 O1   OW0      0.000000       15.9990           
    2546 A    637  TIP4 H1   HW0      0.679100        1.0080           
    2547 A    637  TIP4 H2   HW0      0.679100        1.0080           
    2548 A    637  TIP4 BD1  LP0     -1.358200        0.0000           
    2549 A    638  TIP4 O1   OW0      0.000000       15.9990           
    2550 A    638  TIP4 H1   HW0      0.679100        1.0080           
    2551 A    638  TIP4 H2   HW0      0.679100        1.0080           
    2552 A    638  TIP4 BD1  LP0     -1.358200        0.0000           
    2553 A    639  TIP4 O1   OW0      0.000000       15.9990           
    2554 A    639  TIP4 H1   HW0      0.679100        1.0080           
    2555 A    639  TIP4 H2   HW0      0.679100        1.0080           
    2556 A    639  TIP4 BD1  LP0     -1.358200        0.0000           
    2557 A    640  TIP4 O1   OW0      0.000000       15.9990           
    2558 A    640  TIP4 H1   HW0      0.679100        1.0080           
    2559 A    640  TIP4 H2   HW0      0.679100        1.0080           
    2560 A    640  TIP4 BD1  LP0     -1.358200        0.0000           
    2561 A    641  TIP4 O1   OW0      0.000000       15.9990           
    2562 A    641  TIP4 H1   HW0      0.679100        1.0080           
    2563 A    641  TIP4 H2   HW0      0.679100        1.0080           
    2564 A    641  TIP4 BD1  LP0     -1.358200        0.0000           
    2565 A    642  TIP4 O1   OW0      0.000000       15.9990           
    2566 A    642  TIP4 H1   HW0      0.679100        1.0080           
    2567 A    642  TIP4 H2   HW0      0.679100        1.0080           
    2568 A    642  TIP4 BD1  LP0     -1.358200        0.0000           
    2569 A    643  TIP4 O1   OW0      0.000000       15.9990           
    2570 A    643  TIP4 H1   HW0      0.679100        1.0080           
    2571 A    643  TIP4 H2   HW0      0.679100        1.0080           
    2572 A    643  TIP4 BD1  LP0     -1.358200        0.0000           
    2573 A    644  TIP4 O1   OW0      0.000000       15.9990           
    2574 A    644  TIP4 H1   HW0      0.679100        1.0080           
    2575 A    644  TIP4 H2   HW0      0.679100        1.0080           
    2576 A    644  TIP4 BD1  LP0     -1.358200        0.0000           
    2577 A    645  TIP4 O1   OW0      0.000000       15.9990           
    2578 A    645  TIP4 H1   HW0      0.679100        1.0080           
    2579 A    645  TIP4 H2   HW0      0.679100        1.0080           
    2580 A    645  TIP4 BD1  LP0     -1.358200        0.0000           
    2581 A    646  TIP4 O1   OW0      0.000000       15.9990           
    2582 A    646  TIP4 H1   HW0      0.679100        1.0080           
    2583 A    646  TIP4 H2   HW0      0.679100        1.0080           
    2584 A    646  TIP4 BD1  LP0     -1.358200        0.0000           
    2585 A    647  TIP4 O1   OW0      0.000000       15.9990           
    2586 A    647  TIP4 H1   HW0      0.679100        1.0080           
    2587 A    647  TIP4 H2   HW0      0.679100        1.0080           
    2588 A    647  TIP4 BD1  LP0     -1.358200        0.0000           
    2589 A    648  TIP4 O1   OW0      0.000000       15.9990           
    2590 A    648  TIP4 H1   HW0      0.679100        1.0080           
    2591 A    648  TIP4 H2   HW0      0.679100        1.0080           
    2592 A    648  TIP4 BD1  LP0     -1.358200        0.0000           
    2593 A    649  TIP4 O1   OW0      0.000000       15.9990           
    2594 A    649  TIP4 H1   HW0      0.679100        1.0080           
    2595 A    649  TIP4 H2   HW0      0.679100        1.0080           
    2596 A    649  TIP4 BD1  LP0     -1.358200        0.0000           
    2597 A    650  TIP4 O1   OW0      0.000000       15.9990           
    2598 A    650  TIP4 H1   HW0      0.679100        1.0080           
    2599 A    650  TIP4 H2   HW0      0.679100        1.0080           
    2600 A    650  TIP4 BD1  LP0     -1.358200        0.0000           
    2601 A    651  TIP4 O1   OW0      0.000000       15.9990           
    2602 A    651  TIP4 H1   HW0      0.679100        1.0080           
    2603 A    651  TIP4 H2   HW0      0.679100        1.0080           
    2604 A    651  TIP4 BD1  LP0     -1.358200        0.0000           
    2605 A    652  TIP4 O1   OW0      0.000000       15.9990           
    2606 A    652  TIP4 H1   HW0      0.679100        1.0080           
    2607 A    652  TIP4 H2   HW0      0.679100        1.0080           
    2608 A    652  TIP4 BD1  LP0     -1.358200        0.0000           
    2609 A    653  TIP4 O1   OW0      0.000000       15.9990           
    2610 A    653  TIP4 H1   HW0      0.679100        1.0080           
    2611 A    653  TIP4 H2   HW0      0.679100        1.0080           
    2612 A    653  TIP4 BD1  LP0     -1.358200        0.0000           
    2613 A    654  TIP4 O1   OW0      0.000000       15.9990           
    2614 A    654  TIP4 H1   HW0      0.679100        1.0080           
    2615 A    654  TIP4 H2   HW0      0.679100        1.0080           
    2616 A    654  TIP4 BD1  LP0     -1.358200        0.0000           
    2617 A    655  TIP4 O1   OW0      0.000000       15.9990           
    2618 A    655  TIP4 H1   HW0      0.679100        1.0080           
    2619 A    655  TIP4 H2   HW0      0.679100        1.0080           
    2620 A    655  TIP4 BD1  LP0     -1.358200        0.0000           
    2621 A    656  TIP4 O1   OW0      0.000000       15.9990           
    2622 A    656  TIP4 H1   HW0      0.679100        1.0080           
    2623 A    656  TIP4 H2   HW0      0.679100        1.0080           
    2624 A    656  TIP4 BD1  LP0     -1.358200        0.0000           
    2625 A    657  TIP4 O1   OW0      0.000000       15.9990           
    2626 A    657  TIP4 H1   HW0      0.679100        1.0080           
    2627 A    657  TIP4 H2   HW0      0.679100        1.0080           
    2628 A    657  TIP4 BD1  LP0     -1.358200        0.0000           
    2629 A    658  TIP4 O1   OW0      0.000000       15.9990           
    2630 A    658  TIP4 H1   HW0      0.679100        1.0080           
    2631 A    658  TIP4 H2   HW0      0.679100        1.0080           
    2632 A    658  TIP4 BD1  LP0     -1.358200        0.0000           
    2633 A    659  TIP4 O1   OW0      0.000000       15.9990           
    2634 A    659  TIP4 H1   HW0      0.679100        1.0080           
    2635 A    659  TIP4 H2   HW0      0.679100        1.0080           
    2636 A    659  TIP4 BD1  LP0     -1.358200        0.0000           
    2637 A    660  TIP4 O1   OW0      0.000000       15.9990           
    2638 A    660  TIP4 H1   HW0      0.679100        1.0080           
    2639 A    660  TIP4 H2   HW0      0.679100        1.0080           
    2640 A    660  TIP4 BD1  LP0     -1.358200        0.0000           
    2641 A    661  TIP4 O1   OW0      0.000000       15.9990           
    2642 A    661  TIP4 H1   HW0      0.679100        1.0080           
    2643 A    661  TIP4 H2   HW0      0.679100        1.0080           
    2644 A    661  TIP4 BD1  LP0     -1.358200        0.0000           
    2645 A    662  TIP4 O1   OW0      0.000000       15.9990           
    2646 A    662  TIP4 H1   HW0      0.679100        1.0080           
    2647 A    662  TIP4 H2   HW0      0.679100        1.0080           
    2648 A    662  TIP4 BD1  LP0     -1.358200        0.0000           
    2649 A    663  TIP4 O1   OW0      0.000000       15.9990           
    2650 A    663  TIP4 H1   HW0      0.679100        1.0080           
    2651 A    663  TIP4 H2   HW0      0.679100        1.0080           
    2652 A    663  TIP4 BD1  LP0     -1.358200        0.0000           
    2653 A    664  TIP4 O1   OW0      0.000000       15.9990           
    2654 A    664  TIP4 H1   HW0      0.679100        1.0080           
    2655 A    664  TIP4 H2   HW0      0.679100        1.0080           
    2656 A    664  TIP4 BD1  LP0     -1.358200        0.0000           
    2657 A    665  TIP4 O1   OW0      0.000000       15.9990           
    2658 A    665  TIP4 H1   HW0      0.679100        1.0080           
    2659 A    665  TIP4 H2   HW0      0.679100        1.0080           
    2660 A    665  TIP4 BD1  LP0     -1.358200        0.0000           
    2661 A    666  TIP4 O1   OW0      0.000000       15.9990           
    2662 A    666  TIP4 H1   HW0      0.679100        1.0080           
    2663 A    666  TIP4 H2   HW0      0.679100        1.0080           
    2664 A    666  TIP4 BD1  LP0     -1.358200        0.0000           
    2665 A    667  TIP4 O1   OW0      0.000000       15.9990           
    2666 A    667  TIP4 H1   HW0      0.679100        1.0080           
    2667 A    667  TIP4 H2   HW0      0.679100        1.0080           
    2668 A    667  TIP4 BD1  LP0     -1.358200        0.0000           
    2669 A    668  TIP4 O1   OW0      0.000000       15.9990           
    2670 A    668  TIP4 H1   HW0      0.679100        1.0080           
    2671 A    668  TIP4 H2   HW0      0.679100        1.0080           
    2672 A    668  TIP4 BD1  LP0     -1.358200        0.0000           
    2673 A    669  TIP4 O1   OW0      0.000000       15.9990           
    2674 A    669  TIP4 H1   HW0      0.679100        1.0080           
    2675 A    669  TIP4 H2   HW0      0.679100        1.0080           
    2676 A    669  TIP4 BD1  LP0     -1.358200        0.0000           
    2677 A    670  TIP4 O1   OW0      0.000000       15.9990           
    2678 A    670  TIP4 H1   HW0      0.679100        1.0080           
    2679 A    670  TIP4 H2   HW0      0.679100        1.0080           
    2680 A    670  TIP4 BD1  LP0     -1.358200        0.0000           
    2681 A    671  TIP4 O1   OW0      0.000000       15.9990           
    2682 A    671  TIP4 H1   HW0      0.679100        1.0080           
    2683 A    671  TIP4 H2   HW0      0.679100        1.0080           
    2684 A    671  TIP4 BD1  LP0     -1.358200        0.0000           
    2685 A    672  TIP4 O1   OW0      0.000000       15.9990           
    2686 A    672  TIP4 H1   HW0      0.679100        1.0080           
    2687 A    672  TIP4 H2   HW0      0.679100        1.0080           
    2688 A    672  TIP4 BD1  LP0     -1.358200        0.0000           
    2689 A    673  TIP4 O1   OW0      0.000000       15.9990           
    2690 A    673  TIP4 H1   HW0      0.679100        1.0080           
    2691 A    673  TIP4 H2   HW0      0.679100        1.0080           
    2692 A    673  TIP4 BD1  LP0     -1.358200        0.0000           
    2693 A    674  TIP4 O1   OW0      0.000000       15.9990           
    2694 A    674  TIP4 H1   HW0      0.679100        1.0080           
    2695 A    674  TIP4 H2   HW0      0.679100        1.0080           
    2696 A    674  TIP4 BD1  LP0     -1.358200        0.0000           
    2697 A    675  TIP4 O1   OW0      0.000000       15.9990           
    2698 A    675  TIP4 H1   HW0      0.679100        1.0080           
    2699 A    675  TIP4 H2   HW0      0.679100        1.0080           
    2700 A    675  TIP4 BD1  LP0     -1.358200        0.0000           
    2701 A    676  TIP4 O1   OW0      0.000000       15.9990           
    2702 A    676  TIP4 H1   HW0      0.679100        1.0080           
    2703 A    676  TIP4 H2   HW0      0.679100        1.0080           
    2704 A    676  TIP4 BD1  LP0     -1.358200        0.0000           
    2705 A    677  TIP4 O1   OW0      0.000000       15.9990           
    2706 A    677  TIP4 H1   HW0      0.679100        1.0080           
    2707 A    677  TIP4 H2   HW0      0.679100        1.0080           
    2708 A    677  TIP4 BD1  LP0     -1.358200        0.0000           
    2709 A    678  TIP4 O1   OW0      0.000000       15.9990           
    2710 A    678  TIP4 H1   HW0      0.679100        1.0080           
    2711 A    678  TIP4 H2   HW0      0.679100        1.0080           
    2712 A    678  TIP4 BD1  LP0     -1.358200        0.0000           
    2713 A    679  TIP4 O1   OW0      0.000000       15.9990           
    2714 A    679  TIP4 H1   HW0      0.679100        1.0080           
    2715 A    679  TIP4 H2   HW0      0.679100        1.0080           
    2716 A    679  TIP4 BD1  LP0     -1.358200        0.0000           
    2717 A    680  TIP4 O1   OW0      0.000000       15.9990           
    2718 A    680  TIP4 H1   HW0      0.679100        1.0080           
    2719 A    680  TIP4 H2   HW0      0.679100        1.0080           
    2720 A    680  TIP4 BD1  LP0     -1.358200        0.0000           
    2721 A    681  TIP4 O1   OW0      0.000000       15.9990           
    2722 A    681  TIP4 H1   HW0      0.679100        1.0080           
    2723 A    681  TIP4 H2   HW0      0.679100        1.0080           
    2724 A    681  TIP4 BD1  LP0     -1.358200        0.0000           
    2725 A    682  TIP4 O1   OW0      0.000000       15.9990           
    2726 A    682  TIP4 H1   HW0      0.679100        1.0080           
    2727 A    682  TIP4 H2   HW0      0.679100        1.0080           
    2728 A    682  TIP4 BD1  LP0     -1.358200        0.0000           
    2729 A    683  TIP4 O1   OW0      0.000000       15.9990           
    2730 A    683  TIP4 H1   HW0      0.679100        1.0080           
    2731 A    683  TIP4 H2   HW0      0.679100        1.0080           
    2732 A    683  TIP4 BD1  LP0     -1.358200        0.0000           
    2733 A    684  TIP4 O1   OW0      0.000000       15.9990           
    2734 A    684  TIP4 H1   HW0      0.679100        1.0080           
    2735 A    684  TIP4 H2   HW0      0.679100        1.0080           
    2736 A    684  TIP4 BD1  LP0     -1.358200        0.0000           
    2737 A    685  TIP4 O1   OW0      0.000000       15.9990           
    2738 A    685  TIP4 H1   HW0      0.679100        1.0080           
    2739 A    685  TIP4 H2   HW0      0.679100        1.0080           
    2740 A    685  TIP4 BD1  LP0     -1.358200        0.0000           
    2741 A    686  TIP4 O1   OW0      0.000000       15.9990           
    2742 A    686  TIP4 H1   HW0      0.679100        1.0080           
    2743 A    686  TIP4 H2   HW0      0.679100        1.0080           
    2744 A    686  TIP4 BD1  LP0     -1.358200        0.0000           
    2745 A    687  TIP4 O1   OW0      0.000000       15.9990           
    2746 A    687  TIP4 H1   HW0      0.679100        1.0080           
    2747 A    687  TIP4 H2   HW0      0.679100        1.0080           
    2748 A    687  TIP4 BD1  LP0     -1.358200        0.0000           
    2749 A    688  TIP4 O1   OW0      0.000000       15.9990           
    2750 A    688  TIP4 H1   HW0      0.679100        1.0080           
    2751 A    688  TIP4 H2   HW0      0.679100        1.0080           
    2752 A    688  TIP4 BD1  LP0     -1.358200        0.0000           
    2753 A    689  TIP4 O1   OW0      0.000000       15.9990           
    2754 A    689  TIP4 H1   HW0      0.679100        1.0080           
    2755 A    689  TIP4 H2   HW0      0.679100        1.0080           
    2756 A    689  TIP4 BD1  LP0     -1.358200        0.0000           
    2757 A    690  TIP4 O1   OW0      0.000000       15.9990           
    2758 A    690  TIP4 H1   HW0      0.679100        1.0080           
    2759 A    690  TIP4 H2   HW0      0.679100        1.0080           
    2760 A    690  TIP4 BD1  LP0     -1.358200        0.0000           
    2761 A    691  TIP4 O1   OW0      0.000000       15.9990           
    2762 A    691  TIP4 H1   HW0      0.679100        1.0080           
    2763 A    691  TIP4 H2   HW0      0.679100        1.0080           
    2764 A    691  TIP4 BD1  LP0     -1.358200        0.0000           
    2765 A    692  TIP4 O1   OW0      0.000000       15.9990           
    2766 A    692  TIP4 H1   HW0      0.679100        1.0080           
    2767 A    692  TIP4 H2   HW0      0.679100        1.0080           
    2768 A    692  TIP4 BD1  LP0     -1.358200        0.0000           
    2769 A    693  TIP4 O1   OW0      0.000000       15.9990           
    2770 A    693  TIP4 H1   HW0      0.679100        1.0080           
    2771 A    693  TIP4 H2   HW0      0.679100        1.0080           
    2772 A    693  TIP4 BD1  LP0     -1.358200        0.0000           
    2773 A    694  TIP4 O1   OW0      0.000000       15.9990           
    2774 A    694  TIP4 H1   HW0      0.679100        1.0080           
    2775 A    694  TIP4 H2   HW0      0.679100        1.0080           
    2776 A    694  TIP4 BD1  LP0     -1.358200        0.0000           
    2777 A    695  TIP4 O1   OW0      0.000000       15.9990           
    2778 A    695  TIP4 H1   HW0      0.679100        1.0080           
    2779 A    695  TIP4 H2   HW0      0.679100        1.0080           
    2780 A    695  TIP4 BD1  LP0     -1.358200        0.0000           
    2781 A    696  TIP4 O1   OW0      0.000000       15.9990           
    2782 A    696  TIP4 H1   HW0      0.679100        1.0080           
    2783 A    696  TIP4 H2   HW0      0.679100        1.0080           
    2784 A    696  TIP4 BD1  LP0     -1.358200        0.0000           
    2785 A    697  TIP4 O1   OW0      0.000000       15.9990           
    2786 A    697  TIP4 H1   HW0      0.679100        1.0080           
    2787 A    697  TIP4 H2   HW0      0.679100        1.0080           
    2788 A    697  TIP4 BD1  LP0     -1.358200        0.0000           
    2789 A    698  TIP4 O1   OW0      0.000000       15.9990           
    2790 A    698  TIP4 H1   HW0      0.679100        1.0080           
    2791 A    698  TIP4 H2   HW0      0.679100        1.0080           
    2792 A    698  TIP4 BD1  LP0     -1.358200        0.0000           
    2793 A    699  TIP4 O1   OW0      0.000000       15.9990           
    2794 A    699  TIP4 H1   HW0      0.679100        1.0080           
    2795 A    699  TIP4 H2   HW0      0.679100        1.0080           
    2796 A    699  TIP4 BD1  LP0     -1.358200        0.0000           
    2797 A    700  TIP4 O1   OW0      0.000000       15.9990           
    2798 A    700  TIP4 H1   HW0      0.679100        1.0080           
    2799 A    700  TIP4 H2   HW0      0.679100        1.0080           
    2800 A    700  TIP4 BD1  LP0     -1.358200        0.0000           
    2801 A    701  TIP4 O1   OW0      0.000000       15.9990           
    2802 A    701  TIP4 H1   HW0      0.679100        1.0080           
    2803 A    701  TIP4 H2   HW0      0.679100        1.0080           
    2804 A    701  TIP4 BD1  LP0     -1.358200        0.0000           
    2805 A    702  TIP4 O1   OW0      0.000000       15.9990           
    2806 A    702  TIP4 H1   HW0      0.679100        1.0080           
    2807 A    702  TIP4 H2   HW0      0.679100        1.0080           
    2808 A    702  TIP4 BD1  LP0     -1.358200        0.0000           
    2809 A    703  TIP4 O1   OW0      0.000000       15.9990           
    2810 A    703  TIP4 H1   HW0      0.679100        1.0080           
    2811 A    703  TIP4 H2   HW0      0.679100        1.0080           
    2812 A    703  TIP4 BD1  LP0     -1.358200        0.0000           
    2813 A    704  TIP4 O1   OW0      0.000000       15.9990           
    2814 A    704  TIP4 H1   HW0      0.679100        1.0080           
    2815 A    704  TIP4 H2   HW0      0.679100        1.0080           
    2816 A    704  TIP4 BD1  LP0     -1.358200        0.0000           
    2817 A    705  TIP4 O1   OW0      0.000000       15.9990           
    2818 A    705  TIP4 H1   HW0      0.679100        1.0080           
    2819 A    705  TIP4 H2   HW0      0.679100        1.0080           
    2820 A    705  TIP4 BD1  LP0     -1.358200        0.0000           
    2821 A    706  TIP4 O1   OW0      0.000000       15.9990           
    2822 A    706  TIP4 H1   HW0      0.679100        1.0080           
    2823 A    706  TIP4 H2   HW0      0.679100        1.0080           
    2824 A    706  TIP4 BD1  LP0     -1.358200        0.0000           
    2825 A    707  TIP4 O1   OW0      0.000000       15.9990           
    2826 A    707  TIP4 H1   HW0      0.679100        1.0080           
    2827 A    707  TIP4 H2   HW0      0.679100        1.0080           
    2828 A    707  TIP4 BD1  LP0     -1.358200        0.0000           
    2829 A    708  TIP4 O1   OW0      0.000000       15.9990           
    2830 A    708  TIP4 H1   HW0      0.679100        1.0080           
    2831 A    708  TIP4 H2   HW0      0.679100        1.0080           
    2832 A    708  TIP4 BD1  LP0     -1.358200        0.0000           
    2833 A    709  TIP4 O1   OW0      0.000000       15.9990           
    2834 A    709  TIP4 H1   HW0      0.679100        1.0080           
    2835 A    709  TIP4 H2   HW0      0.679100        1.0080           
    2836 A    709  TIP4 BD1  LP0     -1.358200        0.0000           
    2837 A    710  TIP4 O1   OW0      0.000000       15.9990           
    2838 A    710  TIP4 H1   HW0      0.679100        1.0080           
    2839 A    710  TIP4 H2   HW0      0.679100        1.0080           
    2840 A    710  TIP4 BD1  LP0     -1.358200        0.0000           
    2841 A    711  TIP4 O1   OW0      0.000000       15.9990           
    2842 A    711  TIP4 H1   HW0      0.679100        1.0080           
    2843 A    711  TIP4 H2   HW0      0.679100        1.0080           
    2844 A    711  TIP4 BD1  LP0     -1.358200        0.0000           
    2845 A    712  TIP4 O1   OW0      0.000000       15.9990           
    2846 A    712  TIP4 H1   HW0      0.679100        1.0080           
    2847 A    712  TIP4 H2   HW0      0.679100        1.0080           
    2848 A    712  TIP4 BD1  LP0     -1.358200        0.0000           
    2849 A    713  TIP4 O1   OW0      0.000000       15.9990           
    2850 A    713  TIP4 H1   HW0      0.679100        1.0080           
    2851 A    713  TIP4 H2   HW0      0.679100        1.0080           
    2852 A    713  TIP4 BD1  LP0     -1.358200        0.0000           
    2853 A    714  TIP4 O1   OW0      0.000000       15.9990           
    2854 A    714  TIP4 H1   HW0      0.679100        1.0080           
    2855 A    714  TIP4 H2   HW0      0.679100        1.0080           
    2856 A    714  TIP4 BD1  LP0     -1.358200        0.0000           
    2857 A    715  TIP4 O1   OW0      0.000000       15.9990           
    2858 A    715  TIP4 H1   HW0      0.679100        1.0080           
    2859 A    715  TIP4 H2   HW0      0.679100        1.0080           
    2860 A    715  TIP4 BD1  LP0     -1.358200        0.0000           
    2861 A    716  TIP4 O1   OW0      0.000000       15.9990           
    2862 A    716  TIP4 H1   HW0      0.679100        1.0080           
    2863 A    716  TIP4 H2   HW0      0.679100        1.0080           
    2864 A    716  TIP4 BD1  LP0     -1.358200        0.0000           
    2865 A    717  TIP4 O1   OW0      0.000000       15.9990           
    2866 A    717  TIP4 H1   HW0      0.679100        1.0080           
    2867 A    717  TIP4 H2   HW0      0.679100        1.0080           
    2868 A    717  TIP4 BD1  LP0     -1.358200        0.0000           
    2869 A    718  TIP4 O1   OW0      0.000000       15.9990           
    2870 A    718  TIP4 H1   HW0      0.679100        1.0080           
    2871 A    718  TIP4 H2   HW0      0.679100        1.0080           
    2872 A    718  TIP4 BD1  LP0     -1.358200        0.0000           
    2873 A    719  TIP4 O1   OW0      0.000000       15.9990           
    2874 A    719  TIP4 H1   HW0      0.679100        1.0080           
    2875 A    719  TIP4 H2   HW0      0.679100        1.0080           
    2876 A    719  TIP4 BD1  LP0     -1.358200        0.0000           
    2877 A    720  TIP4 O1   OW0      0.000000       15.9990           
    2878 A    720  TIP4 H1   HW0      0.679100        1.0080           
    2879 A    720  TIP4 H2   HW0      0.679100        1.0080           
    2880 A    720  TIP4 BD1  LP0     -1.358200        0.0000           
    2881 A    721  TIP4 O1   OW0      0.000000       15.9990           
    2882 A    721  TIP4 H1   HW0      0.679100        1.0080           
    2883 A    721  TIP4 H2   HW0      0.679100        1.0080           
    2884 A    721  TIP4 BD1  LP0     -1.358200        0.0000           
    2885 A    722  TIP4 O1   OW0      0.000000       15.9990           
    2886 A    722  TIP4 H1   HW0      0.679100        1.0080           
    2887 A    722  TIP4 H2   HW0      0.679100        1.0080           
    2888 A    722  TIP4 BD1  LP0     -1.358200        0.0000           
    2889 A    723  TIP4 O1   OW0      0.000000       15.9990           
    2890 A    723  TIP4 H1   HW0      0.679100        1.0080           
    2891 A    723  TIP4 H2   HW0      0.679100        1.0080           
    2892 A    723  TIP4 BD1  LP0     -1.358200        0.0000           
    2893 A    724  TIP4 O1   OW0      0.000000       15.9990           
    2894 A    724  TIP4 H1   HW0      0.679100        1.0080           
    2895 A    724  TIP4 H2   HW0      0.679100        1.0080           
    2896 A    724  TIP4 BD1  LP0     -1.358200        0.0000           
    2897 A    725  TIP4 O1   OW0      0.000000       15.9990           
    2898 A    725  TIP4 H1   HW0      0.679100        1.0080           
    2899 A    725  TIP4 H2   HW0      0.679100        1.0080           
    2900 A    725  TIP4 BD1  LP0     -1.358200        0.0000           
    2901 A    726  TIP4 O1   OW0      0.000000       15.9990           
    2902 A    726  TIP4 H1   HW0      0.679100        1.0080           
    2903 A    726  TIP4 H2   HW0      0.679100        1.0080           
    2904 A    726  TIP4 BD1  LP0     -1.358200        0.0000           
    2905 A    727  TIP4 O1   OW0      0.000000       15.9990           
    2906 A    727  TIP4 H1   HW0      0.679100        1.0080           
    2907 A    727  TIP4 H2   HW0      0.679100        1.0080           
    2908 A    727  TIP4 BD1  LP0     -1.358200        0.0000           
    2909 A    728  TIP4 O1   OW0      0.000000       15.9990           
    2910 A    728  TIP4 H1   HW0      0.679100        1.0080           
    2911 A    728  TIP4 H2   HW0      0.679100        1.0080           
    2912 A    728  TIP4 BD1  LP0     -1.358200        0.0000           
    2913 A    729  TIP4 O1   OW0      0.000000       15.9990           
    2914 A    729  TIP4 H1   HW0      0.679100        1.0080           
    2915 A    729  TIP4 H2   HW0      0.679100        1.0080           
    2916 A    729  TIP4 BD1  LP0     -1.358200        0.0000           
    2917 A    730  TIP4 O1   OW0      0.000000       15.9990           
    2918 A    730  TIP4 H1   HW0      0.679100        1.0080           
    2919 A    730  TIP4 H2   HW0      0.679100        1.0080           
    2920 A    730  TIP4 BD1  LP0     -1.358200        0.0000           
    2921 A    731  TIP4 O1   OW0      0.000000       15.9990           
    2922 A    731  TIP4 H1   HW0      0.679100        1.0080           
    2923 A    731  TIP4 H2   HW0      0.679100        1.0080           
    2924 A    731  TIP4 BD1  LP0     -1.358200        0.0000           
    2925 A    732  TIP4 O1   OW0      0.000000       15.9990           
    2926 A    732  TIP4 H1   HW0      0.679100        1.0080           
    2927 A    732  TIP4 H2   HW0      0.679100        1.0080           
    2928 A    732  TIP4 BD1  LP0     -1.358200        0.0000           
    2929 A    733  TIP4 O1   OW0      0.000000       15.9990           
    2930 A    733  TIP4 H1   HW0      0.679100        1.0080           
    2931 A    733  TIP4 H2   HW0      0.679100        1.0080           
    2932 A    733  TIP4 BD1  LP0     -1.358200        0.0000           
    2933 A    734  TIP4 O1   OW0      0.000000       15.9990           
    2934 A    734  TIP4 H1   HW0      0.679100        1.0080           
    2935 A    734  TIP4 H2   HW0      0.679100        1.0080           
    2936 A    734  TIP4 BD1  LP0     -1.358200        0.0000           
    2937 A    735  TIP4 O1   OW0      0.000000       15.9990           
    2938 A    735  TIP4 H1   HW0      0.679100        1.0080           
    2939 A    735  TIP4 H2   HW0      0.679100        1.0080           
    2940 A    735  TIP4 BD1  LP0     -1.358200        0.0000           
    2941 A    736  TIP4 O1   OW0      0.000000       15.9990           
    2942 A    736  TIP4 H1   HW0      0.679100        1.0080           
    2943 A    736  TIP4 H2   HW0      0.679100        1.0080           
    2944 A    736  TIP4 BD1  LP0     -1.358200        0.0000           
    2945 A    737  TIP4 O1   OW0      0.000000       15.9990           
    2946 A    737  TIP4 H1   HW0      0.679100        1.0080           
    2947 A    737  TIP4 H2   HW0      0.679100        1.0080           
    2948 A    737  TIP4 BD1  LP0     -1.358200        0.0000           
    2949 A    738  TIP4 O1   OW0      0.000000       15.9990           
    2950 A    738  TIP4 H1   HW0      0.679100        1.0080           
    2951 A    738  TIP4 H2   HW0      0.679100        1.0080           
    2952 A    738  TIP4 BD1  LP0     -1.358200        0.0000           
    2953 A    739  TIP4 O1   OW0      0.000000       15.9990           
    2954 A    739  TIP4 H1   HW0      0.679100        1.0080           
    2955 A    739  TIP4 H2   HW0      0.679100        1.0080           
    2956 A    739  TIP4 BD1  LP0     -1.358200        0.0000           
    2957 A    740  TIP4 O1   OW0      0.000000       15.9990           
    2958 A    740  TIP4 H1   HW0      0.679100        1.0080           
    2959 A    740  TIP4 H2   HW0      0.679100        1.0080           
    2960 A    740  TIP4 BD1  LP0     -1.358200        0.0000           
    2961 A    741  TIP4 O1   OW0      0.000000       15.9990           
    2962 A    741  TIP4 H1   HW0      0.679100        1.0080           
    2963 A    741  TIP4 H2   HW0      0.679100        1.0080           
    2964 A    741  TIP4 BD1  LP0     -1.358200        0.0000           
    2965 A    742  TIP4 O1   OW0      0.000000       15.9990           
    2966 A    742  TIP4 H1   HW0      0.679100        1.0080           
    2967 A    742  TIP4 H2   HW0      0.679100        1.0080           
    2968 A    742  TIP4 BD1  LP0     -1.358200        0.0000           
    2969 A    743  TIP4 O1   OW0      0.000000       15.9990           
    2970 A    743  TIP4 H1   HW0      0.679100        1.0080           
    2971 A    743  TIP4 H2   HW0      0.679100        1.0080           
    2972 A    743  TIP4 BD1  LP0     -1.358200        0.0000           
    2973 A    744  TIP4 O1   OW0      0.000000       15.9990           
    2974 A    744  TIP4 H1   HW0      0.679100        1.0080           
    2975 A    744  TIP4 H2   HW0      0.679100        1.0080           
    2976 A    744  TIP4 BD1  LP0     -1.358200        0.0000           
    2977 A    745  TIP4 O1   OW0      0.000000       15.9990           
    2978 A    745  TIP4 H1   HW0      0.679100        1.0080           
    2979 A    745  TIP4 H2   HW0      0.679100        1.0080           
    2980 A    745  TIP4 BD1  LP0     -1.358200        0.0000           
    2981 A    746  TIP4 O1   OW0      0.000000       15.9990           
    2982 A    746  TIP4 H1   HW0      0.679100        1.0080           
    2983 A    746  TIP4 H2   HW0      0.679100        1.0080           
    2984 A    746  TIP4 BD1  LP0     -1.358200        0.0000           
    2985 A    747  TIP4 O1   OW0      0.000000       15.9990           
    2986 A    747  TIP4 H1   HW0      0.679100        1.0080           
    2987 A    747  TIP4 H2   HW0      0.679100        1.0080           
    2988 A    747  TIP4 BD1  LP0     -1.358200        0.0000           
    2989 A    748  TIP4 O1   OW0      0.000000       15.9990           
    2990 A    748  TIP4 H1   HW0      0.679100        1.0080           
    2991 A    748  TIP4 H2   HW0      0.679100        1.0080           
    2992 A    748  TIP4 BD1  LP0     -1.358200        0.0000           
    2993 A    749  TIP4 O1   OW0      0.000000       15.9990           
    2994 A    749  TIP4 H1   HW0      0.679100        1.0080           
    2995 A    749  TIP4 H2   HW0      0.679100        1.0080           
    2996 A    749  TIP4 BD1  LP0     -1.358200        0.0000           
    2997 A    750  TIP4 O1   OW0      0.000000       15.9990           
    2998 A    750  TIP4 H1   HW0      0.679100        1.0080           
    2999 A    750  TIP4 H2   HW0      0.679100        1.0080           
    3000 A    750  TIP4 BD1  LP0     -1.358200        0.0000           
    3001 A    751  TIP4 O1   OW0      0.000000       15.9990           
    3002 A    751  TIP4 H1   HW0      0.679100        1.0080           
    3003 A    751  TIP4 H2   HW0      0.679100        1.0080           
    3004 A    751  TIP4 BD1  LP0     -1.358200        0.0000           
    3005 A    752  TIP4 O1   OW0      0.000000       15.9990           
    3006 A    752  TIP4 H1   HW0      0.679100        1.0080           
    3007 A    752  TIP4 H2   HW0      0.679100        1.0080           
    3008 A    752  TIP4 BD1  LP0     -1.358200        0.0000           
    3009 A    753  TIP4 O1   OW0      0.000000       15.9990           
    3010 A    753  TIP4 H1   HW0      0.679100        1.0080           
    3011 A    753  TIP4 H2   HW0      0.679100        1.0080           
    3012 A    753  TIP4 BD1  LP0     -1.358200        0.0000           
    3013 A    754  TIP4 O1   OW0      0.000000       15.9990           
    3014 A    754  TIP4 H1   HW0      0.679100        1.0080           
    3015 A    754  TIP4 H2   HW0      0.679100        1.0080           
    3016 A    754  TIP4 BD1  LP0     -1.358200        0.0000           
    3017 A    755  TIP4 O1   OW0      0.000000       15.9990           
    3018 A    755  TIP4 H1   HW0      0.679100        1.0080           
    3019 A    755  TIP4 H2   HW0      0.679100        1.0080           
    3020 A    755  TIP4 BD1  LP0     -1.358200        0.0000           
    3021 A    756  TIP4 O1   OW0      0.000000       15.9990           
    3022 A    756  TIP4 H1   HW0      0.679100        1.0080           
    3023 A    756  TIP4 H2   HW0      0.679100        1.0080           
    3024 A    756  TIP4 BD1  LP0     -1.358200        0.0000           
    3025 A    757  TIP4 O1   OW0      0.000000       15.9990           
    3026 A    757  TIP4 H1   HW0      0.679100        1.0080           
    3027 A    757  TIP4 H2   HW0      0.679100        1.0080           
    3028 A    757  TIP4 BD1  LP0     -1.358200        0.0000           
    3029 A    758  TIP4 O1   OW0      0.000000       15.9990           
    3030 A    758  TIP4 H1   HW0      0.679100        1.0080           
    3031 A    758  TIP4 H2   HW0      0.679100        1.0080           
    3032 A    758  TIP4 BD1  LP0     -1.358200        0.0000           
    3033 A    759  TIP4 O1   OW0      0.000000       15.9990           
    3034 A    759  TIP4 H1   HW0      0.679100        1.0080           
    3035 A    759  TIP4 H2   HW0      0.679100        1.0080           
    3036 A    759  TIP4 BD1  LP0     -1.358200        0.0000           
    3037 A    760  TIP4 O1   OW0      0.000000       15.9990           
    3038 A    760  TIP4 H1   HW0      0.679100        1.0080           
    3039 A    760  TIP4 H2   HW0      0.679100        1.0080           
    3040 A    760  TIP4 BD1  LP0     -1.358200        0.0000           
    3041 A    761  TIP4 O1   OW0      0.000000       15.9990           
    3042 A    761  TIP4 H1   HW0      0.679100        1.0080           
    3043 A    761  TIP4 H2   HW0      0.679100        1.0080           
    3044 A    761  TIP4 BD1  LP0     -1.358200        0.0000           
    3045 A    762  TIP4 O1   OW0      0.000000       15.9990           
    3046 A    762  TIP4 H1   HW0      0.679100        1.0080           
    3047 A    762  TIP4 H2   HW0      0.679100        1.0080           
    3048 A    762  TIP4 BD1  LP0     -1.358200        0.0000           
    3049 A    763  TIP4 O1   OW0      0.000000       15.9990           
    3050 A    763  TIP4 H1   HW0      0.679100        1.0080           
    3051 A    763  TIP4 H2   HW0      0.679100        1.0080           
    3052 A    763  TIP4 BD1  LP0     -1.358200        0.0000           
    3053 A    764  TIP4 O1   OW0      0.000000       15.9990           
    3054 A    764  TIP4 H1   HW0      0.679100        1.0080           
    3055 A    764  TIP4 H2   HW0      0.679100        1.0080           
    3056 A    764  TIP4 BD1  LP0     -1.358200        0.0000           
    3057 A    765  TIP4 O1   OW0      0.000000       15.9990           
    3058 A    765  TIP4 H1   HW0      0.679100        1.0080           
    3059 A    765  TIP4 H2   HW0      0.679100        1.0080           
    3060 A    765  TIP4 BD1  LP0     -1.358200        0.0000           
    3061 A    766  TIP4 O1   OW0      0.000000       15.9990           
    3062 A    766  TIP4 H1   HW0      0.679100        1.0080           
    3063 A    766  TIP4 H2   HW0      0.679100        1.0080           
    3064 A    766  TIP4 BD1  LP0     -1.358200        0.0000           
    3065 A    767  TIP4 O1   OW0      0.000000       15.9990           
    3066 A    767  TIP4 H1   HW0      0.679100        1.0080           
    3067 A    767  TIP4 H2   HW0      0.679100        1.0080           
    3068 A    767  TIP4 BD1  LP0     -1.358200        0.0000           
    3069 A    768  TIP4 O1   OW0      0.000000       15.9990           
    3070 A    768  TIP4 H1   HW0      0.679100        1.0080           
    3071 A    768  TIP4 H2   HW0      0.679100        1.0080           
    3072 A    768  TIP4 BD1  LP0     -1.358200        0.0000           
    3073 A    769  TIP4 O1   OW0      0.000000       15.9990           
    3074 A    769  TIP4 H1   HW0      0.679100        1.0080           
    3075 A    769  TIP4 H2   HW0      0.679100        1.0080           
    3076 A    769  TIP4 BD1  LP0     -1.358200        0.0000           
    3077 A    770  TIP4 O1   OW0      0.000000       15.9990           
    3078 A    770  TIP4 H1   HW0      0.679100        1.0080           
    3079 A    770  TIP4 H2   HW0      0.679100        1.0080           
    3080 A    770  TIP4 BD1  LP0     -1.358200        0.0000           
    3081 A    771  TIP4 O1   OW0      0.000000       15.9990           
    3082 A    771  TIP4 H1   HW0      0.679100        1.0080           
    3083 A    771  TIP4 H2   HW0      0.679100        1.0080           
    3084 A    771  TIP4 BD1  LP0     -1.358200        0.0000           
    3085 A    772  TIP4 O1   OW0      0.000000       15.9990           
    3086 A    772  TIP4 H1   HW0      0.679100        1.0080           
    3087 A    772  TIP4 H2   HW0      0.679100        1.0080           
    3088 A    772  TIP4 BD1  LP0     -1.358200        0.0000           
    3089 A    773  TIP4 O1   OW0      0.000000       15.9990           
    3090 A    773  TIP4 H1   HW0      0.679100        1.0080           
    3091 A    773  TIP4 H2   HW0      0.679100        1.0080           
    3092 A    773  TIP4 BD1  LP0     -1.358200        0.0000           
    3093 A    774  TIP4 O1   OW0      0.000000       15.9990           
    3094 A    774  TIP4 H1   HW0      0.679100        1.0080           
    3095 A    774  TIP4 H2   HW0      0.679100        1.0080           
    3096 A    774  TIP4 BD1  LP0     -1.358200        0.0000           
    3097 A    775  TIP4 O1   OW0      0.000000       15.9990           
    3098 A    775  TIP4 H1   HW0      0.679100        1.0080           
    3099 A    775  TIP4 H2   HW0      0.679100        1.0080           
    3100 A    775  TIP4 BD1  LP0     -1.358200        0.0000           
    3101 A    776  TIP4 O1   OW0      0.000000       15.9990           
    3102 A    776  TIP4 H1   HW0      0.679100        1.0080           
    3103 A    776  TIP4 H2   HW0      0.679100        1.0080           
    3104 A    776  TIP4 BD1  LP0     -1.358200        0.0000           
    3105 A    777  TIP4 O1   OW0      0.000000       15.9990           
    3106 A    777  TIP4 H1   HW0      0.679100        1.0080           
    3107 A    777  TIP4 H2   HW0      0.679100        1.0080           
    3108 A    777  TIP4 BD1  LP0     -1.358200        0.0000           
    3109 A    778  TIP4 O1   OW0      0.000000       15.9990           
    3110 A    778  TIP4 H1   HW0      0.679100        1.0080           
    3111 A    778  TIP4 H2   HW0      0.679100        1.0080           
    3112 A    778  TIP4 BD1  LP0     -1.358200        0.0000           
    3113 A    779  TIP4 O1   OW0      0.000000       15.9990           
    3114 A    779  TIP4 H1   HW0      0.679100        1.0080           
    3115 A    779  TIP4 H2   HW0      0.679100        1.0080           
    3116 A    779  TIP4 BD1  LP0     -1.358200        0.0000           
    3117 A    780  TIP4 O1   OW0      0.000000       15.9990           
    3118 A    780  TIP4 H1   HW0      0.679100        1.0080           
    3119 A    780  TIP4 H2   HW0      0.679100        1.0080           
    3120 A    780  TIP4 BD1  LP0     -1.358200        0.0000           
    3121 A    781  TIP4 O1   OW0      0.000000       15.9990           
    3122 A    781  TIP4 H1   HW0      0.679100        1.0080           
    3123 A    781  TIP4 H2   HW0      0.679100        1.0080           
    3124 A    781  TIP4 BD1  LP0     -1.358200        0.0000           
    3125 A    782  TIP4 O1   OW0      0.000000       15.9990           
    3126 A    782  TIP4 H1   HW0      0.679100        1.0080           
    3127 A    782  TIP4 H2   HW0      0.679100        1.0080           
    3128 A    782  TIP4 BD1  LP0     -1.358200        0.0000           
    3129 A    783  TIP4 O1   OW0      0.000000       15.9990           
    3130 A    783  TIP4 H1   HW0      0.679100        1.0080           
    3131 A    783  TIP4 H2   HW0      0.679100        1.0080           
    3132 A    783  TIP4 BD1  LP0     -1.358200        0.0000           
    3133 A    784  TIP4 O1   OW0      0.000000       15.9990           
    3134 A    784  TIP4 H1   HW0      0.679100        1.0080           
    3135 A    784  TIP4 H2   HW0      0.679100        1.0080           
    3136 A    784  TIP4 BD1  LP0     -1.358200        0.0000           
    3137 A    785  TIP4 O1   OW0      0.000000       15.9990           
    3138 A    785  TIP4 H1   HW0      0.679100        1.0080           
    3139 A    785  TIP4 H2   HW0      0.679100        1.0080           
    3140 A    785  TIP4 BD1  LP0     -1.358200        0.0000           
    3141 A    786  TIP4 O1   OW0      0.000000       15.9990           
    3142 A    786  TIP4 H1   HW0      0.679100        1.0080           
    3143 A    786  TIP4 H2   HW0      0.679100        1.0080           
    3144 A    786  TIP4 BD1  LP0     -1.358200        0.0000           
    3145 A    787  TIP4 O1   OW0      0.000000       15.9990           
    3146 A    787  TIP4 H1   HW0      0.679100        1.0080           
    3147 A    787  TIP4 H2   HW0      0.679100        1.0080           
    3148 A    787  TIP4 BD1  LP0     -1.358200        0.0000           
    3149 A    788  TIP4 O1   OW0      0.000000       15.9990           
    3150 A    788  TIP4 H1   HW0      0.679100        1.0080           
    3151 A    788  TIP4 H2   HW0      0.679100        1.0080           
    3152 A    788  TIP4 BD1  LP0     -1.358200        0.0000           
    3153 A    789  TIP4 O1   OW0      0.000000       15.9990           
    3154 A    789  TIP4 H1   HW0      0.679100        1.0080           
    3155 A    789  TIP4 H2   HW0      0.679100        1.0080           
    3156 A    789  TIP4 BD1  LP0     -1.358200        0.0000           
    3157 A    790  TIP4 O1   OW0      0.000000       15.9990           
    3158 A    790  TIP4 H1   HW0      0.679100        1.0080           
    3159 A    790  TIP4 H2   HW0      0.679100        1.0080           
    3160 A    790  TIP4 BD1  LP0     -1.358200        0.0000           
    3161 A    791  TIP4 O1   OW0      0.000000       15.9990           
    3162 A    791  TIP4 H1   HW0      0.679100        1.0080           
    3163 A    791  TIP4 H2   HW0      0.679100        1.0080           
    3164 A    791  TIP4 BD1  LP0     -1.358200        0.0000           
    3165 A    792  TIP4 O1   OW0      0.000000       15.9990           
    3166 A    792  TIP4 H1   HW0      0.679100        1.0080           
    3167 A    792  TIP4 H2   HW0      0.679100        1.0080           
    3168 A    792  TIP4 BD1  LP0     -1.358200        0.0000           
    3169 A    793  TIP4 O1   OW0      0.000000       15.9990           
    3170 A    793  TIP4 H1   HW0      0.679100        1.0080           
    3171 A    793  TIP4 H2   HW0      0.679100        1.0080           
    3172 A    793  TIP4 BD1  LP0     -1.358200        0.0000           
    3173 A    794  TIP4 O1   OW0      0.000000       15.9990           
    3174 A    794  TIP4 H1   HW0      0.679100        1.0080           
    3175 A    794  TIP4 H2   HW0      0.679100        1.0080           
    3176 A    794  TIP4 BD1  LP0     -1.358200        0.0000           
    3177 A    795  TIP4 O1   OW0      0.000000       15.9990           
    3178 A    795  TIP4 H1   HW0      0.679100        1.0080           
    3179 A    795  TIP4 H2   HW0      0.679100        1.0080           
    3180 A    795  TIP4 BD1  LP0     -1.358200        0.0000           
    3181 A    796  TIP4 O1   OW0      0.000000       15.9990           
    3182 A    796  TIP4 H1   HW0      0.679100        1.0080           
    3183 A    796  TIP4 H2   HW0      0.679100        1.0080           
    3184 A    796  TIP4 BD1  LP0     -1.358200        0.0000           
    3185 A    797  TIP4 O1   OW0      0.000000       15.9990           
    3186 A    797  TIP4 H1   HW0      0.679100        1.0080           
    3187 A    797  TIP4 H2   HW0      0.679100        1.0080           
    3188 A    797  TIP4 BD1  LP0     -1.358200        0.0000           
    3189 A    798  TIP4 O1   OW0      0.000000       15.9990           
    3190 A    798  TIP4 H1   HW0      0.679100        1.0080           
    3191 A    798  TIP4 H2   HW0      0.679100        1.0080           
    3192 A    798  TIP4 BD1  LP0     -1.358200        0.0000           
    3193 A    799  TIP4 O1   OW0      0.000000       15.9990           
    3194 A    799  TIP4 H1   HW0      0.679100        1.0080           
    3195 A    799  TIP4 H2   HW0      0.679100        1.0080           
    3196 A    799  TIP4 BD1  LP0     -1.358200        0.0000           
    3197 A    800  TIP4 O1   OW0      0.000000       15.9990           
    3198 A    800  TIP4 H1   HW0      0.679100        1.0080           
    3199 A    800  TIP4 H2   HW0      0.679100        1.0080           
    3200 A    800  TIP4 BD1  LP0     -1.358200        0.0000           
    3201 A    801  TIP4 O1   OW0      0.000000       15.9990           
    3202 A    801  TIP4 H1   HW0      0.679100        1.0080           
    3203 A    801  TIP4 H2   HW0      0.679100        1.0080           
    3204 A    801  TIP4 BD1  LP0     -1.358200        0.0000           
    3205 A    802  TIP4 O1   OW0      0.000000       15.9990           
    3206 A    802  TIP4 H1   HW0      0.679100        1.0080           
    3207 A    802  TIP4 H2   HW0      0.679100        1.0080           
    3208 A    802  TIP4 BD1  LP0     -1.358200        0.0000           
    3209 A    803  TIP4 O1   OW0      0.000000       15.9990           
    3210 A    803  TIP4 H1   HW0      0.679100        1.0080           
    3211 A    803  TIP4 H2   HW0      0.679100        1.0080           
    3212 A    803  TIP4 BD1  LP0     -1.358200        0.0000           
    3213 A    804  TIP4 O1   OW0      0.000000       15.9990           
    3214 A    804  TIP4 H1   HW0      0.679100        1.0080           
    3215 A    804  TIP4 H2   HW0      0.679100        1.0080           
    3216 A    804  TIP4 BD1  LP0     -1.358200        0.0000           
    3217 A    805  TIP4 O1   OW0      0.000000       15.9990           
    3218 A    805  TIP4 H1   HW0      0.679100        1.0080           
    3219 A    805  TIP4 H2   HW0      0.679100        1.0080           
    3220 A    805  TIP4 BD1  LP0     -1.358200        0.0000           
    3221 A    806  TIP4 O1   OW0      0.000000       15.9990           
    3222 A    806  TIP4 H1   HW0      0.679100        1.0080           
    3223 A    806  TIP4 H2   HW0      0.679100        1.0080           
    3224 A    806  TIP4 BD1  LP0     -1.358200        0.0000           
    3225 A    807  TIP4 O1   OW0      0.000000       15.9990           
    3226 A    807  TIP4 H1   HW0      0.679100        1.0080           
    3227 A    807  TIP4 H2   HW0      0.679100        1.0080           
    3228 A    807  TIP4 BD1  LP0     -1.358200        0.0000           
    3229 A    808  TIP4 O1   OW0      0.000000       15.9990           
    3230 A    808  TIP4 H1   HW0      0.679100        1.0080           
    3231 A    808  TIP4 H2   HW0      0.679100        1.0080           
    3232 A    808  TIP4 BD1  LP0     -1.358200        0.0000           
    3233 A    809  TIP4 O1   OW0      0.000000       15.9990           
    3234 A    809  TIP4 H1   HW0      0.679100        1.0080           
    3235 A    809  TIP4 H2   HW0      0.679100        1.0080           
    3236 A    809  TIP4 BD1  LP0     -1.358200        0.0000           
    3237 A    810  TIP4 O1   OW0      0.000000       15.9990           
    3238 A    810  TIP4 H1   HW0      0.679100        1.0080           
    3239 A    810  TIP4 H2   HW0      0.679100        1.0080           
    3240 A    810  TIP4 BD1  LP0     -1.358200        0.0000           
    3241 A    811  TIP4 O1   OW0      0.000000       15.9990           
    3242 A    811  TIP4 H1   HW0      0.679100        1.0080           
    3243 A    811  TIP4 H2   HW0      0.679100        1.0080           
    3244 A    811  TIP4 BD1  LP0     -1.358200        0.0000           
    3245 A    812  TIP4 O1   OW0      0.000000       15.9990           
    3246 A    812  TIP4 H1   HW0      0.679100        1.0080           
    3247 A    812  TIP4 H2   HW0      0.679100        1.0080           
    3248 A    812  TIP4 BD1  LP0     -1.358200        0.0000           
    3249 A    813  TIP4 O1   OW0      0.000000       15.9990           
    3250 A    813  TIP4 H1   HW0      0.679100        1.0080           
    3251 A    813  TIP4 H2   HW0      0.679100        1.0080           
    3252 A    813  TIP4 BD1  LP0     -1.358200        0.0000           
    3253 A    814  TIP4 O1   OW0      0.000000       15.9990           
    3254 A    814  TIP4 H1   HW0      0.679100        1.0080           
    3255 A    814  TIP4 H2   HW0      0.679100        1.0080           
    3256 A    814  TIP4 BD1  LP0     -1.358200        0.0000           
    3257 A    815  TIP4 O1   OW0      0.000000       15.9990           
    3258 A    815  TIP4 H1   HW0      0.679100        1.0080           
    3259 A    815  TIP4 H2   HW0      0.679100        1.0080           
    3260 A    815  TIP4 BD1  LP0     -1.358200        0.0000           
    3261 A    816  TIP4 O1   OW0      0.000000       15.9990           
    3262 A    816  TIP4 H1   HW0      0.679100        1.0080           
    3263 A    816  TIP4 H2   HW0      0.679100        1.0080           
    3264 A    816  TIP4 BD1  LP0     -1.358200        0.0000           
    3265 A    817  TIP4 O1   OW0      0.000000       15.9990           
    3266 A    817  TIP4 H1   HW0      0.679100        1.0080           
    3267 A    817  TIP4 H2   HW0      0.679100        1.0080           
    3268 A    817  TIP4 BD1  LP0     -1.358200        0.0000           
    3269 A    818  TIP4 O1   OW0      0.000000       15.9990           
    3270 A    818  TIP4 H1   HW0      0.679100        1.0080           
    3271 A    818  TIP4 H2   HW0      0.679100        1.0080           
    3272 A    818  TIP4 BD1  LP0     -1.358200        0.0000           
    3273 A    819  TIP4 O1   OW0      0.000000       15.9990           
    3274 A    819  TIP4 H1   HW0      0.679100        1.0080           
    3275 A    819  TIP4 H2   HW0      0.679100        1.0080           
    3276 A    819  TIP4 BD1  LP0     -1.358200        0.0000           
    3277 A    820  TIP4 O1   OW0      0.000000       15.9990           
    3278 A    820  TIP4 H1   HW0      0.679100        1.0080           
    3279 A    820  TIP4 H2   HW0      0.679100        1.0080           
    3280 A    820  TIP4 BD1  LP0     -1.358200        0.0000           
    3281 A    821  TIP4 O1   OW0      0.000000       15.9990           
    3282 A    821  TIP4 H1   HW0      0.679100        1.0080           
    3283 A    821  TIP4 H2   HW0      0.679100        1.0080           
    3284 A    821  TIP4 BD1  LP0     -1.358200        0.0000           
    3285 A    822  TIP4 O1   OW0      0.000000       15.9990           
    3286 A    822  TIP4 H1   HW0      0.679100        1.0080           
    3287 A    822  TIP4 H2   HW0      0.679100        1.0080           
    3288 A    822  TIP4 BD1  LP0     -1.358200        0.0000           
    3289 A    823  TIP4 O1   OW0      0.000000       15.9990           
    3290 A    823  TIP4 H1   HW0      0.679100        1.0080           
    3291 A    823  TIP4 H2   HW0      0.679100        1.0080           
    3292 A    823  TIP4 BD1  LP0     -1.358200        0.0000           
    3293 A    824  TIP4 O1   OW0      0.000000       15.9990           
    3294 A    824  TIP4 H1   HW0      0.679100        1.0080           
    3295 A    824  TIP4 H2   HW0      0.679100        1.0080           
    3296 A    824  TIP4 BD1  LP0     -1.358200        0.0000           
    3297 A    825  TIP4 O1   OW0      0.000000       15.9990           
    3298 A    825  TIP4 H1   HW0      0.679100        1.0080           
    3299 A    825  TIP4 H2   HW0      0.679100        1.0080           
    3300 A    825  TIP4 BD1  LP0     -1.358200        0.0000           
    3301 A    826  TIP4 O1   OW0      0.000000       15.9990           
    3302 A    826  TIP4 H1   HW0      0.679100        1.0080           
    3303 A    826  TIP4 H2   HW0      0.679100        1.0080           
    3304 A    826  TIP4 BD1  LP0     -1.358200        0.0000           
    3305 A    827  TIP4 O1   OW0      0.000000       15.9990           
    3306 A    827  TIP4 H1   HW0      0.679100        1.0080           
    3307 A    827  TIP4 H2   HW0      0.679100        1.0080           
    3308 A    827  TIP4 BD1  LP0     -1.358200        0.0000           
    3309 A    828  TIP4 O1   OW0      0.000000       15.9990           
    3310 A    828  TIP4 H1   HW0      0.679100        1.0080           
    3311 A    828  TIP4 H2   HW0      0.679100        1.0080           
    3312 A    828  TIP4 BD1  LP0     -1.358200        0.0000           
    3313 A    829  TIP4 O1   OW0      0.000000       15.9990           
    3314 A    829  TIP4 H1   HW0      0.679100        1.0080           
    3315 A    829  TIP4 H2   HW0      0.679100        1.0080           
    3316 A    829  TIP4 BD1  LP0     -1.358200        0.0000           
    3317 A    830  TIP4 O1   OW0      0.000000       15.9990           
    3318 A    830  TIP4 H1   HW0      0.679100        1.0080           
    3319 A    830  TIP4 H2   HW0      0.679100        1.0080           
    3320 A    830  TIP4 BD1  LP0     -1.358200        0.0000           
    3321 A    831  TIP4 O1   OW0      0.000000       15.9990           
    3322 A    831  TIP4 H1   HW0      0.679100        1.0080           
    3323 A    831  TIP4 H2   HW0      0.679100        1.0080           
    3324 A    831  TIP4 BD1  LP0     -1.358200        0.0000           
    3325 A    832  TIP4 O1   OW0      0.000000       15.9990           
    3326 A    832  TIP4 H1   HW0      0.679100        1.0080           
    3327 A    832  TIP4 H2   HW0      0.679100        1.0080           
    3328 A    832  TIP4 BD1  LP0     -1.358200        0.0000           
    3329 A    833  TIP4 O1   OW0      0.000000       15.9990           
    3330 A    833  TIP4 H1   HW0      0.679100        1.0080           
    3331 A    833  TIP4 H2   HW0      0.679100        1.0080           
    3332 A    833  TIP4 BD1  LP0     -1.358200        0.0000           
    3333 A    834  TIP4 O1   OW0      0.000000       15.9990           
    3334 A    834  TIP4 H1   HW0      0.679100        1.0080           
    3335 A    834  TIP4 H2   HW0      0.679100        1.0080           
    3336 A    834  TIP4 BD1  LP0     -1.358200        0.0000           
    3337 A    835  TIP4 O1   OW0      0.000000       15.9990           
    3338 A    835  TIP4 H1   HW0      0.679100        1.0080           
    3339 A    835  TIP4 H2   HW0      0.679100        1.0080           
    3340 A    835  TIP4 BD1  LP0     -1.358200        0.0000           
    3341 A    836  TIP4 O1   OW0      0.000000       15.9990           
    3342 A    836  TIP4 H1   HW0      0.679100        1.0080           
    3343 A    836  TIP4 H2   HW0      0.679100        1.0080           
    3344 A    836  TIP4 BD1  LP0     -1.358200        0.0000           
    3345 A    837  TIP4 O1   OW0      0.000000       15.9990           
    3346 A    837  TIP4 H1   HW0      0.679100        1.0080           
    3347 A    837  TIP4 H2   HW0      0.679100        1.0080           
    3348 A    837  TIP4 BD1  LP0     -1.358200        0.0000           
    3349 A    838  TIP4 O1   OW0      0.000000       15.9990           
    3350 A    838  TIP4 H1   HW0      0.679100        1.0080           
    3351 A    838  TIP4 H2   HW0      0.679100        1.0080           
    3352 A    838  TIP4 BD1  LP0     -1.358200        0.0000           
    3353 A    839  TIP4 O1   OW0      0.000000       15.9990           
    3354 A    839  TIP4 H1   HW0      0.679100        1.0080           
    3355 A    839  TIP4 H2   HW0      0.679100        1.0080           
    3356 A    839  TIP4 BD1  LP0     -1.358200        0.0000           
    3357 A    840  TIP4 O1   OW0      0.000000       15.9990           
    3358 A    840  TIP4 H1   HW0      0.679100        1.0080           
    3359 A    840  TIP4 H2   HW0      0.679100        1.0080           
    3360 A    840  TIP4 BD1  LP0     -1.358200        0.0000           
    3361 A    841  TIP4 O1   OW0      0.000000       15.9990           
    3362 A    841  TIP4 H1   HW0      0.679100        1.0080           
    3363 A    841  TIP4 H2   HW0      0.679100        1.0080           
    3364 A    841  TIP4 BD1  LP0     -1.358200        0.0000           
    3365 A    842  TIP4 O1   OW0      0.000000       15.9990           
    3366 A    842  TIP4 H1   HW0      0.679100        1.0080           
    3367 A    842  TIP4 H2   HW0      0.679100        1.0080           
    3368 A    842  TIP4 BD1  LP0     -1.358200        0.0000           
    3369 A    843  TIP4 O1   OW0      0.000000       15.9990           
    3370 A    843  TIP4 H1   HW0      0.679100        1.0080           
    3371 A    843  TIP4 H2   HW0      0.679100        1.0080           
    3372 A    843  TIP4 BD1  LP0     -1.358200        0.0000           
    3373 A    844  TIP4 O1   OW0      0.000000       15.9990           
    3374 A    844  TIP4 H1   HW0      0.679100        1.0080           
    3375 A    844  TIP4 H2   HW0      0.679100        1.0080           
    3376 A    844  TIP4 BD1  LP0     -1.358200        0.0000           
    3377 A    845  TIP4 O1   OW0      0.000000       15.9990           
    3378 A    845  TIP4 H1   HW0      0.679100        1.0080           
    3379 A    845  TIP4 H2   HW0      0.679100        1.0080           
    3380 A    845  TIP4 BD1  LP0     -1.358200        0.0000           
    3381 A    846  TIP4 O1   OW0      0.000000       15.9990           
    3382 A    846  TIP4 H1   HW0      0.679100        1.0080           
    3383 A    846  TIP4 H2   HW0      0.679100        1.0080           
    3384 A    846  TIP4 BD1  LP0     -1.358200        0.0000           
    3385 A    847  TIP4 O1   OW0      0.000000       15.9990           
    3386 A    847  TIP4 H1   HW0      0.679100        1.0080           
    3387 A    847  TIP4 H2   HW0      0.679100        1.0080           
    3388 A    847  TIP4 BD1  LP0     -1.358200        0.0000           
    3389 A    848  TIP4 O1   OW0      0.000000       15.9990           
    3390 A    848  TIP4 H1   HW0      0.679100        1.0080           
    3391 A    848  TIP4 H2   HW0      0.679100        1.0080           
    3392 A    848  TIP4 BD1  LP0     -1.358200        0.0000           
    3393 A    849  TIP4 O1   OW0      0.000000       15.9990           
    3394 A    849  TIP4 H1   HW0      0.679100        1.0080           
    3395 A    849  TIP4 H2   HW0      0.679100        1.0080           
    3396 A    849  TIP4 BD1  LP0     -1.358200        0.0000           
    3397 A    850  TIP4 O1   OW0      0.000000       15.9990           
    3398 A    850  TIP4 H1   HW0      0.679100        1.0080           
    3399 A    850  TIP4 H2   HW0      0.679100        1.0080           
    3400 A    850  TIP4 BD1  LP0     -1.358200        0.0000           
    3401 A    851  TIP4 O1   OW0      0.000000       15.9990           
    3402 A    851  TIP4 H1   HW0      0.679100        1.0080           
    3403 A    851  TIP4 H2   HW0      0.679100        1.0080           
    3404 A    851  TIP4 BD1  LP0     -1.358200        0.0000           
    3405 A    852  TIP4 O1   OW0      0.000000       15.9990           
    3406 A    852  TIP4 H1   HW0      0.679100        1.0080           
    3407 A    852  TIP4 H2   HW0      0.679100        1.0080           
    3408 A    852  TIP4 BD1  LP0     -1.358200        0.0000           
    3409 A    853  TIP4 O1   OW0      0.000000       15.9990           
    3410 A    853  TIP4 H1   HW0      0.679100        1.0080           
    3411 A    853  TIP4 H2   HW0      0.679100        1.0080           
    3412 A    853  TIP4 BD1  LP0     -1.358200        0.0000           
    3413 A    854  TIP4 O1   OW0      0.000000       15.9990           
    3414 A    854  TIP4 H1   HW0      0.679100        1.0080           
    3415 A    854  TIP4 H2   HW0      0.679100        1.0080           
    3416 A    854  TIP4 BD1  LP0     -1.358200        0.0000           
    3417 A    855  TIP4 O1   OW0      0.000000       15.9990           
    3418 A    855  TIP4 H1   HW0      0.679100        1.0080           
    3419 A    855  TIP4 H2   HW0      0.679100        1.0080           
    3420 A    855  TIP4 BD1  LP0     -1.358200        0.0000           
    3421 A    856  TIP4 O1   OW0      0.000000       15.9990           
    3422 A    856  TIP4 H1   HW0      0.679100        1.0080           
    3423 A    856  TIP4 H2   HW0      0.679100        1.0080           
    3424 A    856  TIP4 BD1  LP0     -1.358200        0.0000           
    3425 A    857  TIP4 O1   OW0      0.000000       15.9990           
    3426 A    857  TIP4 H1   HW0      0.679100        1.0080           
    3427 A    857  TIP4 H2   HW0      0.679100        1.0080           
    3428 A    857  TIP4 BD1  LP0     -1.358200        0.0000           
    3429 A    858  TIP4 O1   OW0      0.000000       15.9990           
    3430 A    858  TIP4 H1   HW0      0.679100        1.0080           
    3431 A    858  TIP4 H2   HW0      0.679100        1.0080           
    3432 A    858  TIP4 BD1  LP0     -1.358200        0.0000           
    3433 A    859  TIP4 O1   OW0      0.000000       15.9990           
    3434 A    859  TIP4 H1   HW0      0.679100        1.0080           
    3435 A    859  TIP4 H2   HW0      0.679100        1.0080           
    3436 A    859  TIP4 BD1  LP0     -1.358200        0.0000           
    3437 A    860  TIP4 O1   OW0      0.000000       15.9990           
    3438 A    860  TIP4 H1   HW0      0.679100        1.0080           
    3439 A    860  TIP4 H2   HW0      0.679100        1.0080           
    3440 A    860  TIP4 BD1  LP0     -1.358200        0.0000           
    3441 A    861  TIP4 O1   OW0      0.000000       15.9990           
    3442 A    861  TIP4 H1   HW0      0.679100        1.0080           
    3443 A    861  TIP4 H2   HW0      0.679100        1.0080           
    3444 A    861  TIP4 BD1  LP0     -1.358200        0.0000           
    3445 A    862  TIP4 O1   OW0      0.000000       15.9990           
    3446 A    862  TIP4 H1   HW0      0.679100        1.0080           
    3447 A    862  TIP4 H2   HW0      0.679100        1.0080           
    3448 A    862  TIP4 BD1  LP0     -1.358200        0.0000           
    3449 A    863  TIP4 O1   OW0      0.000000       15.9990           
    3450 A    863  TIP4 H1   HW0      0.679100        1.0080           
    3451 A    863  TIP4 H2   HW0      0.679100        1.0080           
    3452 A    863  TIP4 BD1  LP0     -1.358200        0.0000           
    3453 A    864  TIP4 O1   OW0      0.000000       15.9990           
    3454 A    864  TIP4 H1   HW0      0.679100        1.0080           
    3455 A    864  TIP4 H2   HW0      0.679100        1.0080           
    3456 A    864  TIP4 BD1  LP0     -1.358200        0.0000           
    3457 A    865  TIP4 O1   OW0      0.000000       15.9990           
    3458 A    865  TIP4 H1   HW0      0.679100        1.0080           
    3459 A    865  TIP4 H2   HW0      0.679100        1.0080           
    3460 A    865  TIP4 BD1  LP0     -1.358200        0.0000           
    3461 A    866  TIP4 O1   OW0      0.000000       15.9990           
    3462 A    866  TIP4 H1   HW0      0.679100        1.0080           
    3463 A    866  TIP4 H2   HW0      0.679100        1.0080           
    3464 A    866  TIP4 BD1  LP0     -1.358200        0.0000           
    3465 A    867  TIP4 O1   OW0      0.000000       15.9990           
    3466 A    867  TIP4 H1   HW0      0.679100        1.0080           
    3467 A    867  TIP4 H2   HW0      0.679100        1.0080           
    3468 A    867  TIP4 BD1  LP0     -1.358200        0.0000           
    3469 A    868  TIP4 O1   OW0      0.000000       15.9990           
    3470 A    868  TIP4 H1   HW0      0.679100        1.0080           
    3471 A    868  TIP4 H2   HW0      0.679100        1.0080           
    3472 A    868  TIP4 BD1  LP0     -1.358200        0.0000           
    3473 A    869  TIP4 O1   OW0      0.000000       15.9990           
    3474 A    869  TIP4 H1   HW0      0.679100        1.0080           
    3475 A    869  TIP4 H2   HW0      0.679100        1.0080           
    3476 A    869  TIP4 BD1  LP0     -1.358200        0.0000           
    3477 A    870  TIP4 O1   OW0      0.000000       15.9990           
    3478 A    870  TIP4 H1   HW0      0.679100        1.0080           
    3479 A    870  TIP4 H2   HW0      0.679100        1.0080           
    3480 A    870  TIP4 BD1  LP0     -1.358200        0.0000           
    3481 A    871  TIP4 O1   OW0      0.000000       15.9990           
    3482 A    871  TIP4 H1   HW0      0.679100        1.0080           
    3483 A    871  TIP4 H2   HW0      0.679100        1.0080           
    3484 A    871  TIP4 BD1  LP0     -1.358200        0.0000           
    3485 A    872  TIP4 O1   OW0      0.000000       15.9990           
    3486 A    872  TIP4 H1   HW0      0.679100        1.0080           
    3487 A    872  TIP4 H2   HW0      0.679100        1.0080           
    3488 A    872  TIP4 BD1  LP0     -1.358200        0.0000           
    3489 A    873  TIP4 O1   OW0      0.000000       15.9990           
    3490 A    873  TIP4 H1   HW0      0.679100        1.0080           
    3491 A    873  TIP4 H2   HW0      0.679100        1.0080           
    3492 A    873  TIP4 BD1  LP0     -1.358200        0.0000           
    3493 A    874  TIP4 O1   OW0      0.000000       15.9990           
    3494 A    874  TIP4 H1   HW0      0.679100        1.0080           
    3495 A    874  TIP4 H2   HW0      0.679100        1.0080           
    3496 A    874  TIP4 BD1  LP0     -1.358200        0.0000           
    3497 A    875  TIP4 O1   OW0      0.000000       15.9990           
    3498 A    875  TIP4 H1   HW0      0.679100        1.0080           
    3499 A    875  TIP4 H2   HW0      0.679100        1.0080           
    3500 A    875  TIP4 BD1  LP0     -1.358200        0.0000           
    3501 A    876  TIP4 O1   OW0      0.000000       15.9990           
    3502 A    876  TIP4 H1   HW0      0.679100        1.0080           
    3503 A    876  TIP4 H2   HW0      0.679100        1.0080           
    3504 A    876  TIP4 BD1  LP0     -1.358200        0.0000           
    3505 A    877  TIP4 O1   OW0      0.000000       15.9990           
    3506 A    877  TIP4 H1   HW0      0.679100        1.0080           
    3507 A    877  TIP4 H2   HW0      0.679100        1.0080           
    3508 A    877  TIP4 BD1  LP0     -1.358200        0.0000           
    3509 A    878  TIP4 O1   OW0      0.000000       15.9990           
    3510 A    878  TIP4 H1   HW0      0.679100        1.0080           
    3511 A    878  TIP4 H2   HW0      0.679100        1.0080           
    3512 A    878  TIP4 BD1  LP0     -1.358200        0.0000           
    3513 A    879  TIP4 O1   OW0      0.000000       15.9990           
    3514 A    879  TIP4 H1   HW0      0.679100        1.0080           
    3515 A    879  TIP4 H2   HW0      0.679100        1.0080           
    3516 A    879  TIP4 BD1  LP0     -1.358200        0.0000           
    3517 A    880  TIP4 O1   OW0      0.000000       15.9990           
    3518 A    880  TIP4 H1   HW0      0.679100        1.0080           
    3519 A    880  TIP4 H2   HW0      0.679100        1.0080           
    3520 A    880  TIP4 BD1  LP0     -1.358200        0.0000           
    3521 A    881  TIP4 O1   OW0      0.000000       15.9990           
    3522 A    881  TIP4 H1   HW0      0.679100        1.0080           
    3523 A    881  TIP4 H2   HW0      0.679100        1.0080           
    3524 A    881  TIP4 BD1  LP0     -1.358200        0.0000           
    3525 A    882  TIP4 O1   OW0      0.000000       15.9990           
    3526 A    882  TIP4 H1   HW0      0.679100        1.0080           
    3527 A    882  TIP4 H2   HW0      0.679100        1.0080           
    3528 A    882  TIP4 BD1  LP0     -1.358200        0.0000           
    3529 A    883  TIP4 O1   OW0      0.000000       15.9990           
    3530 A    883  TIP4 H1   HW0      0.679100        1.0080           
    3531 A    883  TIP4 H2   HW0      0.679100        1.0080           
    3532 A    883  TIP4 BD1  LP0     -1.358200        0.0000           
    3533 A    884  TIP4 O1   OW0      0.000000       15.9990           
    3534 A    884  TIP4 H1   HW0      0.679100        1.0080           
    3535 A    884  TIP4 H2   HW0      0.679100        1.0080           
    3536 A    884  TIP4 BD1  LP0     -1.358200        0.0000           
    3537 A    885  TIP4 O1   OW0      0.000000       15.9990           
    3538 A    885  TIP4 H1   HW0      0.679100        1.0080           
    3539 A    885  TIP4 H2   HW0      0.679100        1.0080           
    3540 A    885  TIP4 BD1  LP0     -1.358200        0.0000           
    3541 A    886  TIP4 O1   OW0      0.000000       15.9990           
    3542 A    886  TIP4 H1   HW0      0.679100        1.0080           
    3543 A    886  TIP4 H2   HW0      0.679100        1.0080           
    3544 A    886  TIP4 BD1  LP0     -1.358200        0.0000           
    3545 A    887  TIP4 O1   OW0      0.000000       15.9990           
    3546 A    887  TIP4 H1   HW0      0.679100        1.0080           
    3547 A    887  TIP4 H2   HW0      0.679100        1.0080           
    3548 A    887  TIP4 BD1  LP0     -1.358200        0.0000           
    3549 A    888  TIP4 O1   OW0      0.000000       15.9990           
    3550 A    888  TIP4 H1   HW0      0.679100        1.0080           
    3551 A    888  TIP4 H2   HW0      0.679100        1.0080           
    3552 A    888  TIP4 BD1  LP0     -1.358200        0.0000           
    3553 A    889  TIP4 O1   OW0      0.000000       15.9990           
    3554 A    889  TIP4 H1   HW0      0.679100        1.0080           
    3555 A    889  TIP4 H2   HW0      0.679100        1.0080           
    3556 A    889  TIP4 BD1  LP0     -1.358200        0.0000           
    3557 A    890  TIP4 O1   OW0      0.000000       15.9990           
    3558 A    890  TIP4 H1   HW0      0.679100        1.0080           
    3559 A    890  TIP4 H2   HW0      0.679100        1.0080           
    3560 A    890  TIP4 BD1  LP0     -1.358200        0.0000           
    3561 A    891  TIP4 O1   OW0      0.000000       15.9990           
    3562 A    891  TIP4 H1   HW0      0.679100        1.0080           
    3563 A    891  TIP4 H2   HW0      0.679100        1.0080           
    3564 A    891  TIP4 BD1  LP0     -1.358200        0.0000           
    3565 A    892  TIP4 O1   OW0      0.000000       15.9990           
    3566 A    892  TIP4 H1   HW0      0.679100        1.0080           
    3567 A    892  TIP4 H2   HW0      0.679100        1.0080           
    3568 A    892  TIP4 BD1  LP0     -1.358200        0.0000           
    3569 A    893  TIP4 O1   OW0      0.000000       15.9990           
    3570 A    893  TIP4 H1   HW0      0.679100        1.0080           
    3571 A    893  TIP4 H2   HW0      0.679100        1.0080           
    3572 A    893  TIP4 BD1  LP0     -1.358200        0.0000           
    3573 A    894  TIP4 O1   OW0      0.000000       15.9990           
    3574 A    894  TIP4 H1   HW0      0.679100        1.0080           
    3575 A    894  TIP4 H2   HW0      0.679100        1.0080           
    3576 A    894  TIP4 BD1  LP0     -1.358200        0.0000           
    3577 A    895  TIP4 O1   OW0      0.000000       15.9990           
    3578 A    895  TIP4 H1   HW0      0.679100        1.0080           
    3579 A    895  TIP4 H2   HW0      0.679100        1.0080           
    3580 A    895  TIP4 BD1  LP0     -1.358200        0.0000           
    3581 A    896  TIP4 O1   OW0      0.000000       15.9990           
    3582 A    896  TIP4 H1   HW0      0.679100        1.0080           
    3583 A    896  TIP4 H2   HW0      0.679100        1.0080           
    3584 A    896  TIP4 BD1  LP0     -1.358200        0.0000           
    3585 A    897  TIP4 O1   OW0      0.000000       15.9990           
    3586 A    897  TIP4 H1   HW0      0.679100        1.0080           
    3587 A    897  TIP4 H2   HW0      0.679100        1.0080           
    3588 A    897  TIP4 BD1  LP0     -1.358200        0.0000           
    3589 A    898  TIP4 O1   OW0      0.000000       15.9990           
    3590 A    898  TIP4 H1   HW0      0.679100        1.0080           
    3591 A    898  TIP4 H2   HW0      0.679100        1.0080           
    3592 A    898  TIP4 BD1  LP0     -1.358200        0.0000           
    3593 A    899  TIP4 O1   OW0      0.000000       15.9990           
    3594 A    899  TIP4 H1   HW0      0.679100        1.0080           
    3595 A    899  TIP4 H2   HW0      0.679100        1.0080           
    3596 A    899  TIP4 BD1  LP0     -1.358200        0.0000           
    3597 A    900  TIP4 O1   OW0      0.000000       15.9990           
    3598 A    900  TIP4 H1   HW0      0.679100        1.0080           
    3599 A    900  TIP4 H2   HW0      0.679100        1.0080           
    3600 A    900  TIP4 BD1  LP0     -1.358200        0.0000           
    3601 A    901  TIP4 O1   OW0      0.000000       15.9990           
    3602 A    901  TIP4 H1   HW0      0.679100        1.0080           
    3603 A    901  TIP4 H2   HW0      0.679100        1.0080           
    3604 A    901  TIP4 BD1  LP0     -1.358200        0.0000           
    3605 A    902  TIP4 O1   OW0      0.000000       15.9990           
    3606 A    902  TIP4 H1   HW0      0.679100        1.0080           
    3607 A    902  TIP4 H2   HW0      0.679100        1.0080           
    3608 A    902  TIP4 BD1  LP0     -1.358200        0.0000           
    3609 A    903  TIP4 O1   OW0      0.000000       15.9990           
    3610 A    903  TIP4 H1   HW0      0.679100        1.0080           
    3611 A    903  TIP4 H2   HW0      0.679100        1.0080           
    3612 A    903  TIP4 BD1  LP0     -1.358200        0.0000           
    3613 A    904  TIP4 O1   OW0      0.000000       15.9990           
    3614 A    904  TIP4 H1   HW0      0.679100        1.0080           
    3615 A    904  TIP4 H2   HW0      0.679100        1.0080           
    3616 A    904  TIP4 BD1  LP0     -1.358200        0.0000           
    3617 A    905  TIP4 O1   OW0      0.000000       15.9990           
    3618 A    905  TIP4 H1   HW0      0.679100        1.0080           
    3619 A    905  TIP4 H2   HW0      0.679100        1.0080           
    3620 A    905  TIP4 BD1  LP0     -1.358200        0.0000           
    3621 A    906  TIP4 O1   OW0      0.000000       15.9990           
    3622 A    906  TIP4 H1   HW0      0.679100        1.0080           
    3623 A    906  TIP4 H2   HW0      0.679100        1.0080           
    3624 A    906  TIP4 BD1  LP0     -1.358200        0.0000           
    3625 A    907  TIP4 O1   OW0      0.000000       15.9990           
    3626 A    907  TIP4 H1   HW0      0.679100        1.0080           
    3627 A    907  TIP4 H2   HW0      0.679100        1.0080           
    3628 A    907  TIP4 BD1  LP0     -1.358200        0.0000           
    3629 A    908  TIP4 O1   OW0      0.000000       15.9990           
    3630 A    908  TIP4 H1   HW0      0.679100        1.0080           
    3631 A    908  TIP4 H2   HW0      0.679100        1.0080           
    3632 A    908  TIP4 BD1  LP0     -1.358200        0.0000           
    3633 A    909  TIP4 O1   OW0      0.000000       15.9990           
    3634 A    909  TIP4 H1   HW0      0.679100        1.0080           
    3635 A    909  TIP4 H2   HW0      0.679100        1.0080           
    3636 A    909  TIP4 BD1  LP0     -1.358200        0.0000           
    3637 A    910  TIP4 O1   OW0      0.000000       15.9990           
    3638 A    910  TIP4 H1   HW0      0.679100        1.0080           
    3639 A    910  TIP4 H2   HW0      0.679100        1.0080           
    3640 A    910  TIP4 BD1  LP0     -1.358200        0.0000           
    3641 A    911  TIP4 O1   OW0      0.000000       15.9990           
    3642 A    911  TIP4 H1   HW0      0.679100        1.0080           
    3643 A    911  TIP4 H2   HW0      0.679100        1.0080           
    3644 A    911  TIP4 BD1  LP0     -1.358200        0.0000           
    3645 A    912  TIP4 O1   OW0      0.000000       15.9990           
    3646 A    912  TIP4 H1   HW0      0.679100        1.0080           
    3647 A    912  TIP4 H2   HW0      0.679100        1.0080           
    3648 A    912  TIP4 BD1  LP0     -1.358200        0.0000           
    3649 A    913  TIP4 O1   OW0      0.000000       15.9990           
    3650 A    913  TIP4 H1   HW0      0.679100        1.0080           
    3651 A    913  TIP4 H2   HW0      0.679100        1.0080           
    3652 A    913  TIP4 BD1  LP0     -1.358200        0.0000           
    3653 A    914  TIP4 O1   OW0      0.000000       15.9990           
    3654 A    914  TIP4 H1   HW0      0.679100        1.0080           
    3655 A    914  TIP4 H2   HW0      0.679100        1.0080           
    3656 A    914  TIP4 BD1  LP0     -1.358200        0.0000           
    3657 A    915  TIP4 O1   OW0      0.000000       15.9990           
    3658 A    915  TIP4 H1   HW0      0.679100        1.0080           
    3659 A    915  TIP4 H2   HW0      0.679100        1.0080           
    3660 A    915  TIP4 BD1  LP0     -1.358200        0.0000           
    3661 A    916  TIP4 O1   OW0      0.000000       15.9990           
    3662 A    916  TIP4 H1   HW0      0.679100        1.0080           
    3663 A    916  TIP4 H2   HW0      0.679100        1.0080           
    3664 A    916  TIP4 BD1  LP0     -1.358200        0.0000           
    3665 A    917  TIP4 O1   OW0      0.000000       15.9990           
    3666 A    917  TIP4 H1   HW0      0.679100        1.0080           
    3667 A    917  TIP4 H2   HW0      0.679100        1.0080           
    3668 A    917  TIP4 BD1  LP0     -1.358200        0.0000           
    3669 A    918  TIP4 O1   OW0      0.000000       15.9990           
    3670 A    918  TIP4 H1   HW0      0.679100        1.0080           
    3671 A    918  TIP4 H2   HW0      0.679100        1.0080           
    3672 A    918  TIP4 BD1  LP0     -1.358200        0.0000           
    3673 A    919  TIP4 O1   OW0      0.000000       15.9990           
    3674 A    919  TIP4 H1   HW0      0.679100        1.0080           
    3675 A    919  TIP4 H2   HW0      0.679100        1.0080           
    3676 A    919  TIP4 BD1  LP0     -1.358200        0.0000           
    3677 A    920  TIP4 O1   OW0      0.000000       15.9990           
    3678 A    920  TIP4 H1   HW0      0.679100        1.0080           
    3679 A    920  TIP4 H2   HW0      0.679100        1.0080           
    3680 A    920  TIP4 BD1  LP0     -1.358200        0.0000           
    3681 A    921  TIP4 O1   OW0      0.000000       15.9990           
    3682 A    921  TIP4 H1   HW0      0.679100        1.0080           
    3683 A    921  TIP4 H2   HW0      0.679100        1.0080           
    3684 A    921  TIP4 BD1  LP0     -1.358200        0.0000           
    3685 A    922  TIP4 O1   OW0      0.000000       15.9990           
    3686 A    922  TIP4 H1   HW0      0.679100        1.0080           
    3687 A    922  TIP4 H2   HW0      0.679100        1.0080           
    3688 A    922  TIP4 BD1  LP0     -1.358200        0.0000           
    3689 A    923  TIP4 O1   OW0      0.000000       15.9990           
    3690 A    923  TIP4 H1   HW0      0.679100        1.0080           
    3691 A    923  TIP4 H2   HW0      0.679100        1.0080           
    3692 A    923  TIP4 BD1  LP0     -1.358200        0.0000           
    3693 A    924  TIP4 O1   OW0      0.000000       15.9990           
    3694 A    924  TIP4 H1   HW0      0.679100        1.0080           
    3695 A    924  TIP4 H2   HW0      0.679100        1.0080           
    3696 A    924  TIP4 BD1  LP0     -1.358200        0.0000           
    3697 A    925  TIP4 O1   OW0      0.000000       15.9990           
    3698 A    925  TIP4 H1   HW0      0.679100        1.0080           
    3699 A    925  TIP4 H2   HW0      0.679100        1.0080           
    3700 A    925  TIP4 BD1  LP0     -1.358200        0.0000           
    3701 A    926  TIP4 O1   OW0      0.000000       15.9990           
    3702 A    926  TIP4 H1   HW0      0.679100        1.0080           
    3703 A    926  TIP4 H2   HW0      0.679100        1.0080           
    3704 A    926  TIP4 BD1  LP0     -1.358200        0.0000           
    3705 A    927  TIP4 O1   OW0      0.000000       15.9990           
    3706 A    927  TIP4 H1   HW0      0.679100        1.0080           
    3707 A    927  TIP4 H2   HW0      0.679100        1.0080           
    3708 A    927  TIP4 BD1  LP0     -1.358200        0.0000           
    3709 A    928  TIP4 O1   OW0      0.000000       15.9990           
    3710 A    928  TIP4 H1   HW0      0.679100        1.0080           
    3711 A    928  TIP4 H2   HW0      0.679100        1.0080           
    3712 A    928  TIP4 BD1  LP0     -1.358200        0.0000           
    3713 A    929  TIP4 O1   OW0      0.000000       15.9990           
    3714 A    929  TIP4 H1   HW0      0.679100        1.0080           
    3715 A    929  TIP4 H2   HW0      0.679100        1.0080           
    3716 A    929  TIP4 BD1  LP0     -1.358200        0.0000           
    3717 A    930  TIP4 O1   OW0      0.000000       15.9990           
    3718 A    930  TIP4 H1   HW0      0.679100        1.0080           
    3719 A    930  TIP4 H2   HW0      0.679100        1.0080           
    3720 A    930  TIP4 BD1  LP0     -1.358200        0.0000           
    3721 A    931  TIP4 O1   OW0      0.000000       15.9990           
    3722 A    931  TIP4 H1   HW0      0.679100        1.0080           
    3723 A    931  TIP4 H2   HW0      0.679100        1.0080           
    3724 A    931  TIP4 BD1  LP0     -1.358200        0.0000           
    3725 A    932  TIP4 O1   OW0      0.000000       15.9990           
    3726 A    932  TIP4 H1   HW0      0.679100        1.0080           
    3727 A    932  TIP4 H2   HW0      0.679100        1.0080           
    3728 A    932  TIP4 BD1  LP0     -1.358200        0.0000           
    3729 A    933  TIP4 O1   OW0      0.000000       15.9990           
    3730 A    933  TIP4 H1   HW0      0.679100        1.0080           
    3731 A    933  TIP4 H2   HW0      0.679100        1.0080           
    3732 A    933  TIP4 BD1  LP0     -1.358200        0.0000           
    3733 A    934  TIP4 O1   OW0      0.000000       15.9990           
    3734 A    934  TIP4 H1   HW0      0.679100        1.0080           
    3735 A    934  TIP4 H2   HW0      0.679100        1.0080           
    3736 A    934  TIP4 BD1  LP0     -1.358200        0.0000           
    3737 A    935  TIP4 O1   OW0      0.000000       15.9990           
    3738 A    935  TIP4 H1   HW0      0.679100        1.0080           
    3739 A    935  TIP4 H2   HW0      0.679100        1.0080           
    3740 A    935  TIP4 BD1  LP0     -1.358200        0.0000           
    3741 A    936  TIP4 O1   OW0      0.000000       15.9990           
    3742 A    936  TIP4 H1   HW0      0.679100        1.0080           
    3743 A    936  TIP4 H2   HW0      0.679100        1.0080           
    3744 A    936  TIP4 BD1  LP0     -1.358200        0.0000           
    3745 A    937  TIP4 O1   OW0      0.000000       15.9990           
    3746 A    937  TIP4 H1   HW0      0.679100        1.0080           
    3747 A    937  TIP4 H2   HW0      0.679100        1.0080           
    3748 A    937  TIP4 BD1  LP0     -1.358200        0.0000           
    3749 A    938  TIP4 O1   OW0      0.000000       15.9990           
    3750 A    938  TIP4 H1   HW0      0.679100        1.0080           
    3751 A    938  TIP4 H2   HW0      0.679100        1.0080           
    3752 A    938  TIP4 BD1  LP0     -1.358200        0.0000           
    3753 A    939  TIP4 O1   OW0      0.000000       15.9990           
    3754 A    939  TIP4 H1   HW0      0.679100        1.0080           
    3755 A    939  TIP4 H2   HW0      0.679100        1.0080           
    3756 A    939  TIP4 BD1  LP0     -1.358200        0.0000           
    3757 A    940  TIP4 O1   OW0      0.000000       15.9990           
    3758 A    940  TIP4 H1   HW0      0.679100        1.0080           
    3759 A    940  TIP4 H2   HW0      0.679100        1.0080           
    3760 A    940  TIP4 BD1  LP0     -1.358200        0.0000           
    3761 A    941  TIP4 O1   OW0      0.000000       15.9990           
    3762 A    941  TIP4 H1   HW0      0.679100        1.0080           
    3763 A    941  TIP4 H2   HW0      0.679100        1.0080           
    3764 A    941  TIP4 BD1  LP0     -1.358200        0.0000           
    3765 A    942  TIP4 O1   OW0      0.000000       15.9990           
    3766 A    942  TIP4 H1   HW0      0.679100        1.0080           
    3767 A    942  TIP4 H2   HW0      0.679100        1.0080           
    3768 A    942  TIP4 BD1  LP0     -1.358200        0.0000           
    3769 A    943  TIP4 O1   OW0      0.000000       15.9990           
    3770 A    943  TIP4 H1   HW0      0.679100        1.0080           
    3771 A    943  TIP4 H2   HW0      0.679100        1.0080           
    3772 A    943  TIP4 BD1  LP0     -1.358200        0.0000           
    3773 A    944  TIP4 O1   OW0      0.000000       15.9990           
    3774 A    944  TIP4 H1   HW0      0.679100        1.0080           
    3775 A    944  TIP4 H2   HW0      0.679100        1.0080           
    3776 A    944  TIP4 BD1  LP0     -1.358200        0.0000           
    3777 A    945  TIP4 O1   OW0      0.000000       15.9990           
    3778 A    945  TIP4 H1   HW0      0.679100        1.0080           
    3779 A    945  TIP4 H2   HW0      0.679100        1.0080           
    3780 A    945  TIP4 BD1  LP0     -1.358200        0.0000           
    3781 A    946  TIP4 O1   OW0      0.000000       15.9990           
    3782 A    946  TIP4 H1   HW0      0.679100        1.0080           
    3783 A    946  TIP4 H2   HW0      0.679100        1.0080           
    3784 A    946  TIP4 BD1  LP0     -1.358200        0.0000           
    3785 A    947  TIP4 O1   OW0      0.000000       15.9990           
    3786 A    947  TIP4 H1   HW0      0.679100        1.0080           
    3787 A    947  TIP4 H2   HW0      0.679100        1.0080           
    3788 A    947  TIP4 BD1  LP0     -1.358200        0.0000           
    3789 A    948  TIP4 O1   OW0      0.000000       15.9990           
    3790 A    948  TIP4 H1   HW0      0.679100        1.0080           
    3791 A    948  TIP4 H2   HW0      0.679100        1.0080           
    3792 A    948  TIP4 BD1  LP0     -1.358200        0.0000           
    3793 A    949  TIP4 O1   OW0      0.000000       15.9990           
    3794 A    949  TIP4 H1   HW0      0.679100        1.0080           
    3795 A    949  TIP4 H2   HW0      0.679100        1.0080           
    3796 A    949  TIP4 BD1  LP0     -1.358200        0.0000           
    3797 A    950  TIP4 O1   OW0      0.000000       15.9990           
    3798 A    950  TIP4 H1   HW0      0.679100        1.0080           
    3799 A    950  TIP4 H2   HW0      0.679100        1.0080           
    3800 A    950  TIP4 BD1  LP0     -1.358200        0.0000           
    3801 A    951  TIP4 O1   OW0      0.000000       15.9990           
    3802 A    951  TIP4 H1   HW0      0.679100        1.0080           
    3803 A    951  TIP4 H2   HW0      0.679100        1.0080           
    3804 A    951  TIP4 BD1  LP0     -1.358200        0.0000           
    3805 A    952  TIP4 O1   OW0      0.000000       15.9990           
    3806 A    952  TIP4 H1   HW0      0.679100        1.0080           
    3807 A    952  TIP4 H2   HW0      0.679100        1.0080           
    3808 A    952  TIP4 BD1  LP0     -1.358200        0.0000           
    3809 A    953  TIP4 O1   OW0      0.000000       15.9990           
    3810 A    953  TIP4 H1   HW0      0.679100        1.0080           
    3811 A    953  TIP4 H2   HW0      0.679100        1.0080           
    3812 A    953  TIP4 BD1  LP0     -1.358200        0.0000           
    3813 A    954  TIP4 O1   OW0      0.000000       15.9990           
    3814 A    954  TIP4 H1   HW0      0.679100        1.0080           
    3815 A    954  TIP4 H2   HW0      0.679100        1.0080           
    3816 A    954  TIP4 BD1  LP0     -1.358200        0.0000           
    3817 A    955  TIP4 O1   OW0      0.000000       15.9990           
    3818 A    955  TIP4 H1   HW0      0.679100        1.0080           
    3819 A    955  TIP4 H2   HW0      0.679100        1.0080           
    3820 A    955  TIP4 BD1  LP0     -1.358200        0.0000           
    3821 A    956  TIP4 O1   OW0      0.000000       15.9990           
    3822 A    956  TIP4 H1   HW0      0.679100        1.0080           
    3823 A    956  TIP4 H2   HW0      0.679100        1.0080           
    3824 A    956  TIP4 BD1  LP0     -1.358200        0.0000           
    3825 A    957  TIP4 O1   OW0      0.000000       15.9990           
    3826 A    957  TIP4 H1   HW0      0.679100        1.0080           
    3827 A    957  TIP4 H2   HW0      0.679100        1.0080           
    3828 A    957  TIP4 BD1  LP0     -1.358200        0.0000           
    3829 A    958  TIP4 O1   OW0      0.000000       15.9990           
    3830 A    958  TIP4 H1   HW0      0.679100        1.0080           
    3831 A    958  TIP4 H2   HW0      0.679100        1.0080           
    3832 A    958  TIP4 BD1  LP0     -1.358200        0.0000           
    3833 A    959  TIP4 O1   OW0      0.000000       15.9990           
    3834 A    959  TIP4 H1   HW0      0.679100        1.0080           
    3835 A    959  TIP4 H2   HW0      0.679100        1.0080           
    3836 A    959  TIP4 BD1  LP0     -1.358200        0.0000           
    3837 A    960  TIP4 O1   OW0      0.000000       15.9990           
    3838 A    960  TIP4 H1   HW0      0.679100        1.0080           
    3839 A    960  TIP4 H2   HW0      0.679100        1.0080           
    3840 A    960  TIP4 BD1  LP0     -1.358200        0.0000           
    3841 A    961  TIP4 O1   OW0      0.000000       15.9990           
    3842 A    961  TIP4 H1   HW0      0.679100        1.0080           
    3843 A    961  TIP4 H2   HW0      0.679100        1.0080           
    3844 A    961  TIP4 BD1  LP0     -1.358200        0.0000           
    3845 A    962  TIP4 O1   OW0      0.000000       15.9990           
    3846 A    962  TIP4 H1   HW0      0.679100        1.0080           
    3847 A    962  TIP4 H2   HW0      0.679100        1.0080           
    3848 A    962  TIP4 BD1  LP0     -1.358200        0.0000           
    3849 A    963  TIP4 O1   OW0      0.000000       15.9990           
    3850 A    963  TIP4 H1   HW0      0.679100        1.0080           
    3851 A    963  TIP4 H2   HW0      0.679100        1.0080           
    3852 A    963  TIP4 BD1  LP0     -1.358200        0.0000           
    3853 A    964  TIP4 O1   OW0      0.000000       15.9990           
    3854 A    964  TIP4 H1   HW0      0.679100        1.0080           
    3855 A    964  TIP4 H2   HW0      0.679100        1.0080           
    3856 A    964  TIP4 BD1  LP0     -1.358200        0.0000           
    3857 A    965  TIP4 O1   OW0      0.000000       15.9990           
    3858 A    965  TIP4 H1   HW0      0.679100        1.0080           
    3859 A    965  TIP4 H2   HW0      0.679100        1.0080           
    3860 A    965  TIP4 BD1  LP0     -1.358200        0.0000           
    3861 A    966  TIP4 O1   OW0      0.000000       15.9990           
    3862 A    966  TIP4 H1   HW0      0.679100        1.0080           
    3863 A    966  TIP4 H2   HW0      0.679100        1.0080           
    3864 A    966  TIP4 BD1  LP0     -1.358200        0.0000           
    3865 A    967  TIP4 O1   OW0      0.000000       15.9990           
    3866 A    967  TIP4 H1   HW0      0.679100        1.0080           
    3867 A    967  TIP4 H2   HW0      0.679100        1.0080           
    3868 A    967  TIP4 BD1  LP0     -1.358200        0.0000           
    3869 A    968  TIP4 O1   OW0      0.000000       15.9990           
    3870 A    968  TIP4 H1   HW0      0.679100        1.0080           
    3871 A    968  TIP4 H2   HW0      0.679100        1.0080           
    3872 A    968  TIP4 BD1  LP0     -1.358200        0.0000           
    3873 A    969  TIP4 O1   OW0      0.000000       15.9990           
    3874 A    969  TIP4 H1   HW0      0.679100        1.0080           
    3875 A    969  TIP4 H2   HW0      0.679100        1.0080           
    3876 A    969  TIP4 BD1  LP0     -1.358200        0.0000           
    3877 A    970  TIP4 O1   OW0      0.000000       15.9990           
    3878 A    970  TIP4 H1   HW0      0.679100        1.0080           
    3879 A    970  TIP4 H2   HW0      0.679100        1.0080           
    3880 A    970  TIP4 BD1  LP0     -1.358200        0.0000           
    3881 A    971  TIP4 O1   OW0      0.000000       15.9990           
    3882 A    971  TIP4 H1   HW0      0.679100        1.0080           
    3883 A    971  TIP4 H2   HW0      0.679100        1.0080           
    3884 A    971  TIP4 BD1  LP0     -1.358200        0.0000           
    3885 A    972  TIP4 O1   OW0      0.000000       15.9990           
    3886 A    972  TIP4 H1   HW0      0.679100        1.0080           
    3887 A    972  TIP4 H2   HW0      0.679100        1.0080           
    3888 A    972  TIP4 BD1  LP0     -1.358200        0.0000           
    3889 A    973  TIP4 O1   OW0      0.000000       15.9990           
    3890 A    973  TIP4 H1   HW0      0.679100        1.0080           
    3891 A    973  TIP4 H2   HW0      0.679100        1.0080           
    3892 A    973  TIP4 BD1  LP0     -1.358200        0.0000           
    3893 A    974  TIP4 O1   OW0      0.000000       15.9990           
    3894 A    974  TIP4 H1   HW0      0.679100        1.0080           
    3895 A    974  TIP4 H2   HW0      0.679100        1.0080           
    3896 A    974  TIP4 BD1  LP0     -1.358200        0.0000           
    3897 A    975  TIP4 O1   OW0      0.000000       15.9990           
    3898 A    975  TIP4 H1   HW0      0.679100        1.0080           
    3899 A    975  TIP4 H2   HW0      0.679100        1.0080           
    3900 A    975  TIP4 BD1  LP0     -1.358200        0.0000           
    3901 A    976  TIP4 O1   OW0      0.000000       15.9990           
    3902 A    976  TIP4 H1   HW0      0.679100        1.0080           
    3903 A    976  TIP4 H2   HW0      0.679100        1.0080           
    3904 A    976  TIP4 BD1  LP0     -1.358200        0.0000           
    3905 A    977  TIP4 O1   OW0      0.000000       15.9990           
    3906 A    977  TIP4 H1   HW0      0.679100        1.0080           
    3907 A    977  TIP4 H2   HW0      0.679100        1.0080           
    3908 A    977  TIP4 BD1  LP0     -1.358200        0.0000           
    3909 A    978  TIP4 O1   OW0      0.000000       15.9990           
    3910 A    978  TIP4 H1   HW0      0.679100        1.0080           
    3911 A    978  TIP4 H2   HW0      0.679100        1.0080           
    3912 A    978  TIP4 BD1  LP0     -1.358200        0.0000           
    3913 A    979  TIP4 O1   OW0      0.000000       15.9990           
    3914 A    979  TIP4 H1   HW0      0.679100        1.0080           
    3915 A    979  TIP4 H2   HW0      0.679100        1.0080           
    3916 A    979  TIP4 BD1  LP0     -1.358200        0.0000           
    3917 A    980  TIP4 O1   OW0      0.000000       15.9990           
    3918 A    980  TIP4 H1   HW0      0.679100        1.0080           
    3919 A    980  TIP4 H2   HW0      0.679100        1.0080           
    3920 A    980  TIP4 BD1  LP0     -1.358200        0.0000           
    3921 A    981  TIP4 O1   OW0      0.000000       15.9990           
    3922 A    981  TIP4 H1   HW0      0.679100        1.0080           
    3923 A    981  TIP4 H2   HW0      0.679100        1.0080           
    3924 A    981  TIP4 BD1  LP0     -1.358200        0.0000           
    3925 A    982  TIP4 O1   OW0      0.000000       15.9990           
    3926 A    982  TIP4 H1   HW0      0.679100        1.0080           
    3927 A    982  TIP4 H2   HW0      0.679100        1.0080           
    3928 A    982  TIP4 BD1  LP0     -1.358200        0.0000           
    3929 A    983  TIP4 O1   OW0      0.000000       15.9990           
    3930 A    983  TIP4 H1   HW0      0.679100        1.0080           
    3931 A    983  TIP4 H2   HW0      0.679100        1.0080           
    3932 A    983  TIP4 BD1  LP0     -1.358200        0.0000           
    3933 A    984  TIP4 O1   OW0      0.000000       15.9990           
    3934 A    984  TIP4 H1   HW0      0.679100        1.0080           
    3935 A    984  TIP4 H2   HW0      0.679100        1.0080           
    3936 A    984  TIP4 BD1  LP0     -1.358200        0.0000           
    3937 A    985  TIP4 O1   OW0      0.000000       15.9990           
    3938 A    985  TIP4 H1   HW0      0.679100        1.0080           
    3939 A    985  TIP4 H2   HW0      0.679100        1.0080           
    3940 A    985  TIP4 BD1  LP0     -1.358200        0.0000           
    3941 A    986  TIP4 O1   OW0      0.000000       15.9990           
    3942 A    986  TIP4 H1   HW0      0.679100        1.0080           
    3943 A    986  TIP4 H2   HW0      0.679100        1.0080           
    3944 A    986  TIP4 BD1  LP0     -1.358200        0.0000           
    3945 A    987  TIP4 O1   OW0      0.000000       15.9990           
    3946 A    987  TIP4 H1   HW0      0.679100        1.0080           
    3947 A    987  TIP4 H2   HW0      0.679100        1.0080           
    3948 A    987  TIP4 BD1  LP0     -1.358200        0.0000           
    3949 A    988  TIP4 O1   OW0      0.000000       15.9990           
    3950 A    988  TIP4 H1   HW0      0.679100        1.0080           
    3951 A    988  TIP4 H2   HW0      0.679100        1.0080           
    3952 A    988  TIP4 BD1  LP0     -1.358200        0.0000           
    3953 A    989  TIP4 O1   OW0      0.000000       15.9990           
    3954 A    989  TIP4 H1   HW0      0.679100        1.0080           
    3955 A    989  TIP4 H2   HW0      0.679100        1.0080           
    3956 A    989  TIP4 BD1  LP0     -1.358200        0.0000           
    3957 A    990  TIP4 O1   OW0      0.000000       15.9990           
    3958 A    990  TIP4 H1   HW0      0.679100        1.0080           
    3959 A    990  TIP4 H2   HW0      0.679100        1.0080           
    3960 A    990  TIP4 BD1  LP0     -1.358200        0.0000           
    3961 A    991  TIP4 O1   OW0      0.000000       15.9990           
    3962 A    991  TIP4 H1   HW0      0.679100        1.0080           
    3963 A    991  TIP4 H2   HW0      0.679100        1.0080           
    3964 A    991  TIP4 BD1  LP0     -1.358200        0.0000           
    3965 A    992  TIP4 O1   OW0      0.000000       15.9990           
    3966 A    992  TIP4 H1   HW0      0.679100        1.0080           
    3967 A    992  TIP4 H2   HW0      0.679100        1.0080           
    3968 A    992  TIP4 BD1  LP0     -1.358200        0.0000           
    3969 A    993  TIP4 O1   OW0      0.000000       15.9990           
    3970 A    993  TIP4 H1   HW0      0.679100        1.0080           
    3971 A    993  TIP4 H2   HW0      0.679100        1.0080           
    3972 A    993  TIP4 BD1  LP0     -1.358200        0.0000           
    3973 A    994  TIP4 O1   OW0      0.000000       15.9990           
    3974 A    994  TIP4 H1   HW0      0.679100        1.0080           
    3975 A    994  TIP4 H2   HW0      0.679100        1.0080           
    3976 A    994  TIP4 BD1  LP0     -1.358200        0.0000           
    3977 A    995  TIP4 O1   OW0      0.000000       15.9990           
    3978 A    995  TIP4 H1   HW0      0.679100        1.0080           
    3979 A    995  TIP4 H2   HW0      0.679100        1.0080           
    3980 A    995  TIP4 BD1  LP0     -1.358200        0.0000           
    3981 A    996  TIP4 O1   OW0      0.000000       15.9990           
    3982 A    996  TIP4 H1   HW0      0.679100        1.0080           
    3983 A    996  TIP4 H2   HW0      0.679100        1.0080           
    3984 A    996  TIP4 BD1  LP0     -1.358200        0.0000           
    3985 A    997  TIP4 O1   OW0      0.000000       15.9990           
    3986 A    997  TIP4 H1   HW0      0.679100        1.0080           
    3987 A    997  TIP4 H2   HW0      0.679100        1.0080           
    3988 A    997  TIP4 BD1  LP0     -1.358200        0.0000           
    3989 A    998  TIP4 O1   OW0      0.000000       15.9990           
    3990 A    998  TIP4 H1   HW0      0.679100        1.0080           
    3991 A    998  TIP4 H2   HW0      0.679100        1.0080           
    3992 A    998  TIP4 BD1  LP0     -1.358200        0.0000           
    3993 A    999  TIP4 O1   OW0      0.000000       15.9990           
    3994 A    999  TIP4 H1   HW0      0.679100        1.0080           
    3995 A    999  TIP4 H2   HW0      0.679100        1.0080           
    3996 A    999  TIP4 BD1  LP0     -1.358200        0.0000           
    3997 A    1000 TIP4 O1   OW0      0.000000       15.9990           
    3998 A    1000 TIP4 H1   HW0      0.679100        1.0080           
    3999 A    1000 TIP4 H2   HW0      0.679100        1.0080           
    4000 A    1000 TIP4 BD1  LP0     -1.358200        0.0000           
    4001 A    1001 TIP4 O1   OW0      0.000000       15.9990           
    4002 A    1001 TIP4 H1   HW0      0.679100        1.0080           
    4003 A    1001 TIP4 H2   HW0      0.679100        1.0080           
    4004 A    1001 TIP4 BD1  LP0     -1.358200        0.0000           
    4005 A    1002 TIP4 O1   OW0      0.000000       15.9990           
    4006 A    1002 TIP4 H1   HW0      0.679100        1.0080           
    4007 A    1002 TIP4 H2   HW0      0.679100        1.0080           
    4008 A    1002 TIP4 BD1  LP0     -1.358200        0.0000           
    4009 A    1003 TIP4 O1   OW0      0.000000       15.9990           
    4010 A    1003 TIP4 H1   HW0      0.679100        1.0080           
    4011 A    1003 TIP4 H2   HW0      0.679100        1.0080           
    4012 A    1003 TIP4 BD1  LP0     -1.358200        0.0000           
    4013 A    1004 TIP4 O1   OW0      0.000000       15.9990           
    4014 A    1004 TIP4 H1   HW0      0.679100        1.0080           
    4015 A    1004 TIP4 H2   HW0      0.679100        1.0080           
    4016 A    1004 TIP4 BD1  LP0     -1.358200        0.0000           
    4017 A    1005 TIP4 O1   OW0      0.000000       15.9990           
    4018 A    1005 TIP4 H1   HW0      0.679100        1.0080           
    4019 A    1005 TIP4 H2   HW0      0.679100        1.0080           
    4020 A    1005 TIP4 BD1  LP0     -1.358200        0.0000           
    4021 A    1006 TIP4 O1   OW0      0.000000       15.9990           
    4022 A    1006 TIP4 H1   HW0      0.679100        1.0080           
    4023 A    1006 TIP4 H2   HW0      0.679100        1.0080           
    4024 A    1006 TIP4 BD1  LP0     -1.358200        0.0000           
    4025 A    1007 TIP4 O1   OW0      0.000000       15.9990           
    4026 A    1007 TIP4 H1   HW0      0.679100        1.0080           
    4027 A    1007 TIP4 H2   HW0      0.679100        1.0080           
    4028 A    1007 TIP4 BD1  LP0     -1.358200        0.0000           
    4029 A    1008 TIP4 O1   OW0      0.000000       15.9990           
    4030 A    1008 TIP4 H1   HW0      0.679100        1.0080           
    4031 A    1008 TIP4 H2   HW0      0.679100        1.0080           
    4032 A    1008 TIP4 BD1  LP0     -1.358200        0.0000           
    4033 A    1009 TIP4 O1   OW0      0.000000       15.9990           
    4034 A    1009 TIP4 H1   HW0      0.679100        1.0080           
    4035 A    1009 TIP4 H2   HW0      0.679100        1.0080           
    4036 A    1009 TIP4 BD1  LP0     -1.358200        0.0000           
    4037 A    1010 TIP4 O1   OW0      0.000000       15.9990           
    4038 A    1010 TIP4 H1   HW0      0.679100        1.0080           
    4039 A    1010 TIP4 H2   HW0      0.679100        1.0080           
    4040 A    1010 TIP4 BD1  LP0     -1.358200        0.0000           
    4041 A    1011 TIP4 O1   OW0      0.000000       15.9990           
    4042 A    1011 TIP4 H1   HW0      0.679100        1.0080           
    4043 A    1011 TIP4 H2   HW0      0.679100        1.0080           
    4044 A    1011 TIP4 BD1  LP0     -1.358200        0.0000           
    4045 A    1012 TIP4 O1   OW0      0.000000       15.9990           
    4046 A    1012 TIP4 H1   HW0      0.679100        1.0080           
    4047 A    1012 TIP4 H2   HW0      0.679100        1.0080           
    4048 A    1012 TIP4 BD1  LP0     -1.358200        0.0000           
    4049 A    1013 TIP4 O1   OW0      0.000000       15.9990           
    4050 A    1013 TIP4 H1   HW0      0.679100        1.0080           
    4051 A    1013 TIP4 H2   HW0      0.679100        1.0080           
    4052 A    1013 TIP4 BD1  LP0     -1.358200        0.0000           
    4053 A    1014 TIP4 O1   OW0      0.000000       15.9990           
    4054 A    1014 TIP4 H1   HW0      0.679100        1.0080           
    4055 A    1014 TIP4 H2   HW0      0.679100        1.0080           
    4056 A    1014 TIP4 BD1  LP0     -1.358200        0.0000           
    4057 A    1015 TIP4 O1   OW0      0.000000       15.9990           
    4058 A    1015 TIP4 H1   HW0      0.679100        1.0080           
    4059 A    1015 TIP4 H2   HW0      0.679100        1.0080           
    4060 A    1015 TIP4 BD1  LP0     -1.358200        0.0000           
    4061 A    1016 TIP4 O1   OW0      0.000000       15.9990           
    4062 A    1016 TIP4 H1   HW0      0.679100        1.0080           
    4063 A    1016 TIP4 H2   HW0      0.679100        1.0080           
    4064 A    1016 TIP4 BD1  LP0     -1.358200        0.0000           
    4065 A    1017 TIP4 O1   OW0      0.000000       15.9990           
    4066 A    1017 TIP4 H1   HW0      0.679100        1.0080           
    4067 A    1017 TIP4 H2   HW0      0.679100        1.0080           
    4068 A    1017 TIP4 BD1  LP0     -1.358200        0.0000           
    4069 A    1018 TIP4 O1   OW0      0.000000       15.9990           
    4070 A    1018 TIP4 H1   HW0      0.679100        1.0080           
    4071 A    1018 TIP4 H2   HW0      0.679100        1.0080           
    4072 A    1018 TIP4 BD1  LP0     -1.358200        0.0000           
    4073 A    1019 TIP4 O1   OW0      0.000000       15.9990           
    4074 A    1019 TIP4 H1   HW0      0.679100        1.0080           
    4075 A    1019 TIP4 H2   HW0      0.679100        1.0080           
    4076 A    1019 TIP4 BD1  LP0     -1.358200        0.0000           
    4077 A    1020 TIP4 O1   OW0      0.000000       15.9990           
    4078 A    1020 TIP4 H1   HW0      0.679100        1.0080           
    4079 A    1020 TIP4 H2   HW0      0.679100        1.0080           
    4080 A    1020 TIP4 BD1  LP0     -1.358200        0.0000           
    4081 A    1021 TIP4 O1   OW0      0.000000       15.9990           
    4082 A    1021 TIP4 H1   HW0      0.679100        1.0080           
    4083 A    1021 TIP4 H2   HW0      0.679100        1.0080           
    4084 A    1021 TIP4 BD1  LP0     -1.358200        0.0000           
    4085 A    1022 TIP4 O1   OW0      0.000000       15.9990           
    4086 A    1022 TIP4 H1   HW0      0.679100        1.0080           
    4087 A    1022 TIP4 H2   HW0      0.679100        1.0080           
    4088 A    1022 TIP4 BD1  LP0     -1.358200        0.0000           
    4089 A    1023 TIP4 O1   OW0      0.000000       15.9990           
    4090 A    1023 TIP4 H1   HW0      0.679100        1.0080           
    4091 A    1023 TIP4 H2   HW0      0.679100        1.0080           
    4092 A    1023 TIP4 BD1  LP0     -1.358200        0.0000           
    4093 A    1024 TIP4 O1   OW0      0.000000       15.9990           
    4094 A    1024 TIP4 H1   HW0      0.679100        1.0080           
    4095 A    1024 TIP4 H2   HW0      0.679100        1.0080           
    4096 A    1024 TIP4 BD1  LP0     -1.358200        0.0000           
    4097 A    1025 TIP4 O1   OW0      0.000000       15.9990           
    4098 A    1025 TIP4 H1   HW0      0.679100        1.0080           
    4099 A    1025 TIP4 H2   HW0      0.679100        1.0080           
    4100 A    1025 TIP4 BD1  LP0     -1.358200        0.0000           
    4101 A    1026 TIP4 O1   OW0      0.000000       15.9990           
    4102 A    1026 TIP4 H1   HW0      0.679100        1.0080           
    4103 A    1026 TIP4 H2   HW0      0.679100        1.0080           
    4104 A    1026 TIP4 BD1  LP0     -1.358200        0.0000           
    4105 A    1027 TIP4 O1   OW0      0.000000       15.9990           
    4106 A    1027 TIP4 H1   HW0      0.679100        1.0080           
    4107 A    1027 TIP4 H2   HW0      0.679100        1.0080           
    4108 A    1027 TIP4 BD1  LP0     -1.358200        0.0000           
    4109 A    1028 TIP4 O1   OW0      0.000000       15.9990           
    4110 A    1028 TIP4 H1   HW0      0.679100        1.0080           
    4111 A    1028 TIP4 H2   HW0      0.679100        1.0080           
    4112 A    1028 TIP4 BD1  LP0     -1.358200        0.0000           
    4113 A    1029 TIP4 O1   OW0      0.000000       15.9990           
    4114 A    1029 TIP4 H1   HW0      0.679100        1.0080           
    4115 A    1029 TIP4 H2   HW0      0.679100        1.0080           
    4116 A    1029 TIP4 BD1  LP0     -1.358200        0.0000           
    4117 A    1030 TIP4 O1   OW0      0.000000       15.9990           
    4118 A    1030 TIP4 H1   HW0      0.679100        1.0080           
    4119 A    1030 TIP4 H2   HW0      0.679100        1.0080           
    4120 A    1030 TIP4 BD1  LP0     -1.358200        0.0000           
    4121 A    1031 TIP4 O1   OW0      0.000000       15.9990           
    4122 A    1031 TIP4 H1   HW0      0.679100        1.0080           
    4123 A    1031 TIP4 H2   HW0      0.679100        1.0080           
    4124 A    1031 TIP4 BD1  LP0     -1.358200        0.0000           
    4125 A    1032 TIP4 O1   OW0      0.000000       15.9990           
    4126 A    1032 TIP4 H1   HW0      0.679100        1.0080           
    4127 A    1032 TIP4 H2   HW0      0.679100        1.0080           
    4128 A    1032 TIP4 BD1  LP0     -1.358200        0.0000           
    4129 A    1033 TIP4 O1   OW0      0.000000       15.9990           
    4130 A    1033 TIP4 H1   HW0      0.679100        1.0080           
    4131 A    1033 TIP4 H2   HW0      0.679100        1.0080           
    4132 A    1033 TIP4 BD1  LP0     -1.358200        0.0000           
    4133 A    1034 TIP4 O1   OW0      0.000000       15.9990           
    4134 A    1034 TIP4 H1   HW0      0.679100        1.0080           
    4135 A    1034 TIP4 H2   HW0      0.679100        1.0080           
    4136 A    1034 TIP4 BD1  LP0     -1.358200        0.0000           
    4137 A    1035 TIP4 O1   OW0      0.000000       15.9990           
    4138 A    1035 TIP4 H1   HW0      0.679100        1.0080           
    4139 A    1035 TIP4 H2   HW0      0.679100        1.0080           
    4140 A    1035 TIP4 BD1  LP0     -1.358200        0.0000           
    4141 A    1036 TIP4 O1   OW0      0.000000       15.9990           
    4142 A    1036 TIP4 H1   HW0      0.679100        1.0080           
    4143 A    1036 TIP4 H2   HW0      0.679100        1.0080           
    4144 A    1036 TIP4 BD1  LP0     -1.358200        0.0000           
    4145 A    1037 TIP4 O1   OW0      0.000000       15.9990           
    4146 A    1037 TIP4 H1   HW0      0.679100        1.0080           
    4147 A    1037 TIP4 H2   HW0      0.679100        1.0080           
    4148 A    1037 TIP4 BD1  LP0     -1.358200        0.0000           
    4149 A    1038 TIP4 O1   OW0      0.000000       15.9990           
    4150 A    1038 TIP4 H1   HW0      0.679100        1.0080           
    4151 A    1038 TIP4 H2   HW0      0.679100        1.0080           
    4152 A    1038 TIP4 BD1  LP0     -1.358200        0.0000           
    4153 A    1039 TIP4 O1   OW0      0.000000       15.9990           
    4154 A    1039 TIP4 H1   HW0      0.679100        1.0080           
    4155 A    1039 TIP4 H2   HW0      0.679100        1.0080           
    4156 A    1039 TIP4 BD1  LP0     -1.358200        0.0000           
    4157 A    1040 TIP4 O1   OW0      0.000000       15.9990           
    4158 A    1040 TIP4 H1   HW0      0.679100        1.0080           
    4159 A    1040 TIP4 H2   HW0      0.679100        1.0080           
    4160 A    1040 TIP4 BD1  LP0     -1.358200        0.0000           
    4161 A    1041 TIP4 O1   OW0      0.000000       15.9990           
    4162 A    1041 TIP4 H1   HW0      0.679100        1.0080           
    4163 A    1041 TIP4 H2   HW0      0.679100        1.0080           
    4164 A    1041 TIP4 BD1  LP0     -1.358200        0.0000           
    4165 A    1042 TIP4 O1   OW0      0.000000       15.9990           
    4166 A    1042 TIP4 H1   HW0      0.679100        1.0080           
    4167 A    1042 TIP4 H2   HW0      0.679100        1.0080           
    4168 A    1042 TIP4 BD1  LP0     -1.358200        0.0000           
    4169 A    1043 TIP4 O1   OW0      0.000000       15.9990           
    4170 A    1043 TIP4 H1   HW0      0.679100        1.0080           
    4171 A    1043 TIP4 H2   HW0      0.679100        1.0080           
    4172 A    1043 TIP4 BD1  LP0     -1.358200        0.0000           
    4173 A    1044 TIP4 O1   OW0      0.000000       15.9990           
    4174 A    1044 TIP4 H1   HW0      0.679100        1.0080           
    4175 A    1044 TIP4 H2   HW0      0.679100        1.0080           
    4176 A    1044 TIP4 BD1  LP0     -1.358200        0.0000           
    4177 A    1045 TIP4 O1   OW0      0.000000       15.9990           
    4178 A    1045 TIP4 H1   HW0      0.679100        1.0080           
    4179 A    1045 TIP4 H2   HW0      0.679100        1.0080           
    4180 A    1045 TIP4 BD1  LP0     -1.358200        0.0000           
    4181 A    1046 TIP4 O1   OW0      0.000000       15.9990           
    4182 A    1046 TIP4 H1   HW0      0.679100        1.0080           
    4183 A    1046 TIP4 H2   HW0      0.679100        1.0080           
    4184 A    1046 TIP4 BD1  LP0     -1.358200        0.0000           
    4185 A    1047 TIP4 O1   OW0      0.000000       15.9990           
    4186 A    1047 TIP4 H1   HW0      0.679100        1.0080           
    4187 A    1047 TIP4 H2   HW0      0.679100        1.0080           
    4188 A    1047 TIP4 BD1  LP0     -1.358200        0.0000           
    4189 A    1048 TIP4 O1   OW0      0.000000       15.9990           
    4190 A    1048 TIP4 H1   HW0      0.679100        1.0080           
    4191 A    1048 TIP4 H2   HW0      0.679100        1.0080           
    4192 A    1048 TIP4 BD1  LP0     -1.358200        0.0000           
    4193 A    1049 TIP4 O1   OW0      0.000000       15.9990           
    4194 A    1049 TIP4 H1   HW0      0.679100        1.0080           
    4195 A    1049 TIP4 H2   HW0      0.679100        1.0080           
    4196 A    1049 TIP4 BD1  LP0     -1.358200        0.0000           
    4197 A    1050 TIP4 O1   OW0      0.000000       15.9990           
    4198 A    1050 TIP4 H1   HW0      0.679100        1.0080           
    4199 A    1050 TIP4 H2   HW0      0.679100        1.0080           
    4200 A    1050 TIP4 BD1  LP0     -1.358200        0.0000           
    4201 A    1051 TIP4 O1   OW0      0.000000       15.9990           
    4202 A    1051 TIP4 H1   HW0      0.679100        1.0080           
    4203 A    1051 TIP4 H2   HW0      0.679100        1.0080           
    4204 A    1051 TIP4 BD1  LP0     -1.358200        0.0000           
    4205 A    1052 TIP4 O1   OW0      0.000000       15.9990           
    4206 A    1052 TIP4 H1   HW0      0.679100        1.0080           
    4207 A    1052 TIP4 H2   HW0      0.679100        1.0080           
    4208 A    1052 TIP4 BD1  LP0     -1.358200        0.0000           
    4209 A    1053 TIP4 O1   OW0      0.000000       15.9990           
    4210 A    1053 TIP4 H1   HW0      0.679100        1.0080           
    4211 A    1053 TIP4 H2   HW0      0.679100        1.0080           
    4212 A    1053 TIP4 BD1  LP0     -1.358200        0.0000           
    4213 A    1054 TIP4 O1   OW0      0.000000       15.9990           
    4214 A    1054 TIP4 H1   HW0      0.679100        1.0080           
    4215 A    1054 TIP4 H2   HW0      0.679100        1.0080           
    4216 A    1054 TIP4 BD1  LP0     -1.358200        0.0000           
    4217 A    1055 TIP4 O1   OW0      0.000000       15.9990           
    4218 A    1055 TIP4 H1   HW0      0.679100        1.0080           
    4219 A    1055 TIP4 H2   HW0      0.679100        1.0080           
    4220 A    1055 TIP4 BD1  LP0     -1.358200        0.0000           
    4221 A    1056 TIP4 O1   OW0      0.000000       15.9990           
    4222 A    1056 TIP4 H1   HW0      0.679100        1.0080           
    4223 A    1056 TIP4 H2   HW0      0.679100        1.0080           
    4224 A    1056 TIP4 BD1  LP0     -1.358200        0.0000           
    4225 A    1057 TIP4 O1   OW0      0.000000       15.9990           
    4226 A    1057 TIP4 H1   HW0      0.679100        1.0080           
    4227 A    1057 TIP4 H2   HW0      0.679100        1.0080           
    4228 A    1057 TIP4 BD1  LP0     -1.358200        0.0000           
    4229 A    1058 TIP4 O1   OW0      0.000000       15.9990           
    4230 A    1058 TIP4 H1   HW0      0.679100        1.0080           
    4231 A    1058 TIP4 H2   HW0      0.679100        1.0080           
    4232 A    1058 TIP4 BD1  LP0     -1.358200        0.0000           
    4233 A    1059 TIP4 O1   OW0      0.000000       15.9990           
    4234 A    1059 TIP4 H1   HW0      0.679100        1.0080           
    4235 A    1059 TIP4 H2   HW0      0.679100        1.0080           
    4236 A    1059 TIP4 BD1  LP0     -1.358200        0.0000           
    4237 A    1060 TIP4 O1   OW0      0.000000       15.9990           
    4238 A    1060 TIP4 H1   HW0      0.679100        1.0080           
    4239 A    1060 TIP4 H2   HW0      0.679100        1.0080           
    4240 A    1060 TIP4 BD1  LP0     -1.358200        0.0000           
    4241 A    1061 TIP4 O1   OW0      0.000000       15.9990           
    4242 A    1061 TIP4 H1   HW0      0.679100        1.0080           
    4243 A    1061 TIP4 H2   HW0      0.679100        1.0080           
    4244 A    1061 TIP4 BD1  LP0     -1.358200        0.0000           
    4245 A    1062 TIP4 O1   OW0      0.000000       15.9990           
    4246 A    1062 TIP4 H1   HW0      0.679100        1.0080           
    4247 A    1062 TIP4 H2   HW0      0.679100        1.0080           
    4248 A    1062 TIP4 BD1  LP0     -1.358200        0.0000           
    4249 A    1063 TIP4 O1   OW0      0.000000       15.9990           
    4250 A    1063 TIP4 H1   HW0      0.679100        1.0080           
    4251 A    1063 TIP4 H2   HW0      0.679100        1.0080           
    4252 A    1063 TIP4 BD1  LP0     -1.358200        0.0000           
    4253 A    1064 TIP4 O1   OW0      0.000000       15.9990           
    4254 A    1064 TIP4 H1   HW0      0.679100        1.0080           
    4255 A    1064 TIP4 H2   HW0      0.679100        1.0080           
    4256 A    1064 TIP4 BD1  LP0     -1.358200        0.0000           
    4257 A    1065 TIP4 O1   OW0      0.000000       15.9990           
    4258 A    1065 TIP4 H1   HW0      0.679100        1.0080           
    4259 A    1065 TIP4 H2   HW0      0.679100        1.0080           
    4260 A    1065 TIP4 BD1  LP0     -1.358200        0.0000           
    4261 A    1066 TIP4 O1   OW0      0.000000       15.9990           
    4262 A    1066 TIP4 H1   HW0      0.679100        1.0080           
    4263 A    1066 TIP4 H2   HW0      0.679100        1.0080           
    4264 A    1066 TIP4 BD1  LP0     -1.358200        0.0000           
    4265 A    1067 TIP4 O1   OW0      0.000000       15.9990           
    4266 A    1067 TIP4 H1   HW0      0.679100        1.0080           
    4267 A    1067 TIP4 H2   HW0      0.679100        1.0080           
    4268 A    1067 TIP4 BD1  LP0     -1.358200        0.0000           
    4269 A    1068 TIP4 O1   OW0      0.000000       15.9990           
    4270 A    1068 TIP4 H1   HW0      0.679100        1.0080           
    4271 A    1068 TIP4 H2   HW0      0.679100        1.0080           
    4272 A    1068 TIP4 BD1  LP0     -1.358200        0.0000           
    4273 A    1069 TIP4 O1   OW0      0.000000       15.9990           
    4274 A    1069 TIP4 H1   HW0      0.679100        1.0080           
    4275 A    1069 TIP4 H2   HW0      0.679100        1.0080           
    4276 A    1069 TIP4 BD1  LP0     -1.358200        0.0000           
    4277 A    1070 TIP4 O1   OW0      0.000000       15.9990           
    4278 A    1070 TIP4 H1   HW0      0.679100        1.0080           
    4279 A    1070 TIP4 H2   HW0      0.679100        1.0080           
    4280 A    1070 TIP4 BD1  LP0     -1.358200        0.0000           
    4281 A    1071 TIP4 O1   OW0      0.000000       15.9990           
    4282 A    1071 TIP4 H1   HW0      0.679100        1.0080           
    4283 A    1071 TIP4 H2   HW0      0.679100        1.0080           
    4284 A    1071 TIP4 BD1  LP0     -1.358200        0.0000           
    4285 A    1072 TIP4 O1   OW0      0.000000       15.9990           
    4286 A    1072 TIP4 H1   HW0      0.679100        1.0080           
    4287 A    1072 TIP4 H2   HW0      0.679100        1.0080           
    4288 A    1072 TIP4 BD1  LP0     -1.358200        0.0000           
    4289 A    1073 TIP4 O1   OW0      0.000000       15.9990           
    4290 A    1073 TIP4 H1   HW0      0.679100        1.0080           
    4291 A    1073 TIP4 H2   HW0      0.679100        1.0080           
    4292 A    1073 TIP4 BD1  LP0     -1.358200        0.0000           
    4293 A    1074 TIP4 O1   OW0      0.000000       15.9990           
    4294 A    1074 TIP4 H1   HW0      0.679100        1.0080           
    4295 A    1074 TIP4 H2   HW0      0.679100        1.0080           
    4296 A    1074 TIP4 BD1  LP0     -1.358200        0.0000           
    4297 A    1075 TIP4 O1   OW0      0.000000       15.9990           
    4298 A    1075 TIP4 H1   HW0      0.679100        1.0080           
    4299 A    1075 TIP4 H2   HW0      0.679100        1.0080           
    4300 A    1075 TIP4 BD1  LP0     -1.358200        0.0000           
    4301 A    1076 TIP4 O1   OW0      0.000000       15.9990           
    4302 A    1076 TIP4 H1   HW0      0.679100        1.0080           
    4303 A    1076 TIP4 H2   HW0      0.679100        1.0080           
    4304 A    1076 TIP4 BD1  LP0     -1.358200        0.0000           
    4305 A    1077 TIP4 O1   OW0      0.000000       15.9990           
    4306 A    1077 TIP4 H1   HW0      0.679100        1.0080           
    4307 A    1077 TIP4 H2   HW0      0.679100        1.0080           
    4308 A    1077 TIP4 BD1  LP0     -1.358200        0.0000           
    4309 A    1078 TIP4 O1   OW0      0.000000       15.9990           
    4310 A    1078 TIP4 H1   HW0      0.679100        1.0080           
    4311 A    1078 TIP4 H2   HW0      0.679100        1.0080           
    4312 A    1078 TIP4 BD1  LP0     -1.358200        0.0000           
    4313 A    1079 TIP4 O1   OW0      0.000000       15.9990           
    4314 A    1079 TIP4 H1   HW0      0.679100        1.0080           
    4315 A    1079 TIP4 H2   HW0      0.679100        1.0080           
    4316 A    1079 TIP4 BD1  LP0     -1.358200        0.0000           
    4317 A    1080 TIP4 O1   OW0      0.000000       15.9990           
    4318 A    1080 TIP4 H1   HW0      0.679100        1.0080           
    4319 A    1080 TIP4 H2   HW0      0.679100        1.0080           
    4320 A    1080 TIP4 BD1  LP0     -1.358200        0.0000           
    4321 A    1081 TIP4 O1   OW0      0.000000       15.9990           
    4322 A    1081 TIP4 H1   HW0      0.679100        1.0080           
    4323 A    1081 TIP4 H2   HW0      0.679100        1.0080           
    4324 A    1081 TIP4 BD1  LP0     -1.358200        0.0000           
    4325 A    1082 TIP4 O1   OW0      0.000000       15.9990           
    4326 A    1082 TIP4 H1   HW0      0.679100        1.0080           
    4327 A    1082 TIP4 H2   HW0      0.679100        1.0080           
    4328 A    1082 TIP4 BD1  LP0     -1.358200        0.0000           
    4329 A    1083 TIP4 O1   OW0      0.000000       15.9990           
    4330 A    1083 TIP4 H1   HW0      0.679100        1.0080           
    4331 A    1083 TIP4 H2   HW0      0.679100        1.0080           
    4332 A    1083 TIP4 BD1  LP0     -1.358200        0.0000           
    4333 A    1084 TIP4 O1   OW0      0.000000       15.9990           
    4334 A    1084 TIP4 H1   HW0      0.679100        1.0080           
    4335 A    1084 TIP4 H2   HW0      0.679100        1.0080           
    4336 A    1084 TIP4 BD1  LP0     -1.358200        0.0000           
    4337 A    1085 TIP4 O1   OW0      0.000000       15.9990           
    4338 A    1085 TIP4 H1   HW0      0.679100        1.0080           
    4339 A    1085 TIP4 H2   HW0      0.679100        1.0080           
    4340 A    1085 TIP4 BD1  LP0     -1.358200        0.0000           
    4341 A    1086 TIP4 O1   OW0      0.000000       15.9990           
    4342 A    1086 TIP4 H1   HW0      0.679100        1.0080           
    4343 A    1086 TIP4 H2   HW0      0.679100        1.0080           
    4344 A    1086 TIP4 BD1  LP0     -1.358200        0.0000           
    4345 A    1087 TIP4 O1   OW0      0.000000       15.9990           
    4346 A    1087 TIP4 H1   HW0      0.679100        1.0080           
    4347 A    1087 TIP4 H2   HW0      0.679100        1.0080           
    4348 A    1087 TIP4 BD1  LP0     -1.358200        0.0000           
    4349 A    1088 TIP4 O1   OW0      0.000000       15.9990           
    4350 A    1088 TIP4 H1   HW0      0.679100        1.0080           
    4351 A    1088 TIP4 H2   HW0      0.679100        1.0080           
    4352 A    1088 TIP4 BD1  LP0     -1.358200        0.0000           
    4353 A    1089 TIP4 O1   OW0      0.000000       15.9990           
    4354 A    1089 TIP4 H1   HW0      0.679100        1.0080           
    4355 A    1089 TIP4 H2   HW0      0.679100        1.0080           
    4356 A    1089 TIP4 BD1  LP0     -1.358200        0.0000           
    4357 A    1090 TIP4 O1   OW0      0.000000       15.9990           
    4358 A    1090 TIP4 H1   HW0      0.679100        1.0080           
    4359 A    1090 TIP4 H2   HW0      0.679100        1.0080           
    4360 A    1090 TIP4 BD1  LP0     -1.358200        0.0000           
    4361 A    1091 TIP4 O1   OW0      0.000000       15.9990           
    4362 A    1091 TIP4 H1   HW0      0.679100        1.0080           
    4363 A    1091 TIP4 H2   HW0      0.679100        1.0080           
    4364 A    1091 TIP4 BD1  LP0     -1.358200        0.0000           
    4365 A    1092 TIP4 O1   OW0      0.000000       15.9990           
    4366 A    1092 TIP4 H1   HW0      0.679100        1.0080           
    4367 A    1092 TIP4 H2   HW0      0.679100        1.0080           
    4368 A    1092 TIP4 BD1  LP0     -1.358200        0.0000           
    4369 A    1093 TIP4 O1   OW0      0.000000       15.9990           
    4370 A    1093 TIP4 H1   HW0      0.679100        1.0080           
    4371 A    1093 TIP4 H2   HW0      0.679100        1.0080           
    4372 A    1093 TIP4 BD1  LP0     -1.358200        0.0000           
    4373 A    1094 TIP4 O1   OW0      0.000000       15.9990           
    4374 A    1094 TIP4 H1   HW0      0.679100        1.0080           
    4375 A    1094 TIP4 H2   HW0      0.679100        1.0080           
    4376 A    1094 TIP4 BD1  LP0     -1.358200        0.0000           
    4377 A    1095 TIP4 O1   OW0      0.000000       15.9990           
    4378 A    1095 TIP4 H1   HW0      0.679100        1.0080           
    4379 A    1095 TIP4 H2   HW0      0.679100        1.0080           
    4380 A    1095 TIP4 BD1  LP0     -1.358200        0.0000           
    4381 A    1096 TIP4 O1   OW0      0.000000       15.9990           
    4382 A    1096 TIP4 H1   HW0      0.679100        1.0080           
    4383 A    1096 TIP4 H2   HW0      0.679100        1.0080           
    4384 A    1096 TIP4 BD1  LP0     -1.358200        0.0000           
    4385 A    1097 TIP4 O1   OW0      0.000000       15.9990           
    4386 A    1097 TIP4 H1   HW0      0.679100        1.0080           
    4387 A    1097 TIP4 H2   HW0      0.679100        1.0080           
    4388 A    1097 TIP4 BD1  LP0     -1.358200        0.0000           
    4389 A    1098 TIP4 O1   OW0      0.000000       15.9990           
    4390 A    1098 TIP4 H1   HW0      0.679100        1.0080           
    4391 A    1098 TIP4 H2   HW0      0.679100        1.0080           
    4392 A    1098 TIP4 BD1  LP0     -1.358200        0.0000           
    4393 A    1099 TIP4 O1   OW0      0.000000       15.9990           
    4394 A    1099 TIP4 H1   HW0      0.679100        1.0080           
    4395 A    1099 TIP4 H2   HW0      0.679100        1.0080           
    4396 A    1099 TIP4 BD1  LP0     -1.358200        0.0000           
    4397 A    1100 TIP4 O1   OW0      0.000000       15.9990           
    4398 A    1100 TIP4 H1   HW0      0.679100        1.0080           
    4399 A    1100 TIP4 H2   HW0      0.679100        1.0080           
    4400 A    1100 TIP4 BD1  LP0     -1.358200        0.0000           
    4401 A    1101 TIP4 O1   OW0      0.000000       15.9990           
    4402 A    1101 TIP4 H1   HW0      0.679100        1.0080           
    4403 A    1101 TIP4 H2   HW0      0.679100        1.0080           
    4404 A    1101 TIP4 BD1  LP0     -1.358200        0.0000           
    4405 A    1102 TIP4 O1   OW0      0.000000       15.9990           
    4406 A    1102 TIP4 H1   HW0      0.679100        1.0080           
    4407 A    1102 TIP4 H2   HW0      0.679100        1.0080           
    4408 A    1102 TIP4 BD1  LP0     -1.358200        0.0000           
    4409 A    1103 TIP4 O1   OW0      0.000000       15.9990           
    4410 A    1103 TIP4 H1   HW0      0.679100        1.0080           
    4411 A    1103 TIP4 H2   HW0      0.679100        1.0080           
    4412 A    1103 TIP4 BD1  LP0     -1.358200        0.0000           
    4413 A    1104 TIP4 O1   OW0      0.000000       15.9990           
    4414 A    1104 TIP4 H1   HW0      0.679100        1.0080           
    4415 A    1104 TIP4 H2   HW0      0.679100        1.0080           
    4416 A    1104 TIP4 BD1  LP0     -1.358200        0.0000           
    4417 A    1105 TIP4 O1   OW0      0.000000       15.9990           
    4418 A    1105 TIP4 H1   HW0      0.679100        1.0080           
    4419 A    1105 TIP4 H2   HW0      0.679100        1.0080           
    4420 A    1105 TIP4 BD1  LP0     -1.358200        0.0000           
    4421 A    1106 TIP4 O1   OW0      0.000000       15.9990           
    4422 A    1106 TIP4 H1   HW0      0.679100        1.0080           
    4423 A    1106 TIP4 H2   HW0      0.679100        1.0080           
    4424 A    1106 TIP4 BD1  LP0     -1.358200        0.0000           
    4425 A    1107 TIP4 O1   OW0      0.000000       15.9990           
    4426 A    1107 TIP4 H1   HW0      0.679100        1.0080           
    4427 A    1107 TIP4 H2   HW0      0.679100        1.0080           
    4428 A    1107 TIP4 BD1  LP0     -1.358200        0.0000           
    4429 A    1108 TIP4 O1   OW0      0.000000       15.9990           
    4430 A    1108 TIP4 H1   HW0      0.679100        1.0080           
    4431 A    1108 TIP4 H2   HW0      0.679100        1.0080           
    4432 A    1108 TIP4 BD1  LP0     -1.358200        0.0000           
    4433 A    1109 TIP4 O1   OW0      0.000000       15.9990           
    4434 A    1109 TIP4 H1   HW0      0.679100        1.0080           
    4435 A    1109 TIP4 H2   HW0      0.679100        1.0080           
    4436 A    1109 TIP4 BD1  LP0     -1.358200        0.0000           
    4437 A    1110 TIP4 O1   OW0      0.000000       15.9990           
    4438 A    1110 TIP4 H1   HW0      0.679100        1.0080           
    4439 A    1110 TIP4 H2   HW0      0.679100        1.0080           
    4440 A    1110 TIP4 BD1  LP0     -1.358200        0.0000           
    4441 A    1111 TIP4 O1   OW0      0.000000       15.9990           
    4442 A    1111 TIP4 H1   HW0      0.679100        1.0080           
    4443 A    1111 TIP4 H2   HW0      0.679100        1.0080           
    4444 A    1111 TIP4 BD1  LP0     -1.358200        0.0000           
    4445 A    1112 TIP4 O1   OW0      0.000000       15.9990           
    4446 A    1112 TIP4 H1   HW0      0.679100        1.0080           
    4447 A    1112 TIP4 H2   HW0      0.679100        1.0080           
    4448 A    1112 TIP4 BD1  LP0     -1.358200        0.0000           
    4449 A    1113 TIP4 O1   OW0      0.000000       15.9990           
    4450 A    1113 TIP4 H1   HW0      0.679100        1.0080           
    4451 A    1113 TIP4 H2   HW0      0.679100        1.0080           
    4452 A    1113 TIP4 BD1  LP0     -1.358200        0.0000           
    4453 A    1114 TIP4 O1   OW0      0.000000       15.9990           
    4454 A    1114 TIP4 H1   HW0      0.679100        1.0080           
    4455 A    1114 TIP4 H2   HW0      0.679100        1.0080           
    4456 A    1114 TIP4 BD1  LP0     -1.358200        0.0000           
    4457 A    1115 TIP4 O1   OW0      0.000000       15.9990           
    4458 A    1115 TIP4 H1   HW0      0.679100        1.0080           
    4459 A    1115 TIP4 H2   HW0      0.679100        1.0080           
    4460 A    1115 TIP4 BD1  LP0     -1.358200        0.0000           
    4461 A    1116 TIP4 O1   OW0      0.000000       15.9990           
    4462 A    1116 TIP4 H1   HW0      0.679100        1.0080           
    4463 A    1116 TIP4 H2   HW0      0.679100        1.0080           
    4464 A    1116 TIP4 BD1  LP0     -1.358200        0.0000           
    4465 A    1117 TIP4 O1   OW0      0.000000       15.9990           
    4466 A    1117 TIP4 H1   HW0      0.679100        1.0080           
    4467 A    1117 TIP4 H2   HW0      0.679100        1.0080           
    4468 A    1117 TIP4 BD1  LP0     -1.358200        0.0000           
    4469 A    1118 TIP4 O1   OW0      0.000000       15.9990           
    4470 A    1118 TIP4 H1   HW0      0.679100        1.0080           
    4471 A    1118 TIP4 H2   HW0      0.679100        1.0080           
    4472 A    1118 TIP4 BD1  LP0     -1.358200        0.0000           
    4473 A    1119 TIP4 O1   OW0      0.000000       15.9990           
    4474 A    1119 TIP4 H1   HW0      0.679100        1.0080           
    4475 A    1119 TIP4 H2   HW0      0.679100        1.0080           
    4476 A    1119 TIP4 BD1  LP0     -1.358200        0.0000           
    4477 A    1120 TIP4 O1   OW0      0.000000       15.9990           
    4478 A    1120 TIP4 H1   HW0      0.679100        1.0080           
    4479 A    1120 TIP4 H2   HW0      0.679100        1.0080           
    4480 A    1120 TIP4 BD1  LP0     -1.358200        0.0000           
    4481 A    1121 TIP4 O1   OW0      0.000000       15.9990           
    4482 A    1121 TIP4 H1   HW0      0.679100        1.0080           
    4483 A    1121 TIP4 H2   HW0      0.679100        1.0080           
    4484 A    1121 TIP4 BD1  LP0     -1.358200        0.0000           
    4485 A    1122 TIP4 O1   OW0      0.000000       15.9990           
    4486 A    1122 TIP4 H1   HW0      0.679100        1.0080           
    4487 A    1122 TIP4 H2   HW0      0.679100        1.0080           
    4488 A    1122 TIP4 BD1  LP0     -1.358200        0.0000           
    4489 A    1123 TIP4 O1   OW0      0.000000       15.9990           
    4490 A    1123 TIP4 H1   HW0      0.679100        1.0080           
    4491 A    1123 TIP4 H2   HW0      0.679100        1.0080           
    4492 A    1123 TIP4 BD1  LP0     -1.358200        0.0000           
    4493 A    1124 TIP4 O1   OW0      0.000000       15.9990           
    4494 A    1124 TIP4 H1   HW0      0.679100        1.0080           
    4495 A    1124 TIP4 H2   HW0      0.679100        1.0080           
    4496 A    1124 TIP4 BD1  LP0     -1.358200        0.0000           
    4497 A    1125 TIP4 O1   OW0      0.000000       15.9990           
    4498 A    1125 TIP4 H1   HW0      0.679100        1.0080           
    4499 A    1125 TIP4 H2   HW0      0.679100        1.0080           
    4500 A    1125 TIP4 BD1  LP0     -1.358200        0.0000           
    4501 A    1126 TIP4 O1   OW0      0.000000       15.9990           
    4502 A    1126 TIP4 H1   HW0      0.679100        1.0080           
    4503 A    1126 TIP4 H2   HW0      0.679100        1.0080           
    4504 A    1126 TIP4 BD1  LP0     -1.358200        0.0000           
    4505 A    1127 TIP4 O1   OW0      0.000000       15.9990           
    4506 A    1127 TIP4 H1   HW0      0.679100        1.0080           
    4507 A    1127 TIP4 H2   HW0      0.679100        1.0080           
    4508 A    1127 TIP4 BD1  LP0     -1.358200        0.0000           
    4509 A    1128 TIP4 O1   OW0      0.000000       15.9990           
    4510 A    1128 TIP4 H1   HW0      0.679100        1.0080           
    4511 A    1128 TIP4 H2   HW0      0.679100        1.0080           
    4512 A    1128 TIP4 BD1  LP0     -1.358200        0.0000           
    4513 A    1129 TIP4 O1   OW0      0.000000       15.9990           
    4514 A    1129 TIP4 H1   HW0      0.679100        1.0080           
    4515 A    1129 TIP4 H2   HW0      0.679100        1.0080           
    4516 A    1129 TIP4 BD1  LP0     -1.358200        0.0000           
    4517 A    1130 TIP4 O1   OW0      0.000000       15.9990           
    4518 A    1130 TIP4 H1   HW0      0.679100        1.0080           
    4519 A    1130 TIP4 H2   HW0      0.679100        1.0080           
    4520 A    1130 TIP4 BD1  LP0     -1.358200        0.0000           
    4521 A    1131 TIP4 O1   OW0      0.000000       15.9990           
    4522 A    1131 TIP4 H1   HW0      0.679100        1.0080           
    4523 A    1131 TIP4 H2   HW0      0.679100        1.0080           
    4524 A    1131 TIP4 BD1  LP0     -1.358200        0.0000           
    4525 A    1132 TIP4 O1   OW0      0.000000       15.9990           
    4526 A    1132 TIP4 H1   HW0      0.679100        1.0080           
    4527 A    1132 TIP4 H2   HW0      0.679100        1.0080           
    4528 A    1132 TIP4 BD1  LP0     -1.358200        0.0000           
    4529 A    1133 TIP4 O1   OW0      0.000000       15.9990           
    4530 A    1133 TIP4 H1   HW0      0.679100        1.0080           
    4531 A    1133 TIP4 H2   HW0      0.679100        1.0080           
    4532 A    1133 TIP4 BD1  LP0     -1.358200        0.0000           
    4533 A    1134 TIP4 O1   OW0      0.000000       15.9990           
    4534 A    1134 TIP4 H1   HW0      0.679100        1.0080           
    4535 A    1134 TIP4 H2   HW0      0.679100        1.0080           
    4536 A    1134 TIP4 BD1  LP0     -1.358200        0.0000           
    4537 A    1135 TIP4 O1   OW0      0.000000       15.9990           
    4538 A    1135 TIP4 H1   HW0      0.679100        1.0080           
    4539 A    1135 TIP4 H2   HW0      0.679100        1.0080           
    4540 A    1135 TIP4 BD1  LP0     -1.358200        0.0000           
    4541 A    1136 TIP4 O1   OW0      0.000000       15.9990           
    4542 A    1136 TIP4 H1   HW0      0.679100        1.0080           
    4543 A    1136 TIP4 H2   HW0      0.679100        1.0080           
    4544 A    1136 TIP4 BD1  LP0     -1.358200        0.0000           
    4545 A    1137 TIP4 O1   OW0      0.000000       15.9990           
    4546 A    1137 TIP4 H1   HW0      0.679100        1.0080           
    4547 A    1137 TIP4 H2   HW0      0.679100        1.0080           
    4548 A    1137 TIP4 BD1  LP0     -1.358200        0.0000           
    4549 A    1138 TIP4 O1   OW0      0.000000       15.9990           
    4550 A    1138 TIP4 H1   HW0      0.679100        1.0080           
    4551 A    1138 TIP4 H2   HW0      0.679100        1.0080           
    4552 A    1138 TIP4 BD1  LP0     -1.358200        0.0000           
    4553 A    1139 TIP4 O1   OW0      0.000000       15.9990           
    4554 A    1139 TIP4 H1   HW0      0.679100        1.0080           
    4555 A    1139 TIP4 H2   HW0      0.679100        1.0080           
    4556 A    1139 TIP4 BD1  LP0     -1.358200        0.0000           
    4557 A    1140 TIP4 O1   OW0      0.000000       15.9990           
    4558 A    1140 TIP4 H1   HW0      0.679100        1.0080           
    4559 A    1140 TIP4 H2   HW0      0.679100        1.0080           
    4560 A    1140 TIP4 BD1  LP0     -1.358200        0.0000           
    4561 A    1141 TIP4 O1   OW0      0.000000       15.9990           
    4562 A    1141 TIP4 H1   HW0      0.679100        1.0080           
    4563 A    1141 TIP4 H2   HW0      0.679100        1.0080           
    4564 A    1141 TIP4 BD1  LP0     -1.358200        0.0000           
    4565 A    1142 TIP4 O1   OW0      0.000000       15.9990           
    4566 A    1142 TIP4 H1   HW0      0.679100        1.0080           
    4567 A    1142 TIP4 H2   HW0      0.679100        1.0080           
    4568 A    1142 TIP4 BD1  LP0     -1.358200        0.0000           
    4569 A    1143 TIP4 O1   OW0      0.000000       15.9990           
    4570 A    1143 TIP4 H1   HW0      0.679100        1.0080           
    4571 A    1143 TIP4 H2   HW0      0.679100        1.0080           
    4572 A    1143 TIP4 BD1  LP0     -1.358200        0.0000           
    4573 A    1144 TIP4 O1   OW0      0.000000       15.9990           
    4574 A    1144 TIP4 H1   HW0      0.679100        1.0080           
    4575 A    1144 TIP4 H2   HW0      0.679100        1.0080           
    4576 A    1144 TIP4 BD1  LP0     -1.358200        0.0000           
    4577 A    1145 TIP4 O1   OW0      0.000000       15.9990           
    4578 A    1145 TIP4 H1   HW0      0.679100        1.0080           
    4579 A    1145 TIP4 H2   HW0      0.679100        1.0080           
    4580 A    1145 TIP4 BD1  LP0     -1.358200        0.0000           
    4581 A    1146 TIP4 O1   OW0      0.000000       15.9990           
    4582 A    1146 TIP4 H1   HW0      0.679100        1.0080           
    4583 A    1146 TIP4 H2   HW0      0.679100        1.0080           
    4584 A    1146 TIP4 BD1  LP0     -1.358200        0.0000           
    4585 A    1147 TIP4 O1   OW0      0.000000       15.9990           
    4586 A    1147 TIP4 H1   HW0      0.679100        1.0080           
    4587 A    1147 TIP4 H2   HW0      0.679100        1.0080           
    4588 A    1147 TIP4 BD1  LP0     -1.358200        0.0000           
    4589 A    1148 TIP4 O1   OW0      0.000000       15.9990           
    4590 A    1148 TIP4 H1   HW0      0.679100        1.0080           
    4591 A    1148 TIP4 H2   HW0      0.679100        1.0080           
    4592 A    1148 TIP4 BD1  LP0     -1.358200        0.0000           
    4593 A    1149 TIP4 O1   OW0      0.000000       15.9990           
    4594 A    1149 TIP4 H1   HW0      0.679100        1.0080           
    4595 A    1149 TIP4 H2   HW0      0.679100        1.0080           
    4596 A    1149 TIP4 BD1  LP0     -1.358200        0.0000           
    4597 A    1150 TIP4 O1   OW0      0.000000       15.9990           
    4598 A    1150 TIP4 H1   HW0      0.679100        1.0080           
    4599 A    1150 TIP4 H2   HW0      0.679100        1.0080           
    4600 A    1150 TIP4 BD1  LP0     -1.358200        0.0000           
    4601 A    1151 TIP4 O1   OW0      0.000000       15.9990           
    4602 A    1151 TIP4 H1   HW0      0.679100        1.0080           
    4603 A    1151 TIP4 H2   HW0      0.679100        1.0080           
    4604 A    1151 TIP4 BD1  LP0     -1.358200        0.0000           
    4605 A    1152 TIP4 O1   OW0      0.000000       15.9990           
    4606 A    1152 TIP4 H1   HW0      0.679100        1.0080           
    4607 A    1152 TIP4 H2   HW0      0.679100        1.0080           
    4608 A    1152 TIP4 BD1  LP0     -1.358200        0.0000           
    4609 A    1153 TIP4 O1   OW0      0.000000       15.9990           
    4610 A    1153 TIP4 H1   HW0      0.679100        1.0080           
    4611 A    1153 TIP4 H2   HW0      0.679100        1.0080           
    4612 A    1153 TIP4 BD1  LP0     -1.358200        0.0000           
    4613 A    1154 TIP4 O1   OW0      0.000000       15.9990           
    4614 A    1154 TIP4 H1   HW0      0.679100        1.0080           
    4615 A    1154 TIP4 H2   HW0      0.679100        1.0080           
    4616 A    1154 TIP4 BD1  LP0     -1.358200        0.0000           
    4617 A    1155 TIP4 O1   OW0      0.000000       15.9990           
    4618 A    1155 TIP4 H1   HW0      0.679100        1.0080           
    4619 A    1155 TIP4 H2   HW0      0.679100        1.0080           
    4620 A    1155 TIP4 BD1  LP0     -1.358200        0.0000           
    4621 A    1156 TIP4 O1   OW0      0.000000       15.9990           
    4622 A    1156 TIP4 H1   HW0      0.679100        1.0080           
    4623 A    1156 TIP4 H2   HW0      0.679100        1.0080           
    4624 A    1156 TIP4 BD1  LP0     -1.358200        0.0000           
    4625 A    1157 TIP4 O1   OW0      0.000000       15.9990           
    4626 A    1157 TIP4 H1   HW0      0.679100        1.0080           
    4627 A    1157 TIP4 H2   HW0      0.679100        1.0080           
    4628 A    1157 TIP4 BD1  LP0     -1.358200        0.0000           
    4629 A    1158 TIP4 O1   OW0      0.000000       15.9990           
    4630 A    1158 TIP4 H1   HW0      0.679100        1.0080           
    4631 A    1158 TIP4 H2   HW0      0.679100        1.0080           
    4632 A    1158 TIP4 BD1  LP0     -1.358200        0.0000           
    4633 A    1159 TIP4 O1   OW0      0.000000       15.9990           
    4634 A    1159 TIP4 H1   HW0      0.679100        1.0080           
    4635 A    1159 TIP4 H2   HW0      0.679100        1.0080           
    4636 A    1159 TIP4 BD1  LP0     -1.358200        0.0000           
    4637 A    1160 TIP4 O1   OW0      0.000000       15.9990           
    4638 A    1160 TIP4 H1   HW0      0.679100        1.0080           
    4639 A    1160 TIP4 H2   HW0      0.679100        1.0080           
    4640 A    1160 TIP4 BD1  LP0     -1.358200        0.0000           
    4641 A    1161 TIP4 O1   OW0      0.000000       15.9990           
    4642 A    1161 TIP4 H1   HW0      0.679100        1.0080           
    4643 A    1161 TIP4 H2   HW0      0.679100        1.0080           
    4644 A    1161 TIP4 BD1  LP0     -1.358200        0.0000           
    4645 A    1162 TIP4 O1   OW0      0.000000       15.9990           
    4646 A    1162 TIP4 H1   HW0      0.679100        1.0080           
    4647 A    1162 TIP4 H2   HW0      0.679100        1.0080           
    4648 A    1162 TIP4 BD1  LP0     -1.358200        0.0000           
    4649 A    1163 TIP4 O1   OW0      0.000000       15.9990           
    4650 A    1163 TIP4 H1   HW0      0.679100        1.0080           
    4651 A    1163 TIP4 H2   HW0      0.679100        1.0080           
    4652 A    1163 TIP4 BD1  LP0     -1.358200        0.0000           
    4653 A    1164 TIP4 O1   OW0      0.000000       15.9990           
    4654 A    1164 TIP4 H1   HW0      0.679100        1.0080           
    4655 A    1164 TIP4 H2   HW0      0.679100        1.0080           
    4656 A    1164 TIP4 BD1  LP0     -1.358200        0.0000           
    4657 A    1165 TIP4 O1   OW0      0.000000       15.9990           
    4658 A    1165 TIP4 H1   HW0      0.679100        1.0080           
    4659 A    1165 TIP4 H2   HW0      0.679100        1.0080           
    4660 A    1165 TIP4 BD1  LP0     -1.358200        0.0000           
    4661 A    1166 TIP4 O1   OW0      0.000000       15.9990           
    4662 A    1166 TIP4 H1   HW0      0.679100        1.0080           
    4663 A    1166 TIP4 H2   HW0      0.679100        1.0080           
    4664 A    1166 TIP4 BD1  LP0     -1.358200        0.0000           
    4665 A    1167 TIP4 O1   OW0      0.000000       15.9990           
    4666 A    1167 TIP4 H1   HW0      0.679100        1.0080           
    4667 A    1167 TIP4 H2   HW0      0.679100        1.0080           
    4668 A    1167 TIP4 BD1  LP0     -1.358200        0.0000           
    4669 A    1168 TIP4 O1   OW0      0.000000       15.9990           
    4670 A    1168 TIP4 H1   HW0      0.679100        1.0080           
    4671 A    1168 TIP4 H2   HW0      0.679100        1.0080           
    4672 A    1168 TIP4 BD1  LP0     -1.358200        0.0000           
    4673 A    1169 TIP4 O1   OW0      0.000000       15.9990           
    4674 A    1169 TIP4 H1   HW0      0.679100        1.0080           
    4675 A    1169 TIP4 H2   HW0      0.679100        1.0080           
    4676 A    1169 TIP4 BD1  LP0     -1.358200        0.0000           
    4677 A    1170 TIP4 O1   OW0      0.000000       15.9990           
    4678 A    1170 TIP4 H1   HW0      0.679100        1.0080           
    4679 A    1170 TIP4 H2   HW0      0.679100        1.0080           
    4680 A    1170 TIP4 BD1  LP0     -1.358200        0.0000           
    4681 A    1171 TIP4 O1   OW0      0.000000       15.9990           
    4682 A    1171 TIP4 H1   HW0      0.679100        1.0080           
    4683 A    1171 TIP4 H2   HW0      0.679100        1.0080           
    4684 A    1171 TIP4 BD1  LP0     -1.358200        0.0000           
    4685 A    1172 TIP4 O1   OW0      0.000000       15.9990           
    4686 A    1172 TIP4 H1   HW0      0.679100        1.0080           
    4687 A    1172 TIP4 H2   HW0      0.679100        1.0080           
    4688 A    1172 TIP4 BD1  LP0     -1.358200        0.0000           
    4689 A    1173 TIP4 O1   OW0      0.000000       15.9990           
    4690 A    1173 TIP4 H1   HW0      0.679100        1.0080           
    4691 A    1173 TIP4 H2   HW0      0.679100        1.0080           
    4692 A    1173 TIP4 BD1  LP0     -1.358200        0.0000           
    4693 A    1174 TIP4 O1   OW0      0.000000       15.9990           
    4694 A    1174 TIP4 H1   HW0      0.679100        1.0080           
    4695 A    1174 TIP4 H2   HW0      0.679100        1.0080           
    4696 A    1174 TIP4 BD1  LP0     -1.358200        0.0000           
    4697 A    1175 TIP4 O1   OW0      0.000000       15.9990           
    4698 A    1175 TIP4 H1   HW0      0.679100        1.0080           
    4699 A    1175 TIP4 H2   HW0      0.679100        1.0080           
    4700 A    1175 TIP4 BD1  LP0     -1.358200        0.0000           
    4701 A    1176 TIP4 O1   OW0      0.000000       15.9990           
    4702 A    1176 TIP4 H1   HW0      0.679100        1.0080           
    4703 A    1176 TIP4 H2   HW0      0.679100        1.0080           
    4704 A    1176 TIP4 BD1  LP0     -1.358200        0.0000           
    4705 A    1177 TIP4 O1   OW0      0.000000       15.9990           
    4706 A    1177 TIP4 H1   HW0      0.679100        1.0080           
    4707 A    1177 TIP4 H2   HW0      0.679100        1.0080           
    4708 A    1177 TIP4 BD1  LP0     -1.358200        0.0000           
    4709 A    1178 TIP4 O1   OW0      0.000000       15.9990           
    4710 A    1178 TIP4 H1   HW0      0.679100        1.0080           
    4711 A    1178 TIP4 H2   HW0      0.679100        1.0080           
    4712 A    1178 TIP4 BD1  LP0     -1.358200        0.0000           
    4713 A    1179 TIP4 O1   OW0      0.000000       15.9990           
    4714 A    1179 TIP4 H1   HW0      0.679100        1.0080           
    4715 A    1179 TIP4 H2   HW0      0.679100        1.0080           
    4716 A    1179 TIP4 BD1  LP0     -1.358200        0.0000           
    4717 A    1180 TIP4 O1   OW0      0.000000       15.9990           
    4718 A    1180 TIP4 H1   HW0      0.679100        1.0080           
    4719 A    1180 TIP4 H2   HW0      0.679100        1.0080           
    4720 A    1180 TIP4 BD1  LP0     -1.358200        0.0000           
    4721 A    1181 TIP4 O1   OW0      0.000000       15.9990           
    4722 A    1181 TIP4 H1   HW0      0.679100        1.0080           
    4723 A    1181 TIP4 H2   HW0      0.679100        1.0080           
    4724 A    1181 TIP4 BD1  LP0     -1.358200        0.0000           
    4725 A    1182 TIP4 O1   OW0      0.000000       15.9990           
    4726 A    1182 TIP4 H1   HW0      0.679100        1.0080           
    4727 A    1182 TIP4 H2   HW0      0.679100        1.0080           
    4728 A    1182 TIP4 BD1  LP0     -1.358200        0.0000           
    4729 A    1183 TIP4 O1   OW0      0.000000       15.9990           
    4730 A    1183 TIP4 H1   HW0      0.679100        1.0080           
    4731 A    1183 TIP4 H2   HW0      0.679100        1.0080           
    4732 A    1183 TIP4 BD1  LP0     -1.358200        0.0000           
    4733 A    1184 TIP4 O1   OW0      0.000000       15.9990           
    4734 A    1184 TIP4 H1   HW0      0.679100        1.0080           
    4735 A    1184 TIP4 H2   HW0      0.679100        1.0080           
    4736 A    1184 TIP4 BD1  LP0     -1.358200        0.0000           
    4737 A    1185 TIP4 O1   OW0      0.000000       15.9990           
    4738 A    1185 TIP4 H1   HW0      0.679100        1.0080           
    4739 A    1185 TIP4 H2   HW0      0.679100        1.0080           
    4740 A    1185 TIP4 BD1  LP0     -1.358200        0.0000           
    4741 A    1186 TIP4 O1   OW0      0.000000       15.9990           
    4742 A    1186 TIP4 H1   HW0      0.679100        1.0080           
    4743 A    1186 TIP4 H2   HW0      0.679100        1.0080           
    4744 A    1186 TIP4 BD1  LP0     -1.358200        0.0000           
    4745 A    1187 TIP4 O1   OW0      0.000000       15.9990           
    4746 A    1187 TIP4 H1   HW0      0.679100        1.0080           
    4747 A    1187 TIP4 H2   HW0      0.679100        1.0080           
    4748 A    1187 TIP4 BD1  LP0     -1.358200        0.0000           
    4749 A    1188 TIP4 O1   OW0      0.000000       15.9990           
    4750 A    1188 TIP4 H1   HW0      0.679100        1.0080           
    4751 A    1188 TIP4 H2   HW0      0.679100        1.0080           
    4752 A    1188 TIP4 BD1  LP0     -1.358200        0.0000           
    4753 A    1189 TIP4 O1   OW0      0.000000       15.9990           
    4754 A    1189 TIP4 H1   HW0      0.679100        1.0080           
    4755 A    1189 TIP4 H2   HW0      0.679100        1.0080           
    4756 A    1189 TIP4 BD1  LP0     -1.358200        0.0000           
    4757 A    1190 TIP4 O1   OW0      0.000000       15.9990           
    4758 A    1190 TIP4 H1   HW0      0.679100        1.0080           
    4759 A    1190 TIP4 H2   HW0      0.679100        1.0080           
    4760 A    1190 TIP4 BD1  LP0     -1.358200        0.0000           
    4761 A    1191 TIP4 O1   OW0      0.000000       15.9990           
    4762 A    1191 TIP4 H1   HW0      0.679100        1.0080           
    4763 A    1191 TIP4 H2   HW0      0.679100        1.0080           
    4764 A    1191 TIP4 BD1  LP0     -1.358200        0.0000           
    4765 A    1192 TIP4 O1   OW0      0.000000       15.9990           
    4766 A    1192 TIP4 H1   HW0      0.679100        1.0080           
    4767 A    1192 TIP4 H2   HW0      0.679100        1.0080           
    4768 A    1192 TIP4 BD1  LP0     -1.358200        0.0000           
    4769 A    1193 TIP4 O1   OW0      0.000000       15.9990           
    4770 A    1193 TIP4 H1   HW0      0.679100        1.0080           
    4771 A    1193 TIP4 H2   HW0      0.679100        1.0080           
    4772 A    1193 TIP4 BD1  LP0     -1.358200        0.0000           
    4773 A    1194 TIP4 O1   OW0      0.000000       15.9990           
    4774 A    1194 TIP4 H1   HW0      0.679100        1.0080           
    4775 A    1194 TIP4 H2   HW0      0.679100        1.0080           
    4776 A    1194 TIP4 BD1  LP0     -1.358200        0.0000           
    4777 A    1195 TIP4 O1   OW0      0.000000       15.9990           
    4778 A    1195 TIP4 H1   HW0      0.679100        1.0080           
    4779 A    1195 TIP4 H2   HW0      0.679100        1.0080           
    4780 A    1195 TIP4 BD1  LP0     -1.358200        0.0000           
    4781 A    1196 TIP4 O1   OW0      0.000000       15.9990           
    4782 A    1196 TIP4 H1   HW0      0.679100        1.0080           
    4783 A    1196 TIP4 H2   HW0      0.679100        1.0080           
    4784 A    1196 TIP4 BD1  LP0     -1.358200        0.0000           
    4785 A    1197 TIP4 O1   OW0      0.000000       15.9990           
    4786 A    1197 TIP4 H1   HW0      0.679100        1.0080           
    4787 A    1197 TIP4 H2   HW0      0.679100        1.0080           
    4788 A    1197 TIP4 BD1  LP0     -1.358200        0.0000           
    4789 A    1198 TIP4 O1   OW0      0.000000       15.9990           
    4790 A    1198 TIP4 H1   HW0      0.679100        1.0080           
    4791 A    1198 TIP4 H2   HW0      0.679100        1.0080           
    4792 A    1198 TIP4 BD1  LP0     -1.358200        0.0000           
    4793 A    1199 TIP4 O1   OW0      0.000000       15.9990           
    4794 A    1199 TIP4 H1   HW0      0.679100        1.0080           
    4795 A    1199 TIP4 H2   HW0      0.679100        1.0080           
    4796 A    1199 TIP4 BD1  LP0     -1.358200        0.0000           
    4797 A    1200 TIP4 O1   OW0      0.000000       15.9990           
    4798 A    1200 TIP4 H1   HW0      0.679100        1.0080           
    4799 A    1200 TIP4 H2   HW0      0.679100        1.0080           
    4800 A    1200 TIP4 BD1  LP0     -1.358200        0.0000           
    4801 A    1201 TIP4 O1   OW0      0.000000       15.9990           
    4802 A    1201 TIP4 H1   HW0      0.679100        1.0080           
    4803 A    1201 TIP4 H2   HW0      0.679100        1.0080           
    4804 A    1201 TIP4 BD1  LP0     -1.358200        0.0000           
    4805 A    1202 TIP4 O1   OW0      0.000000       15.9990           
    4806 A    1202 TIP4 H1   HW0      0.679100        1.0080           
    4807 A    1202 TIP4 H2   HW0      0.679100        1.0080           
    4808 A    1202 TIP4 BD1  LP0     -1.358200        0.0000           
    4809 A    1203 TIP4 O1   OW0      0.000000       15.9990           
    4810 A    1203 TIP4 H1   HW0      0.679100        1.0080           
    4811 A    1203 TIP4 H2   HW0      0.679100        1.0080           
    4812 A    1203 TIP4 BD1  LP0     -1.358200        0.0000           
    4813 A    1204 TIP4 O1   OW0      0.000000       15.9990           
    4814 A    1204 TIP4 H1   HW0      0.679100        1.0080           
    4815 A    1204 TIP4 H2   HW0      0.679100        1.0080           
    4816 A    1204 TIP4 BD1  LP0     -1.358200        0.0000           
    4817 A    1205 TIP4 O1   OW0      0.000000       15.9990           
    4818 A    1205 TIP4 H1   HW0      0.679100        1.0080           
    4819 A    1205 TIP4 H2   HW0      0.679100        1.0080           
    4820 A    1205 TIP4 BD1  LP0     -1.358200        0.0000           
    4821 A    1206 TIP4 O1   OW0      0.000000       15.9990           
    4822 A    1206 TIP4 H1   HW0      0.679100        1.0080           
    4823 A    1206 TIP4 H2   HW0      0.679100        1.0080           
    4824 A    1206 TIP4 BD1  LP0     -1.358200        0.0000           
    4825 A    1207 TIP4 O1   OW0      0.000000       15.9990           
    4826 A    1207 TIP4 H1   HW0      0.679100        1.0080           
    4827 A    1207 TIP4 H2   HW0      0.679100        1.0080           
    4828 A    1207 TIP4 BD1  LP0     -1.358200        0.0000           
    4829 A    1208 TIP4 O1   OW0      0.000000       15.9990           
    4830 A    1208 TIP4 H1   HW0      0.679100        1.0080           
    4831 A    1208 TIP4 H2   HW0      0.679100        1.0080           
    4832 A    1208 TIP4 BD1  LP0     -1.358200        0.0000           
    4833 A    1209 TIP4 O1   OW0      0.000000       15.9990           
    4834 A    1209 TIP4 H1   HW0      0.679100        1.0080           
    4835 A    1209 TIP4 H2   HW0      0.679100        1.0080           
    4836 A    1209 TIP4 BD1  LP0     -1.358200        0.0000           
    4837 A    1210 TIP4 O1   OW0      0.000000       15.9990           
    4838 A    1210 TIP4 H1   HW0      0.679100        1.0080           
    4839 A    1210 TIP4 H2   HW0      0.679100        1.0080           
    4840 A    1210 TIP4 BD1  LP0     -1.358200        0.0000           
    4841 A    1211 TIP4 O1   OW0      0.000000       15.9990           
    4842 A    1211 TIP4 H1   HW0      0.679100        1.0080           
    4843 A    1211 TIP4 H2   HW0      0.679100        1.0080           
    4844 A    1211 TIP4 BD1  LP0     -1.358200        0.0000           
    4845 A    1212 TIP4 O1   OW0      0.000000       15.9990           
    4846 A    1212 TIP4 H1   HW0      0.679100        1.0080           
    4847 A    1212 TIP4 H2   HW0      0.679100        1.0080           
    4848 A    1212 TIP4 BD1  LP0     -1.358200        0.0000           
    4849 A    1213 TIP4 O1   OW0      0.000000       15.9990           
    4850 A    1213 TIP4 H1   HW0      0.679100        1.0080           
    4851 A    1213 TIP4 H2   HW0      0.679100        1.0080           
    4852 A    1213 TIP4 BD1  LP0     -1.358200        0.0000           
    4853 A    1214 TIP4 O1   OW0      0.000000       15.9990           
    4854 A    1214 TIP4 H1   HW0      0.679100        1.0080           
    4855 A    1214 TIP4 H2   HW0      0.679100        1.0080           
    4856 A    1214 TIP4 BD1  LP0     -1.358200        0.0000           
    4857 A    1215 TIP4 O1   OW0      0.000000       15.9990           
    4858 A    1215 TIP4 H1   HW0      0.679100        1.0080           
    4859 A    1215 TIP4 H2   HW0      0.679100        1.0080           
    4860 A    1215 TIP4 BD1  LP0     -1.358200        0.0000           
    4861 A    1216 TIP4 O1   OW0      0.000000       15.9990           
    4862 A    1216 TIP4 H1   HW0      0.679100        1.0080           
    4863 A    1216 TIP4 H2   HW0      0.679100        1.0080           
    4864 A    1216 TIP4 BD1  LP0     -1.358200        0.0000           
    4865 A    1217 TIP4 O1   OW0      0.000000       15.9990           
    4866 A    1217 TIP4 H1   HW0      0.679100        1.0080           
    4867 A    1217 TIP4 H2   HW0      0.679100        1.0080           
    4868 A    1217 TIP4 BD1  LP0     -1.358200        0.0000           
    4869 A    1218 TIP4 O1   OW0      0.000000       15.9990           
    4870 A    1218 TIP4 H1   HW0      0.679100        1.0080           
    4871 A    1218 TIP4 H2   HW0      0.679100        1.0080           
    4872 A    1218 TIP4 BD1  LP0     -1.358200        0.0000           
    4873 A    1219 TIP4 O1   OW0      0.000000       15.9990           
    4874 A    1219 TIP4 H1   HW0      0.679100        1.0080           
    4875 A    1219 TIP4 H2   HW0      0.679100        1.0080           
    4876 A    1219 TIP4 BD1  LP0     -1.358200        0.0000           
    4877 A    1220 TIP4 O1   OW0      0.000000       15.9990           
    4878 A    1220 TIP4 H1   HW0      0.679100        1.0080           
    4879 A    1220 TIP4 H2   HW0      0.679100        1.0080           
    4880 A    1220 TIP4 BD1  LP0     -1.358200        0.0000           
    4881 A    1221 TIP4 O1   OW0      0.000000       15.9990           
    4882 A    1221 TIP4 H1   HW0      0.679100        1.0080           
    4883 A    1221 TIP4 H2   HW0      0.679100        1.0080           
    4884 A    1221 TIP4 BD1  LP0     -1.358200        0.0000           
    4885 A    1222 TIP4 O1   OW0      0.000000       15.9990           
    4886 A    1222 TIP4 H1   HW0      0.679100        1.0080           
    4887 A    1222 TIP4 H2   HW0      0.679100        1.0080           
    4888 A    1222 TIP4 BD1  LP0     -1.358200        0.0000           
    4889 A    1223 TIP4 O1   OW0      0.000000       15.9990           
    4890 A    1223 TIP4 H1   HW0      0.679100        1.0080           
    4891 A    1223 TIP4 H2   HW0      0.679100        1.0080           
    4892 A    1223 TIP4 BD1  LP0     -1.358200        0.0000           
    4893 A    1224 TIP4 O1   OW0      0.000000       15.9990           
    4894 A    1224 TIP4 H1   HW0      0.679100        1.0080           
    4895 A    1224 TIP4 H2   HW0      0.679100        1.0080           
    4896 A    1224 TIP4 BD1  LP0     -1.358200        0.0000           
    4897 A    1225 TIP4 O1   OW0      0.000000       15.9990           
    4898 A    1225 TIP4 H1   HW0      0.679100        1.0080           
    4899 A    1225 TIP4 H2   HW0      0.679100        1.0080           
    4900 A    1225 TIP4 BD1  LP0     -1.358200        0.0000           
    4901 A    1226 TIP4 O1   OW0      0.000000       15.9990           
    4902 A    1226 TIP4 H1   HW0      0.679100        1.0080           
    4903 A    1226 TIP4 H2   HW0      0.679100        1.0080           
    4904 A    1226 TIP4 BD1  LP0     -1.358200        0.0000           
    4905 A    1227 TIP4 O1   OW0      0.000000       15.9990           
    4906 A    1227 TIP4 H1   HW0      0.679100        1.0080           
    4907 A    1227 TIP4 H2   HW0      0.679100        1.0080           
    4908 A    1227 TIP4 BD1  LP0     -1.358200        0.0000           
    4909 A    1228 TIP4 O1   OW0      0.000000       15.9990           
    4910 A    1228 TIP4 H1   HW0      0.679100        1.0080           
    4911 A    1228 TIP4 H2   HW0      0.679100        1.0080           
    4912 A    1228 TIP4 BD1  LP0     -1.358200        0.0000           
    4913 A    1229 TIP4 O1   OW0      0.000000       15.9990           
    4914 A    1229 TIP4 H1   HW0      0.679100        1.0080           
    4915 A    1229 TIP4 H2   HW0      0.679100        1.0080           
    4916 A    1229 TIP4 BD1  LP0     -1.358200        0.0000           
    4917 A    1230 TIP4 O1   OW0      0.000000       15.9990           
    4918 A    1230 TIP4 H1   HW0      0.679100        1.0080           
    4919 A    1230 TIP4 H2   HW0      0.679100        1.0080           
    4920 A    1230 TIP4 BD1  LP0     -1.358200        0.0000           
    4921 A    1231 TIP4 O1   OW0      0.000000       15.9990           
    4922 A    1231 TIP4 H1   HW0      0.679100        1.0080           
    4923 A    1231 TIP4 H2   HW0      0.679100        1.0080           
    4924 A    1231 TIP4 BD1  LP0     -1.358200        0.0000           
    4925 A    1232 TIP4 O1   OW0      0.000000       15.9990           
    4926 A    1232 TIP4 H1   HW0      0.679100        1.0080           
    4927 A    1232 TIP4 H2   HW0      0.679100        1.0080           
    4928 A    1232 TIP4 BD1  LP0     -1.358200        0.0000           
    4929 A    1233 TIP4 O1   OW0      0.000000       15.9990           
    4930 A    1233 TIP4 H1   HW0      0.679100        1.0080           
    4931 A    1233 TIP4 H2   HW0      0.679100        1.0080           
    4932 A    1233 TIP4 BD1  LP0     -1.358200        0.0000           
    4933 A    1234 TIP4 O1   OW0      0.000000       15.9990           
    4934 A    1234 TIP4 H1   HW0      0.679100        1.0080           
    4935 A    1234 TIP4 H2   HW0      0.679100        1.0080           
    4936 A    1234 TIP4 BD1  LP0     -1.358200        0.0000           
    4937 A    1235 TIP4 O1   OW0      0.000000       15.9990           
    4938 A    1235 TIP4 H1   HW0      0.679100        1.0080           
    4939 A    1235 TIP4 H2   HW0      0.679100        1.0080           
    4940 A    1235 TIP4 BD1  LP0     -1.358200        0.0000           
    4941 A    1236 TIP4 O1   OW0      0.000000       15.9990           
    4942 A    1236 TIP4 H1   HW0      0.679100        1.0080           
    4943 A    1236 TIP4 H2   HW0      0.679100        1.0080           
    4944 A    1236 TIP4 BD1  LP0     -1.358200        0.0000           
    4945 A    1237 TIP4 O1   OW0      0.000000       15.9990           
    4946 A    1237 TIP4 H1   HW0      0.679100        1.0080           
    4947 A    1237 TIP4 H2   HW0      0.679100        1.0080           
    4948 A    1237 TIP4 BD1  LP0     -1.358200        0.0000           
    4949 A    1238 TIP4 O1   OW0      0.000000       15.9990           
    4950 A    1238 TIP4 H1   HW0      0.679100        1.0080           
    4951 A    1238 TIP4 H2   HW0      0.679100        1.0080           
    4952 A    1238 TIP4 BD1  LP0     -1.358200        0.0000           
    4953 A    1239 TIP4 O1   OW0      0.000000       15.9990           
    4954 A    1239 TIP4 H1   HW0      0.679100        1.0080           
    4955 A    1239 TIP4 H2   HW0      0.679100        1.0080           
    4956 A    1239 TIP4 BD1  LP0     -1.358200        0.0000           
    4957 A    1240 TIP4 O1   OW0      0.000000       15.9990           
    4958 A    1240 TIP4 H1   HW0      0.679100        1.0080           
    4959 A    1240 TIP4 H2   HW0      0.679100        1.0080           
    4960 A    1240 TIP4 BD1  LP0     -1.358200        0.0000           
    4961 A    1241 TIP4 O1   OW0      0.000000       15.9990           
    4962 A    1241 TIP4 H1   HW0      0.679100        1.0080           
    4963 A    1241 TIP4 H2   HW0      0.679100        1.0080           
    4964 A    1241 TIP4 BD1  LP0     -1.358200        0.0000           
    4965 A    1242 TIP4 O1   OW0      0.000000       15.9990           
    4966 A    1242 TIP4 H1   HW0      0.679100        1.0080           
    4967 A    1242 TIP4 H2   HW0      0.679100        1.0080           
    4968 A    1242 TIP4 BD1  LP0     -1.358200        0.0000           
    4969 A    1243 TIP4 O1   OW0      0.000000       15.9990           
    4970 A    1243 TIP4 H1   HW0      0.679100        1.0080           
    4971 A    1243 TIP4 H2   HW0      0.679100        1.0080           
    4972 A    1243 TIP4 BD1  LP0     -1.358200        0.0000           
    4973 A    1244 TIP4 O1   OW0      0.000000       15.9990           
    4974 A    1244 TIP4 H1   HW0      0.679100        1.0080           
    4975 A    1244 TIP4 H2   HW0      0.679100        1.0080           
    4976 A    1244 TIP4 BD1  LP0     -1.358200        0.0000           
    4977 A    1245 TIP4 O1   OW0      0.000000       15.9990           
    4978 A    1245 TIP4 H1   HW0      0.679100        1.0080           
    4979 A    1245 TIP4 H2   HW0      0.679100        1.0080           
    4980 A    1245 TIP4 BD1  LP0     -1.358200        0.0000           
    4981 A    1246 TIP4 O1   OW0      0.000000       15.9990           
    4982 A    1246 TIP4 H1   HW0      0.679100        1.0080           
    4983 A    1246 TIP4 H2   HW0      0.679100        1.0080           
    4984 A    1246 TIP4 BD1  LP0     -1.358200        0.0000           
    4985 A    1247 TIP4 O1   OW0      0.000000       15.9990           
    4986 A    1247 TIP4 H1   HW0      0.679100        1.0080           
    4987 A    1247 TIP4 H2   HW0      0.679100        1.0080           
    4988 A    1247 TIP4 BD1  LP0     -1.358200        0.0000           
    4989 A    1248 TIP4 O1   OW0      0.000000       15.9990           
    4990 A    1248 TIP4 H1   HW0      0.679100        1.0080           
    4991 A    1248 TIP4 H2   HW0      0.679100        1.0080           
    4992 A    1248 TIP4 BD1  LP0     -1.358200        0.0000           
    4993 A    1249 TIP4 O1   OW0      0.000000       15.9990           
    4994 A    1249 TIP4 H1   HW0      0.679100        1.0080           
    4995 A    1249 TIP4 H2   HW0      0.679100        1.0080           
    4996 A    1249 TIP4 BD1  LP0     -1.358200        0.0000           
    4997 A    1250 TIP4 O1   OW0      0.000000       15.9990           
    4998 A    1250 TIP4 H1   HW0      0.679100        1.0080           
    4999 A    1250 TIP4 H2   HW0      0.679100        1.0080           
    5000 A    1250 TIP4 BD1  LP0     -1.358200        0.0000           
    5001 A    1251 TIP4 O1   OW0      0.000000       15.9990           
    5002 A    1251 TIP4 H1   HW0      0.679100        1.0080           
    5003 A    1251 TIP4 H2   HW0      0.679100        1.0080           
    5004 A    1251 TIP4 BD1  LP0     -1.358200        0.0000           
    5005 A    1252 TIP4 O1   OW0      0.000000       15.9990           
    5006 A    1252 TIP4 H1   HW0      0.679100        1.0080           
    5007 A    1252 TIP4 H2   HW0      0.679100        1.0080           
    5008 A    1252 TIP4 BD1  LP0     -1.358200        0.0000           
    5009 A    1253 TIP4 O1   OW0      0.000000       15.9990           
    5010 A    1253 TIP4 H1   HW0      0.679100        1.0080           
    5011 A    1253 TIP4 H2   HW0      0.679100        1.0080           
    5012 A    1253 TIP4 BD1  LP0     -1.358200        0.0000           
    5013 A    1254 TIP4 O1   OW0      0.000000       15.9990           
    5014 A    1254 TIP4 H1   HW0      0.679100        1.0080           
    5015 A    1254 TIP4 H2   HW0      0.679100        1.0080           
    5016 A    1254 TIP4 BD1  LP0     -1.358200        0.0000           
    5017 A    1255 TIP4 O1   OW0      0.000000       15.9990           
    5018 A    1255 TIP4 H1   HW0      0.679100        1.0080           
    5019 A    1255 TIP4 H2   HW0      0.679100        1.0080           
    5020 A    1255 TIP4 BD1  LP0     -1.358200        0.0000           
    5021 A    1256 TIP4 O1   OW0      0.000000       15.9990           
    5022 A    1256 TIP4 H1   HW0      0.679100        1.0080           
    5023 A    1256 TIP4 H2   HW0      0.679100        1.0080           
    5024 A    1256 TIP4 BD1  LP0     -1.358200        0.0000           
    5025 A    1257 TIP4 O1   OW0      0.000000       15.9990           
    5026 A    1257 TIP4 H1   HW0      0.679100        1.0080           
    5027 A    1257 TIP4 H2   HW0      0.679100        1.0080           
    5028 A    1257 TIP4 BD1  LP0     -1.358200        0.0000           
    5029 A    1258 TIP4 O1   OW0      0.000000       15.9990           
    5030 A    1258 TIP4 H1   HW0      0.679100        1.0080           
    5031 A    1258 TIP4 H2   HW0      0.679100        1.0080           
    5032 A    1258 TIP4 BD1  LP0     -1.358200        0.0000           
    5033 A    1259 TIP4 O1   OW0      0.000000       15.9990           
    5034 A    1259 TIP4 H1   HW0      0.679100        1.0080           
    5035 A    1259 TIP4 H2   HW0      0.679100        1.0080           
    5036 A    1259 TIP4 BD1  LP0     -1.358200        0.0000           
    5037 A    1260 TIP4 O1   OW0      0.000000       15.9990           
    5038 A    1260 TIP4 H1   HW0      0.679100        1.0080           
    5039 A    1260 TIP4 H2   HW0      0.679100        1.0080           
    5040 A    1260 TIP4 BD1  LP0     -1.358200        0.0000           
    5041 A    1261 TIP4 O1   OW0      0.000000       15.9990           
    5042 A    1261 TIP4 H1   HW0      0.679100        1.0080           
    5043 A    1261 TIP4 H2   HW0      0.679100        1.0080           
    5044 A    1261 TIP4 BD1  LP0     -1.358200        0.0000           
    5045 A    1262 TIP4 O1   OW0      0.000000       15.9990           
    5046 A    1262 TIP4 H1   HW0      0.679100        1.0080           
    5047 A    1262 TIP4 H2   HW0      0.679100        1.0080           
    5048 A    1262 TIP4 BD1  LP0     -1.358200        0.0000           
    5049 A    1263 TIP4 O1   OW0      0.000000       15.9990           
    5050 A    1263 TIP4 H1   HW0      0.679100        1.0080           
    5051 A    1263 TIP4 H2   HW0      0.679100        1.0080           
    5052 A    1263 TIP4 BD1  LP0     -1.358200        0.0000           
    5053 A    1264 TIP4 O1   OW0      0.000000       15.9990           
    5054 A    1264 TIP4 H1   HW0      0.679100        1.0080           
    5055 A    1264 TIP4 H2   HW0      0.679100        1.0080           
    5056 A    1264 TIP4 BD1  LP0     -1.358200        0.0000           
    5057 A    1265 TIP4 O1   OW0      0.000000       15.9990           
    5058 A    1265 TIP4 H1   HW0      0.679100        1.0080           
    5059 A    1265 TIP4 H2   HW0      0.679100        1.0080           
    5060 A    1265 TIP4 BD1  LP0     -1.358200        0.0000           
    5061 A    1266 TIP4 O1   OW0      0.000000       15.9990           
    5062 A    1266 TIP4 H1   HW0      0.679100        1.0080           
    5063 A    1266 TIP4 H2   HW0      0.679100        1.0080           
    5064 A    1266 TIP4 BD1  LP0     -1.358200        0.0000           
    5065 A    1267 TIP4 O1   OW0      0.000000       15.9990           
    5066 A    1267 TIP4 H1   HW0      0.679100        1.0080           
    5067 A    1267 TIP4 H2   HW0      0.679100        1.0080           
    5068 A    1267 TIP4 BD1  LP0     -1.358200        0.0000           
    5069 A    1268 TIP4 O1   OW0      0.000000       15.9990           
    5070 A    1268 TIP4 H1   HW0      0.679100        1.0080           
    5071 A    1268 TIP4 H2   HW0      0.679100        1.0080           
    5072 A    1268 TIP4 BD1  LP0     -1.358200        0.0000           
    5073 A    1269 TIP4 O1   OW0      0.000000       15.9990           
    5074 A    1269 TIP4 H1   HW0      0.679100        1.0080           
    5075 A    1269 TIP4 H2   HW0      0.679100        1.0080           
    5076 A    1269 TIP4 BD1  LP0     -1.358200        0.0000           
    5077 A    1270 TIP4 O1   OW0      0.000000       15.9990           
    5078 A    1270 TIP4 H1   HW0      0.679100        1.0080           
    5079 A    1270 TIP4 H2   HW0      0.679100        1.0080           
    5080 A    1270 TIP4 BD1  LP0     -1.358200        0.0000           
    5081 A    1271 TIP4 O1   OW0      0.000000       15.9990           
    5082 A    1271 TIP4 H1   HW0      0.679100        1.0080           
    5083 A    1271 TIP4 H2   HW0      0.679100        1.0080           
    5084 A    1271 TIP4 BD1  LP0     -1.358200        0.0000           
    5085 A    1272 TIP4 O1   OW0      0.000000       15.9990           
    5086 A    1272 TIP4 H1   HW0      0.679100        1.0080           
    5087 A    1272 TIP4 H2   HW0      0.679100        1.0080           
    5088 A    1272 TIP4 BD1  LP0     -1.358200        0.0000           
    5089 A    1273 TIP4 O1   OW0      0.000000       15.9990           
    5090 A    1273 TIP4 H1   HW0      0.679100        1.0080           
    5091 A    1273 TIP4 H2   HW0      0.679100        1.0080           
    5092 A    1273 TIP4 BD1  LP0     -1.358200        0.0000           
    5093 A    1274 TIP4 O1   OW0      0.000000       15.9990           
    5094 A    1274 TIP4 H1   HW0      0.679100        1.0080           
    5095 A    1274 TIP4 H2   HW0      0.679100        1.0080           
    5096 A    1274 TIP4 BD1  LP0     -1.358200        0.0000           
    5097 A    1275 TIP4 O1   OW0      0.000000       15.9990           
    5098 A    1275 TIP4 H1   HW0      0.679100        1.0080           
    5099 A    1275 TIP4 H2   HW0      0.679100        1.0080           
    5100 A    1275 TIP4 BD1  LP0     -1.358200        0.0000           
    5101 A    1276 TIP4 O1   OW0      0.000000       15.9990           
    5102 A    1276 TIP4 H1   HW0      0.679100        1.0080           
    5103 A    1276 TIP4 H2   HW0      0.679100        1.0080           
    5104 A    1276 TIP4 BD1  LP0     -1.358200        0.0000           
    5105 A    1277 TIP4 O1   OW0      0.000000       15.9990           
    5106 A    1277 TIP4 H1   HW0      0.679100        1.0080           
    5107 A    1277 TIP4 H2   HW0      0.679100        1.0080           
    5108 A    1277 TIP4 BD1  LP0     -1.358200        0.0000           
    5109 A    1278 TIP4 O1   OW0      0.000000       15.9990           
    5110 A    1278 TIP4 H1   HW0      0.679100        1.0080           
    5111 A    1278 TIP4 H2   HW0      0.679100        1.0080           
    5112 A    1278 TIP4 BD1  LP0     -1.358200        0.0000           
    5113 A    1279 TIP4 O1   OW0      0.000000       15.9990           
    5114 A    1279 TIP4 H1   HW0      0.679100        1.0080           
    5115 A    1279 TIP4 H2   HW0      0.679100        1.0080           
    5116 A    1279 TIP4 BD1  LP0     -1.358200        0.0000           
    5117 A    1280 TIP4 O1   OW0      0.000000       15.9990           
    5118 A    1280 TIP4 H1   HW0      0.679100        1.0080           
    5119 A    1280 TIP4 H2   HW0      0.679100        1.0080           
    5120 A    1280 TIP4 BD1  LP0     -1.358200        0.0000           
    5121 A    1281 TIP4 O1   OW0      0.000000       15.9990           
    5122 A    1281 TIP4 H1   HW0      0.679100        1.0080           
    5123 A    1281 TIP4 H2   HW0      0.679100        1.0080           
    5124 A    1281 TIP4 BD1  LP0     -1.358200        0.0000           
    5125 A    1282 TIP4 O1   OW0      0.000000       15.9990           
    5126 A    1282 TIP4 H1   HW0      0.679100        1.0080           
    5127 A    1282 TIP4 H2   HW0      0.679100        1.0080           
    5128 A    1282 TIP4 BD1  LP0     -1.358200        0.0000           
    5129 A    1283 TIP4 O1   OW0      0.000000       15.9990           
    5130 A    1283 TIP4 H1   HW0      0.679100        1.0080           
    5131 A    1283 TIP4 H2   HW0      0.679100        1.0080           
    5132 A    1283 TIP4 BD1  LP0     -1.358200        0.0000           
    5133 A    1284 TIP4 O1   OW0      0.000000       15.9990           
    5134 A    1284 TIP4 H1   HW0      0.679100        1.0080           
    5135 A    1284 TIP4 H2   HW0      0.679100        1.0080           
    5136 A    1284 TIP4 BD1  LP0     -1.358200        0.0000           
    5137 A    1285 TIP4 O1   OW0      0.000000       15.9990           
    5138 A    1285 TIP4 H1   HW0      0.679100        1.0080           
    5139 A    1285 TIP4 H2   HW0      0.679100        1.0080           
    5140 A    1285 TIP4 BD1  LP0     -1.358200        0.0000           
    5141 A    1286 TIP4 O1   OW0      0.000000       15.9990           
    5142 A    1286 TIP4 H1   HW0      0.679100        1.0080           
    5143 A    1286 TIP4 H2   HW0      0.679100        1.0080           
    5144 A    1286 TIP4 BD1  LP0     -1.358200        0.0000           
    5145 A    1287 TIP4 O1   OW0      0.000000       15.9990           
    5146 A    1287 TIP4 H1   HW0      0.679100        1.0080           
    5147 A    1287 TIP4 H2   HW0      0.679100        1.0080           
    5148 A    1287 TIP4 BD1  LP0     -1.358200        0.0000           
    5149 A    1288 TIP4 O1   OW0      0.000000       15.9990           
    5150 A    1288 TIP4 H1   HW0      0.679100        1.0080           
    5151 A    1288 TIP4 H2   HW0      0.679100        1.0080           
    5152 A    1288 TIP4 BD1  LP0     -1.358200        0.0000           
    5153 A    1289 TIP4 O1   OW0      0.000000       15.9990           
    5154 A    1289 TIP4 H1   HW0      0.679100        1.0080           
    5155 A    1289 TIP4 H2   HW0      0.679100        1.0080           
    5156 A    1289 TIP4 BD1  LP0     -1.358200        0.0000           
    5157 A    1290 TIP4 O1   OW0      0.000000       15.9990           
    5158 A    1290 TIP4 H1   HW0      0.679100        1.0080           
    5159 A    1290 TIP4 H2   HW0      0.679100        1.0080           
    5160 A    1290 TIP4 BD1  LP0     -1.358200        0.0000           
    5161 A    1291 TIP4 O1   OW0      0.000000       15.9990           
    5162 A    1291 TIP4 H1   HW0      0.679100        1.0080           
    5163 A    1291 TIP4 H2   HW0      0.679100        1.0080           
    5164 A    1291 TIP4 BD1  LP0     -1.358200        0.0000           
    5165 A    1292 TIP4 O1   OW0      0.000000       15.9990           
    5166 A    1292 TIP4 H1   HW0      0.679100        1.0080           
    5167 A    1292 TIP4 H2   HW0      0.679100        1.0080           
    5168 A    1292 TIP4 BD1  LP0     -1.358200        0.0000           
    5169 A    1293 TIP4 O1   OW0      0.000000       15.9990           
    5170 A    1293 TIP4 H1   HW0      0.679100        1.0080           
    5171 A    1293 TIP4 H2   HW0      0.679100        1.0080           
    5172 A    1293 TIP4 BD1  LP0     -1.358200        0.0000           
    5173 A    1294 TIP4 O1   OW0      0.000000       15.9990           
    5174 A    1294 TIP4 H1   HW0      0.679100        1.0080           
    5175 A    1294 TIP4 H2   HW0      0.679100        1.0080           
    5176 A    1294 TIP4 BD1  LP0     -1.358200        0.0000           
    5177 A    1295 TIP4 O1   OW0      0.000000       15.9990           
    5178 A    1295 TIP4 H1   HW0      0.679100        1.0080           
    5179 A    1295 TIP4 H2   HW0      0.679100        1.0080           
    5180 A    1295 TIP4 BD1  LP0     -1.358200        0.0000           
    5181 A    1296 TIP4 O1   OW0      0.000000       15.9990           
    5182 A    1296 TIP4 H1   HW0      0.679100        1.0080           
    5183 A    1296 TIP4 H2   HW0      0.679100        1.0080           
    5184 A    1296 TIP4 BD1  LP0     -1.358200        0.0000           
    5185 A    1297 TIP4 O1   OW0      0.000000       15.9990           
    5186 A    1297 TIP4 H1   HW0      0.679100        1.0080           
    5187 A    1297 TIP4 H2   HW0      0.679100        1.0080           
    5188 A    1297 TIP4 BD1  LP0     -1.358200        0.0000           
    5189 A    1298 TIP4 O1   OW0      0.000000       15.9990           
    5190 A    1298 TIP4 H1   HW0      0.679100        1.0080           
    5191 A    1298 TIP4 H2   HW0      0.679100        1.0080           
    5192 A    1298 TIP4 BD1  LP0     -1.358200        0.0000           
    5193 A    1299 TIP4 O1   OW0      0.000000       15.9990           
    5194 A    1299 TIP4 H1   HW0      0.679100        1.0080           
    5195 A    1299 TIP4 H2   HW0      0.679100        1.0080           
    5196 A    1299 TIP4 BD1  LP0     -1.358200        0.0000           
    5197 A    1300 TIP4 O1   OW0      0.000000       15.9990           
    5198 A    1300 TIP4 H1   HW0      0.679100        1.0080           
    5199 A    1300 TIP4 H2   HW0      0.679100        1.0080           
    5200 A    1300 TIP4 BD1  LP0     -1.358200        0.0000           
    5201 A    1301 TIP4 O1   OW0      0.000000       15.9990           
    5202 A    1301 TIP4 H1   HW0      0.679100        1.0080           
    5203 A    1301 TIP4 H2   HW0      0.679100        1.0080           
    5204 A    1301 TIP4 BD1  LP0     -1.358200        0.0000           
    5205 A    1302 TIP4 O1   OW0      0.000000       15.9990           
    5206 A    1302 TIP4 H1   HW0      0.679100        1.0080           
    5207 A    1302 TIP4 H2   HW0      0.679100        1.0080           
    5208 A    1302 TIP4 BD1  LP0     -1.358200        0.0000           
    5209 A    1303 TIP4 O1   OW0      0.000000       15.9990           
    5210 A    1303 TIP4 H1   HW0      0.679100        1.0080           
    5211 A    1303 TIP4 H2   HW0      0.679100        1.0080           
    5212 A    1303 TIP4 BD1  LP0     -1.358200        0.0000           
    5213 A    1304 TIP4 O1   OW0      0.000000       15.9990           
    5214 A    1304 TIP4 H1   HW0      0.679100        1.0080           
    5215 A    1304 TIP4 H2   HW0      0.679100        1.0080           
    5216 A    1304 TIP4 BD1  LP0     -1.358200        0.0000           
    5217 A    1305 TIP4 O1   OW0      0.000000       15.9990           
    5218 A    1305 TIP4 H1   HW0      0.679100        1.0080           
    5219 A    1305 TIP4 H2   HW0      0.679100        1.0080           
    5220 A    1305 TIP4 BD1  LP0     -1.358200        0.0000           
    5221 A    1306 TIP4 O1   OW0      0.000000       15.9990           
    5222 A    1306 TIP4 H1   HW0      0.679100        1.0080           
    5223 A    1306 TIP4 H2   HW0      0.679100        1.0080           
    5224 A    1306 TIP4 BD1  LP0     -1.358200        0.0000           
    5225 A    1307 TIP4 O1   OW0      0.000000       15.9990           
    5226 A    1307 TIP4 H1   HW0      0.679100        1.0080           
    5227 A    1307 TIP4 H2   HW0      0.679100        1.0080           
    5228 A    1307 TIP4 BD1  LP0     -1.358200        0.0000           
    5229 A    1308 TIP4 O1   OW0      0.000000       15.9990           
    5230 A    1308 TIP4 H1   HW0      0.679100        1.0080           
    5231 A    1308 TIP4 H2   HW0      0.679100        1.0080           
    5232 A    1308 TIP4 BD1  LP0     -1.358200        0.0000           
    5233 A    1309 TIP4 O1   OW0      0.000000       15.9990           
    5234 A    1309 TIP4 H1   HW0      0.679100        1.0080           
    5235 A    1309 TIP4 H2   HW0      0.679100        1.0080           
    5236 A    1309 TIP4 BD1  LP0     -1.358200        0.0000           
    5237 A    1310 TIP4 O1   OW0      0.000000       15.9990           
    5238 A    1310 TIP4 H1   HW0      0.679100        1.0080           
    5239 A    1310 TIP4 H2   HW0      0.679100        1.0080           
    5240 A    1310 TIP4 BD1  LP0     -1.358200        0.0000           
    5241 A    1311 TIP4 O1   OW0      0.000000       15.9990           
    5242 A    1311 TIP4 H1   HW0      0.679100        1.0080           
    5243 A    1311 TIP4 H2   HW0      0.679100        1.0080           
    5244 A    1311 TIP4 BD1  LP0     -1.358200        0.0000           
    5245 A    1312 TIP4 O1   OW0      0.000000       15.9990           
    5246 A    1312 TIP4 H1   HW0      0.679100        1.0080           
    5247 A    1312 TIP4 H2   HW0      0.679100        1.0080           
    5248 A    1312 TIP4 BD1  LP0     -1.358200        0.0000           
    5249 A    1313 TIP4 O1   OW0      0.000000       15.9990           
    5250 A    1313 TIP4 H1   HW0      0.679100        1.0080           
    5251 A    1313 TIP4 H2   HW0      0.679100        1.0080           
    5252 A    1313 TIP4 BD1  LP0     -1.358200        0.0000           
    5253 A    1314 TIP4 O1   OW0      0.000000       15.9990           
    5254 A    1314 TIP4 H1   HW0      0.679100        1.0080           
    5255 A    1314 TIP4 H2   HW0      0.679100        1.0080           
    5256 A    1314 TIP4 BD1  LP0     -1.358200        0.0000           
    5257 A    1315 TIP4 O1   OW0      0.000000       15.9990           
    5258 A    1315 TIP4 H1   HW0      0.679100        1.0080           
    5259 A    1315 TIP4 H2   HW0      0.679100        1.0080           
    5260 A    1315 TIP4 BD1  LP0     -1.358200        0.0000           
    5261 A    1316 TIP4 O1   OW0      0.000000       15.9990           
    5262 A    1316 TIP4 H1   HW0      0.679100        1.0080           
    5263 A    1316 TIP4 H2   HW0      0.679100        1.0080           
    5264 A    1316 TIP4 BD1  LP0     -1.358200        0.0000           
    5265 A    1317 TIP4 O1   OW0      0.000000       15.9990           
    5266 A    1317 TIP4 H1   HW0      0.679100        1.0080           
    5267 A    1317 TIP4 H2   HW0      0.679100        1.0080           
    5268 A    1317 TIP4 BD1  LP0     -1.358200        0.0000           
    5269 A    1318 TIP4 O1   OW0      0.000000       15.9990           
    5270 A    1318 TIP4 H1   HW0      0.679100        1.0080           
    5271 A    1318 TIP4 H2   HW0      0.679100        1.0080           
    5272 A    1318 TIP4 BD1  LP0     -1.358200        0.0000           
    5273 A    1319 TIP4 O1   OW0      0.000000       15.9990           
    5274 A    1319 TIP4 H1   HW0      0.679100        1.0080           
    5275 A    1319 TIP4 H2   HW0      0.679100        1.0080           
    5276 A    1319 TIP4 BD1  LP0     -1.358200        0.0000           
    5277 A    1320 TIP4 O1   OW0      0.000000       15.9990           
    5278 A    1320 TIP4 H1   HW0      0.679100        1.0080           
    5279 A    1320 TIP4 H2   HW0      0.679100        1.0080           
    5280 A    1320 TIP4 BD1  LP0     -1.358200        0.0000           
    5281 A    1321 TIP4 O1   OW0      0.000000       15.9990           
    5282 A    1321 TIP4 H1   HW0      0.679100        1.0080           
    5283 A    1321 TIP4 H2   HW0      0.679100        1.0080           
    5284 A    1321 TIP4 BD1  LP0     -1.358200        0.0000           
    5285 A    1322 TIP4 O1   OW0      0.000000       15.9990           
    5286 A    1322 TIP4 H1   HW0      0.679100        1.0080           
    5287 A    1322 TIP4 H2   HW0      0.679100        1.0080           
    5288 A    1322 TIP4 BD1  LP0     -1.358200        0.0000           
    5289 A    1323 TIP4 O1   OW0      0.000000       15.9990           
    5290 A    1323 TIP4 H1   HW0      0.679100        1.0080           
    5291 A    1323 TIP4 H2   HW0      0.679100        1.0080           
    5292 A    1323 TIP4 BD1  LP0     -1.358200        0.0000           
    5293 A    1324 TIP4 O1   OW0      0.000000       15.9990           
    5294 A    1324 TIP4 H1   HW0      0.679100        1.0080           
    5295 A    1324 TIP4 H2   HW0      0.679100        1.0080           
    5296 A    1324 TIP4 BD1  LP0     -1.358200        0.0000           
    5297 A    1325 TIP4 O1   OW0      0.000000       15.9990           
    5298 A    1325 TIP4 H1   HW0      0.679100        1.0080           
    5299 A    1325 TIP4 H2   HW0      0.679100        1.0080           
    5300 A    1325 TIP4 BD1  LP0     -1.358200        0.0000           
    5301 A    1326 TIP4 O1   OW0      0.000000       15.9990           
    5302 A    1326 TIP4 H1   HW0      0.679100        1.0080           
    5303 A    1326 TIP4 H2   HW0      0.679100        1.0080           
    5304 A    1326 TIP4 BD1  LP0     -1.358200        0.0000           
    5305 A    1327 TIP4 O1   OW0      0.000000       15.9990           
    5306 A    1327 TIP4 H1   HW0      0.679100        1.0080           
    5307 A    1327 TIP4 H2   HW0      0.679100        1.0080           
    5308 A    1327 TIP4 BD1  LP0     -1.358200        0.0000           
    5309 A    1328 TIP4 O1   OW0      0.000000       15.9990           
    5310 A    1328 TIP4 H1   HW0      0.679100        1.0080           
    5311 A    1328 TIP4 H2   HW0      0.679100        1.0080           
    5312 A    1328 TIP4 BD1  LP0     -1.358200        0.0000           
    5313 A    1329 TIP4 O1   OW0      0.000000       15.9990           
    5314 A    1329 TIP4 H1   HW0      0.679100        1.0080           
    5315 A    1329 TIP4 H2   HW0      0.679100        1.0080           
    5316 A    1329 TIP4 BD1  LP0     -1.358200        0.0000           
    5317 A    1330 TIP4 O1   OW0      0.000000       15.9990           
    5318 A    1330 TIP4 H1   HW0      0.679100        1.0080           
    5319 A    1330 TIP4 H2   HW0      0.679100        1.0080           
    5320 A    1330 TIP4 BD1  LP0     -1.358200        0.0000           
    5321 A    1331 TIP4 O1   OW0      0.000000       15.9990           
    5322 A    1331 TIP4 H1   HW0      0.679100        1.0080           
    5323 A    1331 TIP4 H2   HW0      0.679100        1.0080           
    5324 A    1331 TIP4 BD1  LP0     -1.358200        0.0000           
    5325 A    1332 TIP4 O1   OW0      0.000000       15.9990           
    5326 A    1332 TIP4 H1   HW0      0.679100        1.0080           
    5327 A    1332 TIP4 H2   HW0      0.679100        1.0080           
    5328 A    1332 TIP4 BD1  LP0     -1.358200        0.0000           
    5329 A    1333 TIP4 O1   OW0      0.000000       15.9990           
    5330 A    1333 TIP4 H1   HW0      0.679100        1.0080           
    5331 A    1333 TIP4 H2   HW0      0.679100        1.0080           
    5332 A    1333 TIP4 BD1  LP0     -1.358200        0.0000           
    5333 A    1334 TIP4 O1   OW0      0.000000       15.9990           
    5334 A    1334 TIP4 H1   HW0      0.679100        1.0080           
    5335 A    1334 TIP4 H2   HW0      0.679100        1.0080           
    5336 A    1334 TIP4 BD1  LP0     -1.358200        0.0000           
    5337 A    1335 TIP4 O1   OW0      0.000000       15.9990           
    5338 A    1335 TIP4 H1   HW0      0.679100        1.0080           
    5339 A    1335 TIP4 H2   HW0      0.679100        1.0080           
    5340 A    1335 TIP4 BD1  LP0     -1.358200        0.0000           
    5341 A    1336 TIP4 O1   OW0      0.000000       15.9990           
    5342 A    1336 TIP4 H1   HW0      0.679100        1.0080           
    5343 A    1336 TIP4 H2   HW0      0.679100        1.0080           
    5344 A    1336 TIP4 BD1  LP0     -1.358200        0.0000           
    5345 A    1337 TIP4 O1   OW0      0.000000       15.9990           
    5346 A    1337 TIP4 H1   HW0      0.679100        1.0080           
    5347 A    1337 TIP4 H2   HW0      0.679100        1.0080           
    5348 A    1337 TIP4 BD1  LP0     -1.358200        0.0000           
    5349 A    1338 TIP4 O1   OW0      0.000000       15.9990           
    5350 A    1338 TIP4 H1   HW0      0.679100        1.0080           
    5351 A    1338 TIP4 H2   HW0      0.679100        1.0080           
    5352 A    1338 TIP4 BD1  LP0     -1.358200        0.0000           
    5353 A    1339 TIP4 O1   OW0      0.000000       15.9990           
    5354 A    1339 TIP4 H1   HW0      0.679100        1.0080           
    5355 A    1339 TIP4 H2   HW0      0.679100        1.0080           
    5356 A    1339 TIP4 BD1  LP0     -1.358200        0.0000           
    5357 A    1340 TIP4 O1   OW0      0.000000       15.9990           
    5358 A    1340 TIP4 H1   HW0      0.679100        1.0080           
    5359 A    1340 TIP4 H2   HW0      0.679100        1.0080           
    5360 A    1340 TIP4 BD1  LP0     -1.358200        0.0000           
    5361 A    1341 TIP4 O1   OW0      0.000000       15.9990           
    5362 A    1341 TIP4 H1   HW0      0.679100        1.0080           
    5363 A    1341 TIP4 H2   HW0      0.679100        1.0080           
    5364 A    1341 TIP4 BD1  LP0     -1.358200        0.0000           
    5365 A    1342 TIP4 O1   OW0      0.000000       15.9990           
    5366 A    1342 TIP4 H1   HW0      0.679100        1.0080           
    5367 A    1342 TIP4 H2   HW0      0.679100        1.0080           
    5368 A    1342 TIP4 BD1  LP0     -1.358200        0.0000           
    5369 A    1343 TIP4 O1   OW0      0.000000       15.9990           
    5370 A    1343 TIP4 H1   HW0      0.679100        1.0080           
    5371 A    1343 TIP4 H2   HW0      0.679100        1.0080           
    5372 A    1343 TIP4 BD1  LP0     -1.358200        0.0000           
    5373 A    1344 TIP4 O1   OW0      0.000000       15.9990           
    5374 A    1344 TIP4 H1   HW0      0.679100        1.0080           
    5375 A    1344 TIP4 H2   HW0      0.679100        1.0080           
    5376 A    1344 TIP4 BD1  LP0     -1.358200        0.0000           
    5377 A    1345 TIP4 O1   OW0      0.000000       15.9990           
    5378 A    1345 TIP4 H1   HW0      0.679100        1.0080           
    5379 A    1345 TIP4 H2   HW0      0.679100        1.0080           
    5380 A    1345 TIP4 BD1  LP0     -1.358200        0.0000           
    5381 A    1346 TIP4 O1   OW0      0.000000       15.9990           
    5382 A    1346 TIP4 H1   HW0      0.679100        1.0080           
    5383 A    1346 TIP4 H2   HW0      0.679100        1.0080           
    5384 A    1346 TIP4 BD1  LP0     -1.358200        0.0000           
    5385 A    1347 TIP4 O1   OW0      0.000000       15.9990           
    5386 A    1347 TIP4 H1   HW0      0.679100        1.0080           
    5387 A    1347 TIP4 H2   HW0      0.679100        1.0080           
    5388 A    1347 TIP4 BD1  LP0     -1.358200        0.0000           
    5389 A    1348 TIP4 O1   OW0      0.000000       15.9990           
    5390 A    1348 TIP4 H1   HW0      0.679100        1.0080           
    5391 A    1348 TIP4 H2   HW0      0.679100        1.0080           
    5392 A    1348 TIP4 BD1  LP0     -1.358200        0.0000           
    5393 A    1349 TIP4 O1   OW0      0.000000       15.9990           
    5394 A    1349 TIP4 H1   HW0      0.679100        1.0080           
    5395 A    1349 TIP4 H2   HW0      0.679100        1.0080           
    5396 A    1349 TIP4 BD1  LP0     -1.358200        0.0000           
    5397 A    1350 TIP4 O1   OW0      0.000000       15.9990           
    5398 A    1350 TIP4 H1   HW0      0.679100        1.0080           
    5399 A    1350 TIP4 H2   HW0      0.679100        1.0080           
    5400 A    1350 TIP4 BD1  LP0     -1.358200        0.0000           
    5401 A    1351 TIP4 O1   OW0      0.000000       15.9990           
    5402 A    1351 TIP4 H1   HW0      0.679100        1.0080           
    5403 A    1351 TIP4 H2   HW0      0.679100        1.0080           
    5404 A    1351 TIP4 BD1  LP0     -1.358200        0.0000           
    5405 A    1352 TIP4 O1   OW0      0.000000       15.9990           
    5406 A    1352 TIP4 H1   HW0      0.679100        1.0080           
    5407 A    1352 TIP4 H2   HW0      0.679100        1.0080           
    5408 A    1352 TIP4 BD1  LP0     -1.358200        0.0000           
    5409 A    1353 TIP4 O1   OW0      0.000000       15.9990           
    5410 A    1353 TIP4 H1   HW0      0.679100        1.0080           
    5411 A    1353 TIP4 H2   HW0      0.679100        1.0080           
    5412 A    1353 TIP4 BD1  LP0     -1.358200        0.0000           
    5413 A    1354 TIP4 O1   OW0      0.000000       15.9990           
    5414 A    1354 TIP4 H1   HW0      0.679100        1.0080           
    5415 A    1354 TIP4 H2   HW0      0.679100        1.0080           
    5416 A    1354 TIP4 BD1  LP0     -1.358200        0.0000           
    5417 A    1355 TIP4 O1   OW0      0.000000       15.9990           
    5418 A    1355 TIP4 H1   HW0      0.679100        1.0080           
    5419 A    1355 TIP4 H2   HW0      0.679100        1.0080           
    5420 A    1355 TIP4 BD1  LP0     -1.358200        0.0000           
    5421 A    1356 TIP4 O1   OW0      0.000000       15.9990           
    5422 A    1356 TIP4 H1   HW0      0.679100        1.0080           
    5423 A    1356 TIP4 H2   HW0      0.679100        1.0080           
    5424 A    1356 TIP4 BD1  LP0     -1.358200        0.0000           
    5425 A    1357 TIP4 O1   OW0      0.000000       15.9990           
    5426 A    1357 TIP4 H1   HW0      0.679100        1.0080           
    5427 A    1357 TIP4 H2   HW0      0.679100        1.0080           
    5428 A    1357 TIP4 BD1  LP0     -1.358200        0.0000           
    5429 A    1358 TIP4 O1   OW0      0.000000       15.9990           
    5430 A    1358 TIP4 H1   HW0      0.679100        1.0080           
    5431 A    1358 TIP4 H2   HW0      0.679100        1.0080           
    5432 A    1358 TIP4 BD1  LP0     -1.358200        0.0000           
    5433 A    1359 TIP4 O1   OW0      0.000000       15.9990           
    5434 A    1359 TIP4 H1   HW0      0.679100        1.0080           
    5435 A    1359 TIP4 H2   HW0      0.679100        1.0080           
    5436 A    1359 TIP4 BD1  LP0     -1.358200        0.0000           
    5437 A    1360 TIP4 O1   OW0      0.000000       15.9990           
    5438 A    1360 TIP4 H1   HW0      0.679100        1.0080           
    5439 A    1360 TIP4 H2   HW0      0.679100        1.0080           
    5440 A    1360 TIP4 BD1  LP0     -1.358200        0.0000           
    5441 A    1361 TIP4 O1   OW0      0.000000       15.9990           
    5442 A    1361 TIP4 H1   HW0      0.679100        1.0080           
    5443 A    1361 TIP4 H2   HW0      0.679100        1.0080           
    5444 A    1361 TIP4 BD1  LP0     -1.358200        0.0000           
    5445 A    1362 TIP4 O1   OW0      0.000000       15.9990           
    5446 A    1362 TIP4 H1   HW0      0.679100        1.0080           
    5447 A    1362 TIP4 H2   HW0      0.679100        1.0080           
    5448 A    1362 TIP4 BD1  LP0     -1.358200        0.0000           
    5449 A    1363 TIP4 O1   OW0      0.000000       15.9990           
    5450 A    1363 TIP4 H1   HW0      0.679100        1.0080           
    5451 A    1363 TIP4 H2   HW0      0.679100        1.0080           
    5452 A    1363 TIP4 BD1  LP0     -1.358200        0.0000           
    5453 A    1364 TIP4 O1   OW0      0.000000       15.9990           
    5454 A    1364 TIP4 H1   HW0      0.679100        1.0080           
    5455 A    1364 TIP4 H2   HW0      0.679100        1.0080           
    5456 A    1364 TIP4 BD1  LP0     -1.358200        0.0000           
    5457 A    1365 TIP4 O1   OW0      0.000000       15.9990           
    5458 A    1365 TIP4 H1   HW0      0.679100        1.0080           
    5459 A    1365 TIP4 H2   HW0      0.679100        1.0080           
    5460 A    1365 TIP4 BD1  LP0     -1.358200        0.0000           
    5461 A    1366 TIP4 O1   OW0      0.000000       15.9990           
    5462 A    1366 TIP4 H1   HW0      0.679100        1.0080           
    5463 A    1366 TIP4 H2   HW0      0.679100        1.0080           
    5464 A    1366 TIP4 BD1  LP0     -1.358200        0.0000           
    5465 A    1367 TIP4 O1   OW0      0.000000       15.9990           
    5466 A    1367 TIP4 H1   HW0      0.679100        1.0080           
    5467 A    1367 TIP4 H2   HW0      0.679100        1.0080           
    5468 A    1367 TIP4 BD1  LP0     -1.358200        0.0000           
    5469 A    1368 TIP4 O1   OW0      0.000000       15.9990           
    5470 A    1368 TIP4 H1   HW0      0.679100        1.0080           
    5471 A    1368 TIP4 H2   HW0      0.679100        1.0080           
    5472 A    1368 TIP4 BD1  LP0     -1.358200        0.0000           
    5473 A    1369 TIP4 O1   OW0      0.000000       15.9990           
    5474 A    1369 TIP4 H1   HW0      0.679100        1.0080           
    5475 A    1369 TIP4 H2   HW0      0.679100        1.0080           
    5476 A    1369 TIP4 BD1  LP0     -1.358200        0.0000           
    5477 A    1370 TIP4 O1   OW0      0.000000       15.9990           
    5478 A    1370 TIP4 H1   HW0      0.679100        1.0080           
    5479 A    1370 TIP4 H2   HW0      0.679100        1.0080           
    5480 A    1370 TIP4 BD1  LP0     -1.358200        0.0000           
    5481 A    1371 TIP4 O1   OW0      0.000000       15.9990           
    5482 A    1371 TIP4 H1   HW0      0.679100        1.0080           
    5483 A    1371 TIP4 H2   HW0      0.679100        1.0080           
    5484 A    1371 TIP4 BD1  LP0     -1.358200        0.0000           
    5485 A    1372 TIP4 O1   OW0      0.000000       15.9990           
    5486 A    1372 TIP4 H1   HW0      0.679100        1.0080           
    5487 A    1372 TIP4 H2   HW0      0.679100        1.0080           
    5488 A    1372 TIP4 BD1  LP0     -1.358200        0.0000           
    5489 A    1373 TIP4 O1   OW0      0.000000       15.9990           
    5490 A    1373 TIP4 H1   HW0      0.679100        1.0080           
    5491 A    1373 TIP4 H2   HW0      0.679100        1.0080           
    5492 A    1373 TIP4 BD1  LP0     -1.358200        0.0000           
    5493 A    1374 TIP4 O1   OW0      0.000000       15.9990           
    5494 A    1374 TIP4 H1   HW0      0.679100        1.0080           
    5495 A    1374 TIP4 H2   HW0      0.679100        1.0080           
    5496 A    1374 TIP4 BD1  LP0     -1.358200        0.0000           
    5497 A    1375 TIP4 O1   OW0      0.000000       15.9990           
    5498 A    1375 TIP4 H1   HW0      0.679100        1.0080           
    5499 A    1375 TIP4 H2   HW0      0.679100        1.0080           
    5500 A    1375 TIP4 BD1  LP0     -1.358200        0.0000           
    5501 A    1376 TIP4 O1   OW0      0.000000       15.9990           
    5502 A    1376 TIP4 H1   HW0      0.679100        1.0080           
    5503 A    1376 TIP4 H2   HW0      0.679100        1.0080           
    5504 A    1376 TIP4 BD1  LP0     -1.358200        0.0000           
    5505 A    1377 TIP4 O1   OW0      0.000000       15.9990           
    5506 A    1377 TIP4 H1   HW0      0.679100        1.0080           
    5507 A    1377 TIP4 H2   HW0      0.679100        1.0080           
    5508 A    1377 TIP4 BD1  LP0     -1.358200        0.0000           
    5509 A    1378 TIP4 O1   OW0      0.000000       15.9990           
    5510 A    1378 TIP4 H1   HW0      0.679100        1.0080           
    5511 A    1378 TIP4 H2   HW0      0.679100        1.0080           
    5512 A    1378 TIP4 BD1  LP0     -1.358200        0.0000           
    5513 A    1379 TIP4 O1   OW0      0.000000       15.9990           
    5514 A    1379 TIP4 H1   HW0      0.679100        1.0080           
    5515 A    1379 TIP4 H2   HW0      0.679100        1.0080           
    5516 A    1379 TIP4 BD1  LP0     -1.358200        0.0000           
    5517 A    1380 TIP4 O1   OW0      0.000000       15.9990           
    5518 A    1380 TIP4 H1   HW0      0.679100        1.0080           
    5519 A    1380 TIP4 H2   HW0      0.679100        1.0080           
    5520 A    1380 TIP4 BD1  LP0     -1.358200        0.0000           
    5521 A    1381 TIP4 O1   OW0      0.000000       15.9990           
    5522 A    1381 TIP4 H1   HW0      0.679100        1.0080           
    5523 A    1381 TIP4 H2   HW0      0.679100        1.0080           
    5524 A    1381 TIP4 BD1  LP0     -1.358200        0.0000           
    5525 A    1382 TIP4 O1   OW0      0.000000       15.9990           
    5526 A    1382 TIP4 H1   HW0      0.679100        1.0080           
    5527 A    1382 TIP4 H2   HW0      0.679100        1.0080           
    5528 A    1382 TIP4 BD1  LP0     -1.358200        0.0000           
    5529 A    1383 TIP4 O1   OW0      0.000000       15.9990           
    5530 A    1383 TIP4 H1   HW0      0.679100        1.0080           
    5531 A    1383 TIP4 H2   HW0      0.679100        1.0080           
    5532 A    1383 TIP4 BD1  LP0     -1.358200        0.0000           
    5533 A    1384 TIP4 O1   OW0      0.000000       15.9990           
    5534 A    1384 TIP4 H1   HW0      0.679100        1.0080           
    5535 A    1384 TIP4 H2   HW0      0.679100        1.0080           
    5536 A    1384 TIP4 BD1  LP0     -1.358200        0.0000           
    5537 A    1385 TIP4 O1   OW0      0.000000       15.9990           
    5538 A    1385 TIP4 H1   HW0      0.679100        1.0080           
    5539 A    1385 TIP4 H2   HW0      0.679100        1.0080           
    5540 A    1385 TIP4 BD1  LP0     -1.358200        0.0000           
    5541 A    1386 TIP4 O1   OW0      0.000000       15.9990           
    5542 A    1386 TIP4 H1   HW0      0.679100        1.0080           
    5543 A    1386 TIP4 H2   HW0      0.679100        1.0080           
    5544 A    1386 TIP4 BD1  LP0     -1.358200        0.0000           
    5545 A    1387 TIP4 O1   OW0      0.000000       15.9990           
    5546 A    1387 TIP4 H1   HW0      0.679100        1.0080           
    5547 A    1387 TIP4 H2   HW0      0.679100        1.0080           
    5548 A    1387 TIP4 BD1  LP0     -1.358200        0.0000           
    5549 A    1388 TIP4 O1   OW0      0.000000       15.9990           
    5550 A    1388 TIP4 H1   HW0      0.679100        1.0080           
    5551 A    1388 TIP4 H2   HW0      0.679100        1.0080           
    5552 A    1388 TIP4 BD1  LP0     -1.358200        0.0000           
    5553 A    1389 TIP4 O1   OW0      0.000000       15.9990           
    5554 A    1389 TIP4 H1   HW0      0.679100        1.0080           
    5555 A    1389 TIP4 H2   HW0      0.679100        1.0080           
    5556 A    1389 TIP4 BD1  LP0     -1.358200        0.0000           
    5557 A    1390 TIP4 O1   OW0      0.000000       15.9990           
    5558 A    1390 TIP4 H1   HW0      0.679100        1.0080           
    5559 A    1390 TIP4 H2   HW0      0.679100        1.0080           
    5560 A    1390 TIP4 BD1  LP0     -1.358200        0.0000           
    5561 A    1391 TIP4 O1   OW0      0.000000       15.9990           
    5562 A    1391 TIP4 H1   HW0      0.679100        1.0080           
    5563 A    1391 TIP4 H2   HW0      0.679100        1.0080           
    5564 A    1391 TIP4 BD1  LP0     -1.358200        0.0000           
    5565 A    1392 TIP4 O1   OW0      0.000000       15.9990           
    5566 A    1392 TIP4 H1   HW0      0.679100        1.0080           
    5567 A    1392 TIP4 H2   HW0      0.679100        1.0080           
    5568 A    1392 TIP4 BD1  LP0     -1.358200        0.0000           
    5569 A    1393 TIP4 O1   OW0      0.000000       15.9990           
    5570 A    1393 TIP4 H1   HW0      0.679100        1.0080           
    5571 A    1393 TIP4 H2   HW0      0.679100        1.0080           
    5572 A    1393 TIP4 BD1  LP0     -1.358200        0.0000           
    5573 A    1394 TIP4 O1   OW0      0.000000       15.9990           
    5574 A    1394 TIP4 H1   HW0      0.679100        1.0080           
    5575 A    1394 TIP4 H2   HW0      0.679100        1.0080           
    5576 A    1394 TIP4 BD1  LP0     -1.358200        0.0000           
    5577 A    1395 TIP4 O1   OW0      0.000000       15.9990           
    5578 A    1395 TIP4 H1   HW0      0.679100        1.0080           
    5579 A    1395 TIP4 H2   HW0      0.679100        1.0080           
    5580 A    1395 TIP4 BD1  LP0     -1.358200        0.0000           
    5581 A    1396 TIP4 O1   OW0      0.000000       15.9990           
    5582 A    1396 TIP4 H1   HW0      0.679100        1.0080           
    5583 A    1396 TIP4 H2   HW0      0.679100        1.0080           
    5584 A    1396 TIP4 BD1  LP0     -1.358200        0.0000           
    5585 A    1397 TIP4 O1   OW0      0.000000       15.9990           
    5586 A    1397 TIP4 H1   HW0      0.679100        1.0080           
    5587 A    1397 TIP4 H2   HW0      0.679100        1.0080           
    5588 A    1397 TIP4 BD1  LP0     -1.358200        0.0000           
    5589 A    1398 TIP4 O1   OW0      0.000000       15.9990           
    5590 A    1398 TIP4 H1   HW0      0.679100        1.0080           
    5591 A    1398 TIP4 H2   HW0      0.679100        1.0080           
    5592 A    1398 TIP4 BD1  LP0     -1.358200        0.0000           
    5593 A    1399 TIP4 O1   OW0      0.000000       15.9990           
    5594 A    1399 TIP4 H1   HW0      0.679100        1.0080           
    5595 A    1399 TIP4 H2   HW0      0.679100        1.0080           
    5596 A    1399 TIP4 BD1  LP0     -1.358200        0.0000           
    5597 A    1400 TIP4 O1   OW0      0.000000       15.9990           
    5598 A    1400 TIP4 H1   HW0      0.679100        1.0080           
    5599 A    1400 TIP4 H2   HW0      0.679100        1.0080           
    5600 A    1400 TIP4 BD1  LP0     -1.358200        0.0000           
    5601 A    1401 TIP4 O1   OW0      0.000000       15.9990           
    5602 A    1401 TIP4 H1   HW0      0.679100        1.0080           
    5603 A    1401 TIP4 H2   HW0      0.679100        1.0080           
    5604 A    1401 TIP4 BD1  LP0     -1.358200        0.0000           
    5605 A    1402 TIP4 O1   OW0      0.000000       15.9990           
    5606 A    1402 TIP4 H1   HW0      0.679100        1.0080           
    5607 A    1402 TIP4 H2   HW0      0.679100        1.0080           
    5608 A    1402 TIP4 BD1  LP0     -1.358200        0.0000           
    5609 A    1403 TIP4 O1   OW0      0.000000       15.9990           
    5610 A    1403 TIP4 H1   HW0      0.679100        1.0080           
    5611 A    1403 TIP4 H2   HW0      0.679100        1.0080           
    5612 A    1403 TIP4 BD1  LP0     -1.358200        0.0000           
    5613 A    1404 TIP4 O1   OW0      0.000000       15.9990           
    5614 A    1404 TIP4 H1   HW0      0.679100        1.0080           
    5615 A    1404 TIP4 H2   HW0      0.679100        1.0080           
    5616 A    1404 TIP4 BD1  LP0     -1.358200        0.0000           
    5617 A    1405 TIP4 O1   OW0      0.000000       15.9990           
    5618 A    1405 TIP4 H1   HW0      0.679100        1.0080           
    5619 A    1405 TIP4 H2   HW0      0.679100        1.0080           
    5620 A    1405 TIP4 BD1  LP0     -1.358200        0.0000           
    5621 A    1406 TIP4 O1   OW0      0.000000       15.9990           
    5622 A    1406 TIP4 H1   HW0      0.679100        1.0080           
    5623 A    1406 TIP4 H2   HW0      0.679100        1.0080           
    5624 A    1406 TIP4 BD1  LP0     -1.358200        0.0000           
    5625 A    1407 TIP4 O1   OW0      0.000000       15.9990           
    5626 A    1407 TIP4 H1   HW0      0.679100        1.0080           
    5627 A    1407 TIP4 H2   HW0      0.679100        1.0080           
    5628 A    1407 TIP4 BD1  LP0     -1.358200        0.0000           
    5629 A    1408 TIP4 O1   OW0      0.000000       15.9990           
    5630 A    1408 TIP4 H1   HW0      0.679100        1.0080           
    5631 A    1408 TIP4 H2   HW0      0.679100        1.0080           
    5632 A    1408 TIP4 BD1  LP0     -1.358200        0.0000           
    5633 A    1409 TIP4 O1   OW0      0.000000       15.9990           
    5634 A    1409 TIP4 H1   HW0      0.679100        1.0080           
    5635 A    1409 TIP4 H2   HW0      0.679100        1.0080           
    5636 A    1409 TIP4 BD1  LP0     -1.358200        0.0000           
    5637 A    1410 TIP4 O1   OW0      0.000000       15.9990           
    5638 A    1410 TIP4 H1   HW0      0.679100        1.0080           
    5639 A    1410 TIP4 H2   HW0      0.679100        1.0080           
    5640 A    1410 TIP4 BD1  LP0     -1.358200        0.0000           
    5641 A    1411 TIP4 O1   OW0      0.000000       15.9990           
    5642 A    1411 TIP4 H1   HW0      0.679100        1.0080           
    5643 A    1411 TIP4 H2   HW0      0.679100        1.0080           
    5644 A    1411 TIP4 BD1  LP0     -1.358200        0.0000           
    5645 A    1412 TIP4 O1   OW0      0.000000       15.9990           
    5646 A    1412 TIP4 H1   HW0      0.679100        1.0080           
    5647 A    1412 TIP4 H2   HW0      0.679100        1.0080           
    5648 A    1412 TIP4 BD1  LP0     -1.358200        0.0000           
    5649 A    1413 TIP4 O1   OW0      0.000000       15.9990           
    5650 A    1413 TIP4 H1   HW0      0.679100        1.0080           
    5651 A    1413 TIP4 H2   HW0      0.679100        1.0080           
    5652 A    1413 TIP4 BD1  LP0     -1.358200        0.0000           
    5653 A    1414 TIP4 O1   OW0      0.000000       15.9990           
    5654 A    1414 TIP4 H1   HW0      0.679100        1.0080           
    5655 A    1414 TIP4 H2   HW0      0.679100        1.0080           
    5656 A    1414 TIP4 BD1  LP0     -1.358200        0.0000           
    5657 A    1415 TIP4 O1   OW0      0.000000       15.9990           
    5658 A    1415 TIP4 H1   HW0      0.679100        1.0080           
    5659 A    1415 TIP4 H2   HW0      0.679100        1.0080           
    5660 A    1415 TIP4 BD1  LP0     -1.358200        0.0000           
    5661 A    1416 TIP4 O1   OW0      0.000000       15.9990           
    5662 A    1416 TIP4 H1   HW0      0.679100        1.0080           
    5663 A    1416 TIP4 H2   HW0      0.679100        1.0080           
    5664 A    1416 TIP4 BD1  LP0     -1.358200        0.0000           
    5665 A    1417 TIP4 O1   OW0      0.000000       15.9990           
    5666 A    1417 TIP4 H1   HW0      0.679100        1.0080           
    5667 A    1417 TIP4 H2   HW0      0.679100        1.0080           
    5668 A    1417 TIP4 BD1  LP0     -1.358200        0.0000           
    5669 A    1418 TIP4 O1   OW0      0.000000       15.9990           
    5670 A    1418 TIP4 H1   HW0      0.679100        1.0080           
    5671 A    1418 TIP4 H2   HW0      0.679100        1.0080           
    5672 A    1418 TIP4 BD1  LP0     -1.358200        0.0000           
    5673 A    1419 TIP4 O1   OW0      0.000000       15.9990           
    5674 A    1419 TIP4 H1   HW0      0.679100        1.0080           
    5675 A    1419 TIP4 H2   HW0      0.679100        1.0080           
    5676 A    1419 TIP4 BD1  LP0     -1.358200        0.0000           
    5677 A    1420 TIP4 O1   OW0      0.000000       15.9990           
    5678 A    1420 TIP4 H1   HW0      0.679100        1.0080           
    5679 A    1420 TIP4 H2   HW0      0.679100        1.0080           
    5680 A    1420 TIP4 BD1  LP0     -1.358200        0.0000           
    5681 A    1421 TIP4 O1   OW0      0.000000       15.9990           
    5682 A    1421 TIP4 H1   HW0      0.679100        1.0080           
    5683 A    1421 TIP4 H2   HW0      0.679100        1.0080           
    5684 A    1421 TIP4 BD1  LP0     -1.358200        0.0000           
    5685 A    1422 TIP4 O1   OW0      0.000000       15.9990           
    5686 A    1422 TIP4 H1   HW0      0.679100        1.0080           
    5687 A    1422 TIP4 H2   HW0      0.679100        1.0080           
    5688 A    1422 TIP4 BD1  LP0     -1.358200        0.0000           
    5689 A    1423 TIP4 O1   OW0      0.000000       15.9990           
    5690 A    1423 TIP4 H1   HW0      0.679100        1.0080           
    5691 A    1423 TIP4 H2   HW0      0.679100        1.0080           
    5692 A    1423 TIP4 BD1  LP0     -1.358200        0.0000           
    5693 A    1424 TIP4 O1   OW0      0.000000       15.9990           
    5694 A    1424 TIP4 H1   HW0      0.679100        1.0080           
    5695 A    1424 TIP4 H2   HW0      0.679100        1.0080           
    5696 A    1424 TIP4 BD1  LP0     -1.358200        0.0000           
    5697 A    1425 TIP4 O1   OW0      0.000000       15.9990           
    5698 A    1425 TIP4 H1   HW0      0.679100        1.0080           
    5699 A    1425 TIP4 H2   HW0      0.679100        1.0080           
    5700 A    1425 TIP4 BD1  LP0     -1.358200        0.0000           
    5701 A    1426 TIP4 O1   OW0      0.000000       15.9990           
    5702 A    1426 TIP4 H1   HW0      0.679100        1.0080           
    5703 A    1426 TIP4 H2   HW0      0.679100        1.0080           
    5704 A    1426 TIP4 BD1  LP0     -1.358200        0.0000           
    5705 A    1427 TIP4 O1   OW0      0.000000       15.9990           
    5706 A    1427 TIP4 H1   HW0      0.679100        1.0080           
    5707 A    1427 TIP4 H2   HW0      0.679100        1.0080           
    5708 A    1427 TIP4 BD1  LP0     -1.358200        0.0000           
    5709 A    1428 TIP4 O1   OW0      0.000000       15.9990           
    5710 A    1428 TIP4 H1   HW0      0.679100        1.0080           
    5711 A    1428 TIP4 H2   HW0      0.679100        1.0080           
    5712 A    1428 TIP4 BD1  LP0     -1.358200        0.0000           
    5713 A    1429 TIP4 O1   OW0      0.000000       15.9990           
    5714 A    1429 TIP4 H1   HW0      0.679100        1.0080           
    5715 A    1429 TIP4 H2   HW0      0.679100        1.0080           
    5716 A    1429 TIP4 BD1  LP0     -1.358200        0.0000           
    5717 A    1430 TIP4 O1   OW0      0.000000       15.9990           
    5718 A    1430 TIP4 H1   HW0      0.679100        1.0080           
    5719 A    1430 TIP4 H2   HW0      0.679100        1.0080           
    5720 A    1430 TIP4 BD1  LP0     -1.358200        0.0000           
    5721 A    1431 TIP4 O1   OW0      0.000000       15.9990           
    5722 A    1431 TIP4 H1   HW0      0.679100        1.0080           
    5723 A    1431 TIP4 H2   HW0      0.679100        1.0080           
    5724 A    1431 TIP4 BD1  LP0     -1.358200        0.0000           
    5725 A    1432 TIP4 O1   OW0      0.000000       15.9990           
    5726 A    1432 TIP4 H1   HW0      0.679100        1.0080           
    5727 A    1432 TIP4 H2   HW0      0.679100        1.0080           
    5728 A    1432 TIP4 BD1  LP0     -1.358200        0.0000           
    5729 A    1433 TIP4 O1   OW0      0.000000       15.9990           
    5730 A    1433 TIP4 H1   HW0      0.679100        1.0080           
    5731 A    1433 TIP4 H2   HW0      0.679100        1.0080           
    5732 A    1433 TIP4 BD1  LP0     -1.358200        0.0000           
    5733 A    1434 TIP4 O1   OW0      0.000000       15.9990           
    5734 A    1434 TIP4 H1   HW0      0.679100        1.0080           
    5735 A    1434 TIP4 H2   HW0      0.679100        1.0080           
    5736 A    1434 TIP4 BD1  LP0     -1.358200        0.0000           
    5737 A    1435 TIP4 O1   OW0      0.000000       15.9990           
    5738 A    1435 TIP4 H1   HW0      0.679100        1.0080           
    5739 A    1435 TIP4 H2   HW0      0.679100        1.0080           
    5740 A    1435 TIP4 BD1  LP0     -1.358200        0.0000           
    5741 A    1436 TIP4 O1   OW0      0.000000       15.9990           
    5742 A    1436 TIP4 H1   HW0      0.679100        1.0080           
    5743 A    1436 TIP4 H2   HW0      0.679100        1.0080           
    5744 A    1436 TIP4 BD1  LP0     -1.358200        0.0000           
    5745 A    1437 TIP4 O1   OW0      0.000000       15.9990           
    5746 A    1437 TIP4 H1   HW0      0.679100        1.0080           
    5747 A    1437 TIP4 H2   HW0      0.679100        1.0080           
    5748 A    1437 TIP4 BD1  LP0     -1.358200        0.0000           
    5749 A    1438 TIP4 O1   OW0      0.000000       15.9990           
    5750 A    1438 TIP4 H1   HW0      0.679100        1.0080           
    5751 A    1438 TIP4 H2   HW0      0.679100        1.0080           
    5752 A    1438 TIP4 BD1  LP0     -1.358200        0.0000           
    5753 A    1439 TIP4 O1   OW0      0.000000       15.9990           
    5754 A    1439 TIP4 H1   HW0      0.679100        1.0080           
    5755 A    1439 TIP4 H2   HW0      0.679100        1.0080           
    5756 A    1439 TIP4 BD1  LP0     -1.358200        0.0000           
    5757 A    1440 TIP4 O1   OW0      0.000000       15.9990           
    5758 A    1440 TIP4 H1   HW0      0.679100        1.0080           
    5759 A    1440 TIP4 H2   HW0      0.679100        1.0080           
    5760 A    1440 TIP4 BD1  LP0     -1.358200        0.0000           
    5761 A    1441 TIP4 O1   OW0      0.000000       15.9990           
    5762 A    1441 TIP4 H1   HW0      0.679100        1.0080           
    5763 A    1441 TIP4 H2   HW0      0.679100        1.0080           
    5764 A    1441 TIP4 BD1  LP0     -1.358200        0.0000           
    5765 A    1442 TIP4 O1   OW0      0.000000       15.9990           
    5766 A    1442 TIP4 H1   HW0      0.679100        1.0080           
    5767 A    1442 TIP4 H2   HW0      0.679100        1.0080           
    5768 A    1442 TIP4 BD1  LP0     -1.358200        0.0000           
    5769 A    1443 TIP4 O1   OW0      0.000000       15.9990           
    5770 A    1443 TIP4 H1   HW0      0.679100        1.0080           
    5771 A    1443 TIP4 H2   HW0      0.679100        1.0080           
    5772 A    1443 TIP4 BD1  LP0     -1.358200        0.0000           
    5773 A    1444 TIP4 O1   OW0      0.000000       15.9990           
    5774 A    1444 TIP4 H1   HW0      0.679100        1.0080           
    5775 A    1444 TIP4 H2   HW0      0.679100        1.0080           
    5776 A    1444 TIP4 BD1  LP0     -1.358200        0.0000           
    5777 A    1445 TIP4 O1   OW0      0.000000       15.9990           
    5778 A    1445 TIP4 H1   HW0      0.679100        1.0080           
    5779 A    1445 TIP4 H2   HW0      0.679100        1.0080           
    5780 A    1445 TIP4 BD1  LP0     -1.358200        0.0000           
    5781 A    1446 TIP4 O1   OW0      0.000000       15.9990           
    5782 A    1446 TIP4 H1   HW0      0.679100        1.0080           
    5783 A    1446 TIP4 H2   HW0      0.679100        1.0080           
    5784 A    1446 TIP4 BD1  LP0     -1.358200        0.0000           
    5785 A    1447 TIP4 O1   OW0      0.000000       15.9990           
    5786 A    1447 TIP4 H1   HW0      0.679100        1.0080           
    5787 A    1447 TIP4 H2   HW0      0.679100        1.0080           
    5788 A    1447 TIP4 BD1  LP0     -1.358200        0.0000           
    5789 A    1448 TIP4 O1   OW0      0.000000       15.9990           
    5790 A    1448 TIP4 H1   HW0      0.679100        1.0080           
    5791 A    1448 TIP4 H2   HW0      0.679100        1.0080           
    5792 A    1448 TIP4 BD1  LP0     -1.358200        0.0000           
    5793 A    1449 TIP4 O1   OW0      0.000000       15.9990           
    5794 A    1449 TIP4 H1   HW0      0.679100        1.0080           
    5795 A    1449 TIP4 H2   HW0      0.679100        1.0080           
    5796 A    1449 TIP4 BD1  LP0     -1.358200        0.0000           
    5797 A    1450 TIP4 O1   OW0      0.000000       15.9990           
    5798 A    1450 TIP4 H1   HW0      0.679100        1.0080           
    5799 A    1450 TIP4 H2   HW0      0.679100        1.0080           
    5800 A    1450 TIP4 BD1  LP0     -1.358200        0.0000           
    5801 A    1451 TIP4 O1   OW0      0.000000       15.9990           
    5802 A    1451 TIP4 H1   HW0      0.679100        1.0080           
    5803 A    1451 TIP4 H2   HW0      0.679100        1.0080           
    5804 A    1451 TIP4 BD1  LP0     -1.358200        0.0000           
    5805 A    1452 TIP4 O1   OW0      0.000000       15.9990           
    5806 A    1452 TIP4 H1   HW0      0.679100        1.0080           
    5807 A    1452 TIP4 H2   HW0      0.679100        1.0080           
    5808 A    1452 TIP4 BD1  LP0     -1.358200        0.0000           
    5809 A    1453 TIP4 O1   OW0      0.000000       15.9990           
    5810 A    1453 TIP4 H1   HW0      0.679100        1.0080           
    5811 A    1453 TIP4 H2   HW0      0.679100        1.0080           
    5812 A    1453 TIP4 BD1  LP0     -1.358200        0.0000           
    5813 A    1454 TIP4 O1   OW0      0.000000       15.9990           
    5814 A    1454 TIP4 H1   HW0      0.679100        1.0080           
    5815 A    1454 TIP4 H2   HW0      0.679100        1.0080           
    5816 A    1454 TIP4 BD1  LP0     -1.358200        0.0000           
    5817 A    1455 TIP4 O1   OW0      0.000000       15.9990           
    5818 A    1455 TIP4 H1   HW0      0.679100        1.0080           
    5819 A    1455 TIP4 H2   HW0      0.679100        1.0080           
    5820 A    1455 TIP4 BD1  LP0     -1.358200        0.0000           
    5821 A    1456 TIP4 O1   OW0      0.000000       15.9990           
    5822 A    1456 TIP4 H1   HW0      0.679100        1.0080           
    5823 A    1456 TIP4 H2   HW0      0.679100        1.0080           
    5824 A    1456 TIP4 BD1  LP0     -1.358200        0.0000           
    5825 A    1457 TIP4 O1   OW0      0.000000       15.9990           
    5826 A    1457 TIP4 H1   HW0      0.679100        1.0080           
    5827 A    1457 TIP4 H2   HW0      0.679100        1.0080           
    5828 A    1457 TIP4 BD1  LP0     -1.358200        0.0000           
    5829 A    1458 TIP4 O1   OW0      0.000000       15.9990           
    5830 A    1458 TIP4 H1   HW0      0.679100        1.0080           
    5831 A    1458 TIP4 H2   HW0      0.679100        1.0080           
    5832 A    1458 TIP4 BD1  LP0     -1.358200        0.0000           
    5833 A    1459 TIP4 O1   OW0      0.000000       15.9990           
    5834 A    1459 TIP4 H1   HW0      0.679100        1.0080           
    5835 A    1459 TIP4 H2   HW0      0.679100        1.0080           
    5836 A    1459 TIP4 BD1  LP0     -1.358200        0.0000           
    5837 A    1460 TIP4 O1   OW0      0.000000       15.9990           
    5838 A    1460 TIP4 H1   HW0      0.679100        1.0080           
    5839 A    1460 TIP4 H2   HW0      0.679100        1.0080           
    5840 A    1460 TIP4 BD1  LP0     -1.358200        0.0000           
    5841 A    1461 TIP4 O1   OW0      0.000000       15.9990           
    5842 A    1461 TIP4 H1   HW0      0.679100        1.0080           
    5843 A    1461 TIP4 H2   HW0      0.679100        1.0080           
    5844 A    1461 TIP4 BD1  LP0     -1.358200        0.0000           
    5845 A    1462 TIP4 O1   OW0      0.000000       15.9990           
    5846 A    1462 TIP4 H1   HW0      0.679100        1.0080           
    5847 A    1462 TIP4 H2   HW0      0.679100        1.0080           
    5848 A    1462 TIP4 BD1  LP0     -1.358200        0.0000           
    5849 A    1463 TIP4 O1   OW0      0.000000       15.9990           
    5850 A    1463 TIP4 H1   HW0      0.679100        1.0080           
    5851 A    1463 TIP4 H2   HW0      0.679100        1.0080           
    5852 A    1463 TIP4 BD1  LP0     -1.358200        0.0000           
    5853 A    1464 TIP4 O1   OW0      0.000000       15.9990           
    5854 A    1464 TIP4 H1   HW0      0.679100        1.0080           
    5855 A    1464 TIP4 H2   HW0      0.679100        1.0080           
    5856 A    1464 TIP4 BD1  LP0     -1.358200        0.0000           
    5857 A    1465 TIP4 O1   OW0      0.000000       15.9990           
    5858 A    1465 TIP4 H1   HW0      0.679100        1.0080           
    5859 A    1465 TIP4 H2   HW0      0.679100        1.0080           
    5860 A    1465 TIP4 BD1  LP0     -1.358200        0.0000           
    5861 A    1466 TIP4 O1   OW0      0.000000       15.9990           
    5862 A    1466 TIP4 H1   HW0      0.679100        1.0080           
    5863 A    1466 TIP4 H2   HW0      0.679100        1.0080           
    5864 A    1466 TIP4 BD1  LP0     -1.358200        0.0000           
    5865 A    1467 TIP4 O1   OW0      0.000000       15.9990           
    5866 A    1467 TIP4 H1   HW0      0.679100        1.0080           
    5867 A    1467 TIP4 H2   HW0      0.679100        1.0080           
    5868 A    1467 TIP4 BD1  LP0     -1.358200        0.0000           
    5869 A    1468 TIP4 O1   OW0      0.000000       15.9990           
    5870 A    1468 TIP4 H1   HW0      0.679100        1.0080           
    5871 A    1468 TIP4 H2   HW0      0.679100        1.0080           
    5872 A    1468 TIP4 BD1  LP0     -1.358200        0.0000           
    5873 A    1469 TIP4 O1   OW0      0.000000       15.9990           
    5874 A    1469 TIP4 H1   HW0      0.679100        1.0080           
    5875 A    1469 TIP4 H2   HW0      0.679100        1.0080           
    5876 A    1469 TIP4 BD1  LP0     -1.358200        0.0000           
    5877 A    1470 TIP4 O1   OW0      0.000000       15.9990           
    5878 A    1470 TIP4 H1   HW0      0.679100        1.0080           
    5879 A    1470 TIP4 H2   HW0      0.679100        1.0080           
    5880 A    1470 TIP4 BD1  LP0     -1.358200        0.0000           
    5881 A    1471 TIP4 O1   OW0      0.000000       15.9990           
    5882 A    1471 TIP4 H1   HW0      0.679100        1.0080           
    5883 A    1471 TIP4 H2   HW0      0.679100        1.0080           
    5884 A    1471 TIP4 BD1  LP0     -1.358200        0.0000           
    5885 A    1472 TIP4 O1   OW0      0.000000       15.9990           
    5886 A    1472 TIP4 H1   HW0      0.679100        1.0080           
    5887 A    1472 TIP4 H2   HW0      0.679100        1.0080           
    5888 A    1472 TIP4 BD1  LP0     -1.358200        0.0000           
    5889 A    1473 TIP4 O1   OW0      0.000000       15.9990           
    5890 A    1473 TIP4 H1   HW0      0.679100        1.0080           
    5891 A    1473 TIP4 H2   HW0      0.679100        1.0080           
    5892 A    1473 TIP4 BD1  LP0     -1.358200        0.0000           
    5893 A    1474 TIP4 O1   OW0      0.000000       15.9990           
    5894 A    1474 TIP4 H1   HW0      0.679100        1.0080           
    5895 A    1474 TIP4 H2   HW0      0.679100        1.0080           
    5896 A    1474 TIP4 BD1  LP0     -1.358200        0.0000           
    5897 A    1475 TIP4 O1   OW0      0.000000       15.9990           
    5898 A    1475 TIP4 H1   HW0      0.679100        1.0080           
    5899 A    1475 TIP4 H2   HW0      0.679100        1.0080           
    5900 A    1475 TIP4 BD1  LP0     -1.358200        0.0000           
    5901 A    1476 TIP4 O1   OW0      0.000000       15.9990           
    5902 A    1476 TIP4 H1   HW0      0.679100        1.0080           
    5903 A    1476 TIP4 H2   HW0      0.679100        1.0080           
    5904 A    1476 TIP4 BD1  LP0     -1.358200        0.0000           
    5905 A    1477 TIP4 O1   OW0      0.000000       15.9990           
    5906 A    1477 TIP4 H1   HW0      0.679100        1.0080           
    5907 A    1477 TIP4 H2   HW0      0.679100        1.0080           
    5908 A    1477 TIP4 BD1  LP0     -1.358200        0.0000           
    5909 A    1478 TIP4 O1   OW0      0.000000       15.9990           
    5910 A    1478 TIP4 H1   HW0      0.679100        1.0080           
    5911 A    1478 TIP4 H2   HW0      0.679100        1.0080           
    5912 A    1478 TIP4 BD1  LP0     -1.358200        0.0000           
    5913 A    1479 TIP4 O1   OW0      0.000000       15.9990           
    5914 A    1479 TIP4 H1   HW0      0.679100        1.0080           
    5915 A    1479 TIP4 H2   HW0      0.679100        1.0080           
    5916 A    1479 TIP4 BD1  LP0     -1.358200        0.0000           
    5917 A    1480 TIP4 O1   OW0      0.000000       15.9990           
    5918 A    1480 TIP4 H1   HW0      0.679100        1.0080           
    5919 A    1480 TIP4 H2   HW0      0.679100        1.0080           
    5920 A    1480 TIP4 BD1  LP0     -1.358200        0.0000           
    5921 A    1481 TIP4 O1   OW0      0.000000       15.9990           
    5922 A    1481 TIP4 H1   HW0      0.679100        1.0080           
    5923 A    1481 TIP4 H2   HW0      0.679100        1.0080           
    5924 A    1481 TIP4 BD1  LP0     -1.358200        0.0000           
    5925 A    1482 TIP4 O1   OW0      0.000000       15.9990           
    5926 A    1482 TIP4 H1   HW0      0.679100        1.0080           
    5927 A    1482 TIP4 H2   HW0      0.679100        1.0080           
    5928 A    1482 TIP4 BD1  LP0     -1.358200        0.0000           
    5929 A    1483 TIP4 O1   OW0      0.000000       15.9990           
    5930 A    1483 TIP4 H1   HW0      0.679100        1.0080           
    5931 A    1483 TIP4 H2   HW0      0.679100        1.0080           
    5932 A    1483 TIP4 BD1  LP0     -1.358200        0.0000           
    5933 A    1484 TIP4 O1   OW0      0.000000       15.9990           
    5934 A    1484 TIP4 H1   HW0      0.679100        1.0080           
    5935 A    1484 TIP4 H2   HW0      0.679100        1.0080           
    5936 A    1484 TIP4 BD1  LP0     -1.358200        0.0000           
    5937 A    1485 TIP4 O1   OW0      0.000000       15.9990           
    5938 A    1485 TIP4 H1   HW0      0.679100        1.0080           
    5939 A    1485 TIP4 H2   HW0      0.679100        1.0080           
    5940 A    1485 TIP4 BD1  LP0     -1.358200        0.0000           
    5941 A    1486 TIP4 O1   OW0      0.000000       15.9990           
    5942 A    1486 TIP4 H1   HW0      0.679100        1.0080           
    5943 A    1486 TIP4 H2   HW0      0.679100        1.0080           
    5944 A    1486 TIP4 BD1  LP0     -1.358200        0.0000           
    5945 A    1487 TIP4 O1   OW0      0.000000       15.9990           
    5946 A    1487 TIP4 H1   HW0      0.679100        1.0080           
    5947 A    1487 TIP4 H2   HW0      0.679100        1.0080           
    5948 A    1487 TIP4 BD1  LP0     -1.358200        0.0000           
    5949 A    1488 TIP4 O1   OW0      0.000000       15.9990           
    5950 A    1488 TIP4 H1   HW0      0.679100        1.0080           
    5951 A    1488 TIP4 H2   HW0      0.679100        1.0080           
    5952 A    1488 TIP4 BD1  LP0     -1.358200        0.0000           
    5953 A    1489 TIP4 O1   OW0      0.000000       15.9990           
    5954 A    1489 TIP4 H1   HW0      0.679100        1.0080           
    5955 A    1489 TIP4 H2   HW0      0.679100        1.0080           
    5956 A    1489 TIP4 BD1  LP0     -1.358200        0.0000           
    5957 A    1490 TIP4 O1   OW0      0.000000       15.9990           
    5958 A    1490 TIP4 H1   HW0      0.679100        1.0080           
    5959 A    1490 TIP4 H2   HW0      0.679100        1.0080           
    5960 A    1490 TIP4 BD1  LP0     -1.358200        0.0000           
    5961 A    1491 TIP4 O1   OW0      0.000000       15.9990           
    5962 A    1491 TIP4 H1   HW0      0.679100        1.0080           
    5963 A    1491 TIP4 H2   HW0      0.679100        1.0080           
    5964 A    1491 TIP4 BD1  LP0     -1.358200        0.0000           
    5965 A    1492 TIP4 O1   OW0      0.000000       15.9990           
    5966 A    1492 TIP4 H1   HW0      0.679100        1.0080           
    5967 A    1492 TIP4 H2   HW0      0.679100        1.0080           
    5968 A    1492 TIP4 BD1  LP0     -1.358200        0.0000           
    5969 A    1493 TIP4 O1   OW0      0.000000       15.9990           
    5970 A    1493 TIP4 H1   HW0      0.679100        1.0080           
    5971 A    1493 TIP4 H2   HW0      0.679100        1.0080           
    5972 A    1493 TIP4 BD1  LP0     -1.358200        0.0000           
    5973 A    1494 TIP4 O1   OW0      0.000000       15.9990           
    5974 A    1494 TIP4 H1   HW0      0.679100        1.0080           
    5975 A    1494 TIP4 H2   HW0      0.679100        1.0080           
    5976 A    1494 TIP4 BD1  LP0     -1.358200        0.0000           
    5977 A    1495 TIP4 O1   OW0      0.000000       15.9990           
    5978 A    1495 TIP4 H1   HW0      0.679100        1.0080           
    5979 A    1495 TIP4 H2   HW0      0.679100        1.0080           
    5980 A    1495 TIP4 BD1  LP0     -1.358200        0.0000           
    5981 A    1496 TIP4 O1   OW0      0.000000       15.9990           
    5982 A    1496 TIP4 H1   HW0      0.679100        1.0080           
    5983 A    1496 TIP4 H2   HW0      0.679100        1.0080           
    5984 A    1496 TIP4 BD1  LP0     -1.358200        0.0000           
    5985 A    1497 TIP4 O1   OW0      0.000000       15.9990           
    5986 A    1497 TIP4 H1   HW0      0.679100        1.0080           
    5987 A    1497 TIP4 H2   HW0      0.679100        1.0080           
    5988 A    1497 TIP4 BD1  LP0     -1.358200        0.0000           
    5989 A    1498 TIP4 O1   OW0      0.000000       15.9990           
    5990 A    1498 TIP4 H1   HW0      0.679100        1.0080           
    5991 A    1498 TIP4 H2   HW0      0.679100        1.0080           
    5992 A    1498 TIP4 BD1  LP0     -1.358200        0.0000           
    5993 A    1499 TIP4 O1   OW0      0.000000       15.9990           
    5994 A    1499 TIP4 H1   HW0      0.679100        1.0080           
    5995 A    1499 TIP4 H2   HW0      0.679100        1.0080           
    5996 A    1499 TIP4 BD1  LP0     -1.358200        0.0000           
    5997 A    1500 TIP4 O1   OW0      0.000000       15.9990           
    5998 A    1500 TIP4 H1   HW0      0.679100        1.0080           
    5999 A    1500 TIP4 H2   HW0      0.679100        1.0080           
    6000 A    1500 TIP4 BD1  LP0     -1.358200        0.0000           
    6001 A    1501 TIP4 O1   OW0      0.000000       15.9990           
    6002 A    1501 TIP4 H1   HW0      0.679100        1.0080           
    6003 A    1501 TIP4 H2   HW0      0.679100        1.0080           
    6004 A    1501 TIP4 BD1  LP0     -1.358200        0.0000           
    6005 A    1502 TIP4 O1   OW0      0.000000       15.9990           
    6006 A    1502 TIP4 H1   HW0      0.679100        1.0080           
    6007 A    1502 TIP4 H2   HW0      0.679100        1.0080           
    6008 A    1502 TIP4 BD1  LP0     -1.358200        0.0000           
    6009 A    1503 TIP4 O1   OW0      0.000000       15.9990           
    6010 A    1503 TIP4 H1   HW0      0.679100        1.0080           
    6011 A    1503 TIP4 H2   HW0      0.679100        1.0080           
    6012 A    1503 TIP4 BD1  LP0     -1.358200        0.0000           
    6013 A    1504 TIP4 O1   OW0      0.000000       15.9990           
    6014 A    1504 TIP4 H1   HW0      0.679100        1.0080           
    6015 A    1504 TIP4 H2   HW0      0.679100        1.0080           
    6016 A    1504 TIP4 BD1  LP0     -1.358200        0.0000           
    6017 A    1505 TIP4 O1   OW0      0.000000       15.9990           
    6018 A    1505 TIP4 H1   HW0      0.679100        1.0080           
    6019 A    1505 TIP4 H2   HW0      0.679100        1.0080           
    6020 A    1505 TIP4 BD1  LP0     -1.358200        0.0000           
    6021 A    1506 TIP4 O1   OW0      0.000000       15.9990           
    6022 A    1506 TIP4 H1   HW0      0.679100        1.0080           
    6023 A    1506 TIP4 H2   HW0      0.679100        1.0080           
    6024 A    1506 TIP4 BD1  LP0     -1.358200        0.0000           
    6025 A    1507 TIP4 O1   OW0      0.000000       15.9990           
    6026 A    1507 TIP4 H1   HW0      0.679100        1.0080           
    6027 A    1507 TIP4 H2   HW0      0.679100        1.0080           
    6028 A    1507 TIP4 BD1  LP0     -1.358200        0.0000           
    6029 A    1508 TIP4 O1   OW0      0.000000       15.9990           
    6030 A    1508 TIP4 H1   HW0      0.679100        1.0080           
    6031 A    1508 TIP4 H2   HW0      0.679100        1.0080           
    6032 A    1508 TIP4 BD1  LP0     -1.358200        0.0000           
    6033 A    1509 TIP4 O1   OW0      0.000000       15.9990           
    6034 A    1509 TIP4 H1   HW0      0.679100        1.0080           
    6035 A    1509 TIP4 H2   HW0      0.679100        1.0080           
    6036 A    1509 TIP4 BD1  LP0     -1.358200        0.0000           
    6037 A    1510 TIP4 O1   OW0      0.000000       15.9990           
    6038 A    1510 TIP4 H1   HW0      0.679100        1.0080           
    6039 A    1510 TIP4 H2   HW0      0.679100        1.0080           
    6040 A    1510 TIP4 BD1  LP0     -1.358200        0.0000           
    6041 A    1511 TIP4 O1   OW0      0.000000       15.9990           
    6042 A    1511 TIP4 H1   HW0      0.679100        1.0080           
    6043 A    1511 TIP4 H2   HW0      0.679100        1.0080           
    6044 A    1511 TIP4 BD1  LP0     -1.358200        0.0000           
    6045 A    1512 TIP4 O1   OW0      0.000000       15.9990           
    6046 A    1512 TIP4 H1   HW0      0.679100        1.0080           
    6047 A    1512 TIP4 H2   HW0      0.679100        1.0080           
    6048 A    1512 TIP4 BD1  LP0     -1.358200        0.0000           
    6049 A    1513 TIP4 O1   OW0      0.000000       15.9990           
    6050 A    1513 TIP4 H1   HW0      0.679100        1.0080           
    6051 A    1513 TIP4 H2   HW0      0.679100        1.0080           
    6052 A    1513 TIP4 BD1  LP0     -1.358200        0.0000           
    6053 A    1514 TIP4 O1   OW0      0.000000       15.9990           
    6054 A    1514 TIP4 H1   HW0      0.679100        1.0080           
    6055 A    1514 TIP4 H2   HW0      0.679100        1.0080           
    6056 A    1514 TIP4 BD1  LP0     -1.358200        0.0000           
    6057 A    1515 TIP4 O1   OW0      0.000000       15.9990           
    6058 A    1515 TIP4 H1   HW0      0.679100        1.0080           
    6059 A    1515 TIP4 H2   HW0      0.679100        1.0080           
    6060 A    1515 TIP4 BD1  LP0     -1.358200        0.0000           
    6061 A    1516 TIP4 O1   OW0      0.000000       15.9990           
    6062 A    1516 TIP4 H1   HW0      0.679100        1.0080           
    6063 A    1516 TIP4 H2   HW0      0.679100        1.0080           
    6064 A    1516 TIP4 BD1  LP0     -1.358200        0.0000           
    6065 A    1517 TIP4 O1   OW0      0.000000       15.9990           
    6066 A    1517 TIP4 H1   HW0      0.679100        1.0080           
    6067 A    1517 TIP4 H2   HW0      0.679100        1.0080           
    6068 A    1517 TIP4 BD1  LP0     -1.358200        0.0000           
    6069 A    1518 TIP4 O1   OW0      0.000000       15.9990           
    6070 A    1518 TIP4 H1   HW0      0.679100        1.0080           
    6071 A    1518 TIP4 H2   HW0      0.679100        1.0080           
    6072 A    1518 TIP4 BD1  LP0     -1.358200        0.0000           
    6073 A    1519 TIP4 O1   OW0      0.000000       15.9990           
    6074 A    1519 TIP4 H1   HW0      0.679100        1.0080           
    6075 A    1519 TIP4 H2   HW0      0.679100        1.0080           
    6076 A    1519 TIP4 BD1  LP0     -1.358200        0.0000           
    6077 A    1520 TIP4 O1   OW0      0.000000       15.9990           
    6078 A    1520 TIP4 H1   HW0      0.679100        1.0080           
    6079 A    1520 TIP4 H2   HW0      0.679100        1.0080           
    6080 A    1520 TIP4 BD1  LP0     -1.358200        0.0000           
    6081 A    1521 TIP4 O1   OW0      0.000000       15.9990           
    6082 A    1521 TIP4 H1   HW0      0.679100        1.0080           
    6083 A    1521 TIP4 H2   HW0      0.679100        1.0080           
    6084 A    1521 TIP4 BD1  LP0     -1.358200        0.0000           
    6085 A    1522 TIP4 O1   OW0      0.000000       15.9990           
    6086 A    1522 TIP4 H1   HW0      0.679100        1.0080           
    6087 A    1522 TIP4 H2   HW0      0.679100        1.0080           
    6088 A    1522 TIP4 BD1  LP0     -1.358200        0.0000           
    6089 A    1523 TIP4 O1   OW0      0.000000       15.9990           
    6090 A    1523 TIP4 H1   HW0      0.679100        1.0080           
    6091 A    1523 TIP4 H2   HW0      0.679100        1.0080           
    6092 A    1523 TIP4 BD1  LP0     -1.358200        0.0000           
    6093 A    1524 TIP4 O1   OW0      0.000000       15.9990           
    6094 A    1524 TIP4 H1   HW0      0.679100        1.0080           
    6095 A    1524 TIP4 H2   HW0      0.679100        1.0080           
    6096 A    1524 TIP4 BD1  LP0     -1.358200        0.0000           
    6097 A    1525 TIP4 O1   OW0      0.000000       15.9990           
    6098 A    1525 TIP4 H1   HW0      0.679100        1.0080           
    6099 A    1525 TIP4 H2   HW0      0.679100        1.0080           
    6100 A    1525 TIP4 BD1  LP0     -1.358200        0.0000           
    6101 A    1526 TIP4 O1   OW0      0.000000       15.9990           
    6102 A    1526 TIP4 H1   HW0      0.679100        1.0080           
    6103 A    1526 TIP4 H2   HW0      0.679100        1.0080           
    6104 A    1526 TIP4 BD1  LP0     -1.358200        0.0000           
    6105 A    1527 TIP4 O1   OW0      0.000000       15.9990           
    6106 A    1527 TIP4 H1   HW0      0.679100        1.0080           
    6107 A    1527 TIP4 H2   HW0      0.679100        1.0080           
    6108 A    1527 TIP4 BD1  LP0     -1.358200        0.0000           
    6109 A    1528 TIP4 O1   OW0      0.000000       15.9990           
    6110 A    1528 TIP4 H1   HW0      0.679100        1.0080           
    6111 A    1528 TIP4 H2   HW0      0.679100        1.0080           
    6112 A    1528 TIP4 BD1  LP0     -1.358200        0.0000           
    6113 A    1529 TIP4 O1   OW0      0.000000       15.9990           
    6114 A    1529 TIP4 H1   HW0      0.679100        1.0080           
    6115 A    1529 TIP4 H2   HW0      0.679100        1.0080           
    6116 A    1529 TIP4 BD1  LP0     -1.358200        0.0000           
    6117 A    1530 TIP4 O1   OW0      0.000000       15.9990           
    6118 A    1530 TIP4 H1   HW0      0.679100        1.0080           
    6119 A    1530 TIP4 H2   HW0      0.679100        1.0080           
    6120 A    1530 TIP4 BD1  LP0     -1.358200        0.0000           
    6121 A    1531 TIP4 O1   OW0      0.000000       15.9990           
    6122 A    1531 TIP4 H1   HW0      0.679100        1.0080           
    6123 A    1531 TIP4 H2   HW0      0.679100        1.0080           
    6124 A    1531 TIP4 BD1  LP0     -1.358200        0.0000           
    6125 A    1532 TIP4 O1   OW0      0.000000       15.9990           
    6126 A    1532 TIP4 H1   HW0      0.679100        1.0080           
    6127 A    1532 TIP4 H2   HW0      0.679100        1.0080           
    6128 A    1532 TIP4 BD1  LP0     -1.358200        0.0000           
    6129 A    1533 TIP4 O1   OW0      0.000000       15.9990           
    6130 A    1533 TIP4 H1   HW0      0.679100        1.0080           
    6131 A    1533 TIP4 H2   HW0      0.679100        1.0080           
    6132 A    1533 TIP4 BD1  LP0     -1.358200        0.0000           
    6133 A    1534 TIP4 O1   OW0      0.000000       15.9990           
    6134 A    1534 TIP4 H1   HW0      0.679100        1.0080           
    6135 A    1534 TIP4 H2   HW0      0.679100        1.0080           
    6136 A    1534 TIP4 BD1  LP0     -1.358200        0.0000           
    6137 A    1535 TIP4 O1   OW0      0.000000       15.9990           
    6138 A    1535 TIP4 H1   HW0      0.679100        1.0080           
    6139 A    1535 TIP4 H2   HW0      0.679100        1.0080           
    6140 A    1535 TIP4 BD1  LP0     -1.358200        0.0000           
    6141 A    1536 TIP4 O1   OW0      0.000000       15.9990           
    6142 A    1536 TIP4 H1   HW0      0.679100        1.0080           
    6143 A    1536 TIP4 H2   HW0      0.679100        1.0080           
    6144 A    1536 TIP4 BD1  LP0     -1.358200        0.0000           
    6145 A    1537 TIP4 O1   OW0      0.000000       15.9990           
    6146 A    1537 TIP4 H1   HW0      0.679100        1.0080           
    6147 A    1537 TIP4 H2   HW0      0.679100        1.0080           
    6148 A    1537 TIP4 BD1  LP0     -1.358200        0.0000           
    6149 A    1538 TIP4 O1   OW0      0.000000       15.9990           
    6150 A    1538 TIP4 H1   HW0      0.679100        1.0080           
    6151 A    1538 TIP4 H2   HW0      0.679100        1.0080           
    6152 A    1538 TIP4 BD1  LP0     -1.358200        0.0000           
    6153 A    1539 TIP4 O1   OW0      0.000000       15.9990           
    6154 A    1539 TIP4 H1   HW0      0.679100        1.0080           
    6155 A    1539 TIP4 H2   HW0      0.679100        1.0080           
    6156 A    1539 TIP4 BD1  LP0     -1.358200        0.0000           
    6157 A    1540 TIP4 O1   OW0      0.000000       15.9990           
    6158 A    1540 TIP4 H1   HW0      0.679100        1.0080           
    6159 A    1540 TIP4 H2   HW0      0.679100        1.0080           
    6160 A    1540 TIP4 BD1  LP0     -1.358200        0.0000           
    6161 A    1541 TIP4 O1   OW0      0.000000       15.9990           
    6162 A    1541 TIP4 H1   HW0      0.679100        1.0080           
    6163 A    1541 TIP4 H2   HW0      0.679100        1.0080           
    6164 A    1541 TIP4 BD1  LP0     -1.358200        0.0000           
    6165 A    1542 TIP4 O1   OW0      0.000000       15.9990           
    6166 A    1542 TIP4 H1   HW0      0.679100        1.0080           
    6167 A    1542 TIP4 H2   HW0      0.679100        1.0080           
    6168 A    1542 TIP4 BD1  LP0     -1.358200        0.0000           
    6169 A    1543 TIP4 O1   OW0      0.000000       15.9990           
    6170 A    1543 TIP4 H1   HW0      0.679100        1.0080           
    6171 A    1543 TIP4 H2   HW0      0.679100        1.0080           
    6172 A    1543 TIP4 BD1  LP0     -1.358200        0.0000           
    6173 A    1544 TIP4 O1   OW0      0.000000       15.9990           
    6174 A    1544 TIP4 H1   HW0      0.679100        1.0080           
    6175 A    1544 TIP4 H2   HW0      0.679100        1.0080           
    6176 A    1544 TIP4 BD1  LP0     -1.358200        0.0000           
    6177 A    1545 TIP4 O1   OW0      0.000000       15.9990           
    6178 A    1545 TIP4 H1   HW0      0.679100        1.0080           
    6179 A    1545 TIP4 H2   HW0      0.679100        1.0080           
    6180 A    1545 TIP4 BD1  LP0     -1.358200        0.0000           
    6181 A    1546 TIP4 O1   OW0      0.000000       15.9990           
    6182 A    1546 TIP4 H1   HW0      0.679100        1.0080           
    6183 A    1546 TIP4 H2   HW0      0.679100        1.0080           
    6184 A    1546 TIP4 BD1  LP0     -1.358200        0.0000           
    6185 A    1547 TIP4 O1   OW0      0.000000       15.9990           
    6186 A    1547 TIP4 H1   HW0      0.679100        1.0080           
    6187 A    1547 TIP4 H2   HW0      0.679100        1.0080           
    6188 A    1547 TIP4 BD1  LP0     -1.358200        0.0000           
    6189 A    1548 TIP4 O1   OW0      0.000000       15.9990           
    6190 A    1548 TIP4 H1   HW0      0.679100        1.0080           
    6191 A    1548 TIP4 H2   HW0      0.679100        1.0080           
    6192 A    1548 TIP4 BD1  LP0     -1.358200        0.0000           
    6193 A    1549 TIP4 O1   OW0      0.000000       15.9990           
    6194 A    1549 TIP4 H1   HW0      0.679100        1.0080           
    6195 A    1549 TIP4 H2   HW0      0.679100        1.0080           
    6196 A    1549 TIP4 BD1  LP0     -1.358200        0.0000           
    6197 A    1550 TIP4 O1   OW0      0.000000       15.9990           
    6198 A    1550 TIP4 H1   HW0      0.679100        1.0080           
    6199 A    1550 TIP4 H2   HW0      0.679100        1.0080           
    6200 A    1550 TIP4 BD1  LP0     -1.358200        0.0000           
    6201 A    1551 TIP4 O1   OW0      0.000000       15.9990           
    6202 A    1551 TIP4 H1   HW0      0.679100        1.0080           
    6203 A    1551 TIP4 H2   HW0      0.679100        1.0080           
    6204 A    1551 TIP4 BD1  LP0     -1.358200        0.0000           
    6205 A    1552 TIP4 O1   OW0      0.000000       15.9990           
    6206 A    1552 TIP4 H1   HW0      0.679100        1.0080           
    6207 A    1552 TIP4 H2   HW0      0.679100        1.0080           
    6208 A    1552 TIP4 BD1  LP0     -1.358200        0.0000           
    6209 A    1553 TIP4 O1   OW0      0.000000       15.9990           
    6210 A    1553 TIP4 H1   HW0      0.679100        1.0080           
    6211 A    1553 TIP4 H2   HW0      0.679100        1.0080           
    6212 A    1553 TIP4 BD1  LP0     -1.358200        0.0000           
    6213 A    1554 TIP4 O1   OW0      0.000000       15.9990           
    6214 A    1554 TIP4 H1   HW0      0.679100        1.0080           
    6215 A    1554 TIP4 H2   HW0      0.679100        1.0080           
    6216 A    1554 TIP4 BD1  LP0     -1.358200        0.0000           
    6217 A    1555 TIP4 O1   OW0      0.000000       15.9990           
    6218 A    1555 TIP4 H1   HW0      0.679100        1.0080           
    6219 A    1555 TIP4 H2   HW0      0.679100        1.0080           
    6220 A    1555 TIP4 BD1  LP0     -1.358200        0.0000           
    6221 A    1556 TIP4 O1   OW0      0.000000       15.9990           
    6222 A    1556 TIP4 H1   HW0      0.679100        1.0080           
    6223 A    1556 TIP4 H2   HW0      0.679100        1.0080           
    6224 A    1556 TIP4 BD1  LP0     -1.358200        0.0000           
    6225 A    1557 TIP4 O1   OW0      0.000000       15.9990           
    6226 A    1557 TIP4 H1   HW0      0.679100        1.0080           
    6227 A    1557 TIP4 H2   HW0      0.679100        1.0080           
    6228 A    1557 TIP4 BD1  LP0     -1.358200        0.0000           
    6229 A    1558 TIP4 O1   OW0      0.000000       15.9990           
    6230 A    1558 TIP4 H1   HW0      0.679100        1.0080           
    6231 A    1558 TIP4 H2   HW0      0.679100        1.0080           
    6232 A    1558 TIP4 BD1  LP0     -1.358200        0.0000           
    6233 A    1559 TIP4 O1   OW0      0.000000       15.9990           
    6234 A    1559 TIP4 H1   HW0      0.679100        1.0080           
    6235 A    1559 TIP4 H2   HW0      0.679100        1.0080           
    6236 A    1559 TIP4 BD1  LP0     -1.358200        0.0000           
    6237 A    1560 TIP4 O1   OW0      0.000000       15.9990           
    6238 A    1560 TIP4 H1   HW0      0.679100        1.0080           
    6239 A    1560 TIP4 H2   HW0      0.679100        1.0080           
    6240 A    1560 TIP4 BD1  LP0     -1.358200        0.0000           
    6241 A    1561 TIP4 O1   OW0      0.000000       15.9990           
    6242 A    1561 TIP4 H1   HW0      0.679100        1.0080           
    6243 A    1561 TIP4 H2   HW0      0.679100        1.0080           
    6244 A    1561 TIP4 BD1  LP0     -1.358200        0.0000           
    6245 A    1562 TIP4 O1   OW0      0.000000       15.9990           
    6246 A    1562 TIP4 H1   HW0      0.679100        1.0080           
    6247 A    1562 TIP4 H2   HW0      0.679100        1.0080           
    6248 A    1562 TIP4 BD1  LP0     -1.358200        0.0000           
    6249 A    1563 TIP4 O1   OW0      0.000000       15.9990           
    6250 A    1563 TIP4 H1   HW0      0.679100        1.0080           
    6251 A    1563 TIP4 H2   HW0      0.679100        1.0080           
    6252 A    1563 TIP4 BD1  LP0     -1.358200        0.0000           
    6253 A    1564 TIP4 O1   OW0      0.000000       15.9990           
    6254 A    1564 TIP4 H1   HW0      0.679100        1.0080           
    6255 A    1564 TIP4 H2   HW0      0.679100        1.0080           
    6256 A    1564 TIP4 BD1  LP0     -1.358200        0.0000           
    6257 A    1565 TIP4 O1   OW0      0.000000       15.9990           
    6258 A    1565 TIP4 H1   HW0      0.679100        1.0080           
    6259 A    1565 TIP4 H2   HW0      0.679100        1.0080           
    6260 A    1565 TIP4 BD1  LP0     -1.358200        0.0000           
    6261 A    1566 TIP4 O1   OW0      0.000000       15.9990           
    6262 A    1566 TIP4 H1   HW0      0.679100        1.0080           
    6263 A    1566 TIP4 H2   HW0      0.679100        1.0080           
    6264 A    1566 TIP4 BD1  LP0     -1.358200        0.0000           
    6265 A    1567 TIP4 O1   OW0      0.000000       15.9990           
    6266 A    1567 TIP4 H1   HW0      0.679100        1.0080           
    6267 A    1567 TIP4 H2   HW0      0.679100        1.0080           
    6268 A    1567 TIP4 BD1  LP0     -1.358200        0.0000           
    6269 A    1568 TIP4 O1   OW0      0.000000       15.9990           
    6270 A    1568 TIP4 H1   HW0      0.679100        1.0080           
    6271 A    1568 TIP4 H2   HW0      0.679100        1.0080           
    6272 A    1568 TIP4 BD1  LP0     -1.358200        0.0000           
    6273 A    1569 TIP4 O1   OW0      0.000000       15.9990           
    6274 A    1569 TIP4 H1   HW0      0.679100        1.0080           
    6275 A    1569 TIP4 H2   HW0      0.679100        1.0080           
    6276 A    1569 TIP4 BD1  LP0     -1.358200        0.0000           
    6277 A    1570 TIP4 O1   OW0      0.000000       15.9990           
    6278 A    1570 TIP4 H1   HW0      0.679100        1.0080           
    6279 A    1570 TIP4 H2   HW0      0.679100        1.0080           
    6280 A    1570 TIP4 BD1  LP0     -1.358200        0.0000           
    6281 A    1571 TIP4 O1   OW0      0.000000       15.9990           
    6282 A    1571 TIP4 H1   HW0      0.679100        1.0080           
    6283 A    1571 TIP4 H2   HW0      0.679100        1.0080           
    6284 A    1571 TIP4 BD1  LP0     -1.358200        0.0000           
    6285 A    1572 TIP4 O1   OW0      0.000000       15.9990           
    6286 A    1572 TIP4 H1   HW0      0.679100        1.0080           
    6287 A    1572 TIP4 H2   HW0      0.679100        1.0080           
    6288 A    1572 TIP4 BD1  LP0     -1.358200        0.0000           
    6289 A    1573 TIP4 O1   OW0      0.000000       15.9990           
    6290 A    1573 TIP4 H1   HW0      0.679100        1.0080           
    6291 A    1573 TIP4 H2   HW0      0.679100        1.0080           
    6292 A    1573 TIP4 BD1  LP0     -1.358200        0.0000           
    6293 A    1574 TIP4 O1   OW0      0.000000       15.9990           
    6294 A    1574 TIP4 H1   HW0      0.679100        1.0080           
    6295 A    1574 TIP4 H2   HW0      0.679100        1.0080           
    6296 A    1574 TIP4 BD1  LP0     -1.358200        0.0000           
    6297 A    1575 TIP4 O1   OW0      0.000000       15.9990           
    6298 A    1575 TIP4 H1   HW0      0.679100        1.0080           
    6299 A    1575 TIP4 H2   HW0      0.679100        1.0080           
    6300 A    1575 TIP4 BD1  LP0     -1.358200        0.0000           
    6301 A    1576 TIP4 O1   OW0      0.000000       15.9990           
    6302 A    1576 TIP4 H1   HW0      0.679100        1.0080           
    6303 A    1576 TIP4 H2   HW0      0.679100        1.0080           
    6304 A    1576 TIP4 BD1  LP0     -1.358200        0.0000           
    6305 A    1577 TIP4 O1   OW0      0.000000       15.9990           
    6306 A    1577 TIP4 H1   HW0      0.679100        1.0080           
    6307 A    1577 TIP4 H2   HW0      0.679100        1.0080           
    6308 A    1577 TIP4 BD1  LP0     -1.358200        0.0000           
    6309 A    1578 TIP4 O1   OW0      0.000000       15.9990           
    6310 A    1578 TIP4 H1   HW0      0.679100        1.0080           
    6311 A    1578 TIP4 H2   HW0      0.679100        1.0080           
    6312 A    1578 TIP4 BD1  LP0     -1.358200        0.0000           
    6313 A    1579 TIP4 O1   OW0      0.000000       15.9990           
    6314 A    1579 TIP4 H1   HW0      0.679100        1.0080           
    6315 A    1579 TIP4 H2   HW0      0.679100        1.0080           
    6316 A    1579 TIP4 BD1  LP0     -1.358200        0.0000           
    6317 A    1580 TIP4 O1   OW0      0.000000       15.9990           
    6318 A    1580 TIP4 H1   HW0      0.679100        1.0080           
    6319 A    1580 TIP4 H2   HW0      0.679100        1.0080           
    6320 A    1580 TIP4 BD1  LP0     -1.358200        0.0000           
    6321 A    1581 TIP4 O1   OW0      0.000000       15.9990           
    6322 A    1581 TIP4 H1   HW0      0.679100        1.0080           
    6323 A    1581 TIP4 H2   HW0      0.679100        1.0080           
    6324 A    1581 TIP4 BD1  LP0     -1.358200        0.0000           
    6325 A    1582 TIP4 O1   OW0      0.000000       15.9990           
    6326 A    1582 TIP4 H1   HW0      0.679100        1.0080           
    6327 A    1582 TIP4 H2   HW0      0.679100        1.0080           
    6328 A    1582 TIP4 BD1  LP0     -1.358200        0.0000           
    6329 A    1583 TIP4 O1   OW0      0.000000       15.9990           
    6330 A    1583 TIP4 H1   HW0      0.679100        1.0080           
    6331 A    1583 TIP4 H2   HW0      0.679100        1.0080           
    6332 A    1583 TIP4 BD1  LP0     -1.358200        0.0000           
    6333 A    1584 TIP4 O1   OW0      0.000000       15.9990           
    6334 A    1584 TIP4 H1   HW0      0.679100        1.0080           
    6335 A    1584 TIP4 H2   HW0      0.679100        1.0080           
    6336 A    1584 TIP4 BD1  LP0     -1.358200        0.0000           
    6337 A    1585 TIP4 O1   OW0      0.000000       15.9990           
    6338 A    1585 TIP4 H1   HW0      0.679100        1.0080           
    6339 A    1585 TIP4 H2   HW0      0.679100        1.0080           
    6340 A    1585 TIP4 BD1  LP0     -1.358200        0.0000           
    6341 A    1586 TIP4 O1   OW0      0.000000       15.9990           
    6342 A    1586 TIP4 H1   HW0      0.679100        1.0080           
    6343 A    1586 TIP4 H2   HW0      0.679100        1.0080           
    6344 A    1586 TIP4 BD1  LP0     -1.358200        0.0000           
    6345 A    1587 TIP4 O1   OW0      0.000000       15.9990           
    6346 A    1587 TIP4 H1   HW0      0.679100        1.0080           
    6347 A    1587 TIP4 H2   HW0      0.679100        1.0080           
    6348 A    1587 TIP4 BD1  LP0     -1.358200        0.0000           
    6349 A    1588 TIP4 O1   OW0      0.000000       15.9990           
    6350 A    1588 TIP4 H1   HW0      0.679100        1.0080           
    6351 A    1588 TIP4 H2   HW0      0.679100        1.0080           
    6352 A    1588 TIP4 BD1  LP0     -1.358200        0.0000           
    6353 A    1589 TIP4 O1   OW0      0.000000       15.9990           
    6354 A    1589 TIP4 H1   HW0      0.679100        1.0080           
    6355 A    1589 TIP4 H2   HW0      0.679100        1.0080           
    6356 A    1589 TIP4 BD1  LP0     -1.358200        0.0000           
    6357 A    1590 TIP4 O1   OW0      0.000000       15.9990           
    6358 A    1590 TIP4 H1   HW0      0.679100        1.0080           
    6359 A    1590 TIP4 H2   HW0      0.679100        1.0080           
    6360 A    1590 TIP4 BD1  LP0     -1.358200        0.0000           
    6361 A    1591 TIP4 O1   OW0      0.000000       15.9990           
    6362 A    1591 TIP4 H1   HW0      0.679100        1.0080           
    6363 A    1591 TIP4 H2   HW0      0.679100        1.0080           
    6364 A    1591 TIP4 BD1  LP0     -1.358200        0.0000           
    6365 A    1592 TIP4 O1   OW0      0.000000       15.9990           
    6366 A    1592 TIP4 H1   HW0      0.679100        1.0080           
    6367 A    1592 TIP4 H2   HW0      0.679100        1.0080           
    6368 A    1592 TIP4 BD1  LP0     -1.358200        0.0000           
    6369 A    1593 TIP4 O1   OW0      0.000000       15.9990           
    6370 A    1593 TIP4 H1   HW0      0.679100        1.0080           
    6371 A    1593 TIP4 H2   HW0      0.679100        1.0080           
    6372 A    1593 TIP4 BD1  LP0     -1.358200        0.0000           
    6373 A    1594 TIP4 O1   OW0      0.000000       15.9990           
    6374 A    1594 TIP4 H1   HW0      0.679100        1.0080           
    6375 A    1594 TIP4 H2   HW0      0.679100        1.0080           
    6376 A    1594 TIP4 BD1  LP0     -1.358200        0.0000           
    6377 A    1595 TIP4 O1   OW0      0.000000       15.9990           
    6378 A    1595 TIP4 H1   HW0      0.679100        1.0080           
    6379 A    1595 TIP4 H2   HW0      0.679100        1.0080           
    6380 A    1595 TIP4 BD1  LP0     -1.358200        0.0000           
    6381 A    1596 TIP4 O1   OW0      0.000000       15.9990           
    6382 A    1596 TIP4 H1   HW0      0.679100        1.0080           
    6383 A    1596 TIP4 H2   HW0      0.679100        1.0080           
    6384 A    1596 TIP4 BD1  LP0     -1.358200        0.0000           
    6385 A    1597 TIP4 O1   OW0      0.000000       15.9990           
    6386 A    1597 TIP4 H1   HW0      0.679100        1.0080           
    6387 A    1597 TIP4 H2   HW0      0.679100        1.0080           
    6388 A    1597 TIP4 BD1  LP0     -1.358200        0.0000           
    6389 A    1598 TIP4 O1   OW0      0.000000       15.9990           
    6390 A    1598 TIP4 H1   HW0      0.679100        1.0080           
    6391 A    1598 TIP4 H2   HW0      0.679100        1.0080           
    6392 A    1598 TIP4 BD1  LP0     -1.358200        0.0000           
    6393 A    1599 TIP4 O1   OW0      0.000000       15.9990           
    6394 A    1599 TIP4 H1   HW0      0.679100        1.0080           
    6395 A    1599 TIP4 H2   HW0      0.679100        1.0080           
    6396 A    1599 TIP4 BD1  LP0     -1.358200        0.0000           
    6397 A    1600 TIP4 O1   OW0      0.000000       15.9990           
    6398 A    1600 TIP4 H1   HW0      0.679100        1.0080           
    6399 A    1600 TIP4 H2   HW0      0.679100        1.0080           
    6400 A    1600 TIP4 BD1  LP0     -1.358200        0.0000           
    6401 A    1601 TIP4 O1   OW0      0.000000       15.9990           
    6402 A    1601 TIP4 H1   HW0      0.679100        1.0080           
    6403 A    1601 TIP4 H2   HW0      0.679100        1.0080           
    6404 A    1601 TIP4 BD1  LP0     -1.358200        0.0000           
    6405 A    1602 TIP4 O1   OW0      0.000000       15.9990           
    6406 A    1602 TIP4 H1   HW0      0.679100        1.0080           
    6407 A    1602 TIP4 H2   HW0      0.679100        1.0080           
    6408 A    1602 TIP4 BD1  LP0     -1.358200        0.0000           
    6409 A    1603 TIP4 O1   OW0      0.000000       15.9990           
    6410 A    1603 TIP4 H1   HW0      0.679100        1.0080           
    6411 A    1603 TIP4 H2   HW0      0.679100        1.0080           
    6412 A    1603 TIP4 BD1  LP0     -1.358200        0.0000           
    6413 A    1604 TIP4 O1   OW0      0.000000       15.9990           
    6414 A    1604 TIP4 H1   HW0      0.679100        1.0080           
    6415 A    1604 TIP4 H2   HW0      0.679100        1.0080           
    6416 A    1604 TIP4 BD1  LP0     -1.358200        0.0000           
    6417 A    1605 TIP4 O1   OW0      0.000000       15.9990           
    6418 A    1605 TIP4 H1   HW0      0.679100        1.0080           
    6419 A    1605 TIP4 H2   HW0      0.679100        1.0080           
    6420 A    1605 TIP4 BD1  LP0     -1.358200        0.0000           
    6421 A    1606 TIP4 O1   OW0      0.000000       15.9990           
    6422 A    1606 TIP4 H1   HW0      0.679100        1.0080           
    6423 A    1606 TIP4 H2   HW0      0.679100        1.0080           
    6424 A    1606 TIP4 BD1  LP0     -1.358200        0.0000           
    6425 A    1607 TIP4 O1   OW0      0.000000       15.9990           
    6426 A    1607 TIP4 H1   HW0      0.679100        1.0080           
    6427 A    1607 TIP4 H2   HW0      0.679100        1.0080           
    6428 A    1607 TIP4 BD1  LP0     -1.358200        0.0000           
    6429 A    1608 TIP4 O1   OW0      0.000000       15.9990           
    6430 A    1608 TIP4 H1   HW0      0.679100        1.0080           
    6431 A    1608 TIP4 H2   HW0      0.679100        1.0080           
    6432 A    1608 TIP4 BD1  LP0     -1.358200        0.0000           
    6433 A    1609 TIP4 O1   OW0      0.000000       15.9990           
    6434 A    1609 TIP4 H1   HW0      0.679100        1.0080           
    6435 A    1609 TIP4 H2   HW0      0.679100        1.0080           
    6436 A    1609 TIP4 BD1  LP0     -1.358200        0.0000           
    6437 A    1610 TIP4 O1   OW0      0.000000       15.9990           
    6438 A    1610 TIP4 H1   HW0      0.679100        1.0080           
    6439 A    1610 TIP4 H2   HW0      0.679100        1.0080           
    6440 A    1610 TIP4 BD1  LP0     -1.358200        0.0000           
    6441 A    1611 TIP4 O1   OW0      0.000000       15.9990           
    6442 A    1611 TIP4 H1   HW0      0.679100        1.0080           
    6443 A    1611 TIP4 H2   HW0      0.679100        1.0080           
    6444 A    1611 TIP4 BD1  LP0     -1.358200        0.0000           
    6445 A    1612 TIP4 O1   OW0      0.000000       15.9990           
    6446 A    1612 TIP4 H1   HW0      0.679100        1.0080           
    6447 A    1612 TIP4 H2   HW0      0.679100        1.0080           
    6448 A    1612 TIP4 BD1  LP0     -1.358200        0.0000           
    6449 A    1613 TIP4 O1   OW0      0.000000       15.9990           
    6450 A    1613 TIP4 H1   HW0      0.679100        1.0080           
    6451 A    1613 TIP4 H2   HW0      0.679100        1.0080           
    6452 A    1613 TIP4 BD1  LP0     -1.358200        0.0000           
    6453 A    1614 TIP4 O1   OW0      0.000000       15.9990           
    6454 A    1614 TIP4 H1   HW0      0.679100        1.0080           
    6455 A    1614 TIP4 H2   HW0      0.679100        1.0080           
    6456 A    1614 TIP4 BD1  LP0     -1.358200        0.0000           
    6457 A    1615 TIP4 O1   OW0      0.000000       15.9990           
    6458 A    1615 TIP4 H1   HW0      0.679100        1.0080           
    6459 A    1615 TIP4 H2   HW0      0.679100        1.0080           
    6460 A    1615 TIP4 BD1  LP0     -1.358200        0.0000           
    6461 A    1616 TIP4 O1   OW0      0.000000       15.9990           
    6462 A    1616 TIP4 H1   HW0      0.679100        1.0080           
    6463 A    1616 TIP4 H2   HW0      0.679100        1.0080           
    6464 A    1616 TIP4 BD1  LP0     -1.358200        0.0000           
    6465 A    1617 TIP4 O1   OW0      0.000000       15.9990           
    6466 A    1617 TIP4 H1   HW0      0.679100        1.0080           
    6467 A    1617 TIP4 H2   HW0      0.679100        1.0080           
    6468 A    1617 TIP4 BD1  LP0     -1.358200        0.0000           
    6469 A    1618 TIP4 O1   OW0      0.000000       15.9990           
    6470 A    1618 TIP4 H1   HW0      0.679100        1.0080           
    6471 A    1618 TIP4 H2   HW0      0.679100        1.0080           
    6472 A    1618 TIP4 BD1  LP0     -1.358200        0.0000           
    6473 A    1619 TIP4 O1   OW0      0.000000       15.9990           
    6474 A    1619 TIP4 H1   HW0      0.679100        1.0080           
    6475 A    1619 TIP4 H2   HW0      0.679100        1.0080           
    6476 A    1619 TIP4 BD1  LP0     -1.358200        0.0000           
    6477 A    1620 TIP4 O1   OW0      0.000000       15.9990           
    6478 A    1620 TIP4 H1   HW0      0.679100        1.0080           
    6479 A    1620 TIP4 H2   HW0      0.679100        1.0080           
    6480 A    1620 TIP4 BD1  LP0     -1.358200        0.0000           
    6481 A    1621 TIP4 O1   OW0      0.000000       15.9990           
    6482 A    1621 TIP4 H1   HW0      0.679100        1.0080           
    6483 A    1621 TIP4 H2   HW0      0.679100        1.0080           
    6484 A    1621 TIP4 BD1  LP0     -1.358200        0.0000           
    6485 A    1622 TIP4 O1   OW0      0.000000       15.9990           
    6486 A    1622 TIP4 H1   HW0      0.679100        1.0080           
    6487 A    1622 TIP4 H2   HW0      0.679100        1.0080           
    6488 A    1622 TIP4 BD1  LP0     -1.358200        0.0000           
    6489 A    1623 TIP4 O1   OW0      0.000000       15.9990           
    6490 A    1623 TIP4 H1   HW0      0.679100        1.0080           
    6491 A    1623 TIP4 H2   HW0      0.679100        1.0080           
    6492 A    1623 TIP4 BD1  LP0     -1.358200        0.0000           
    6493 A    1624 TIP4 O1   OW0      0.000000       15.9990           
    6494 A    1624 TIP4 H1   HW0      0.679100        1.0080           
    6495 A    1624 TIP4 H2   HW0      0.679100        1.0080           
    6496 A    1624 TIP4 BD1  LP0     -1.358200        0.0000           
    6497 A    1625 TIP4 O1   OW0      0.000000       15.9990           
    6498 A    1625 TIP4 H1   HW0      0.679100        1.0080           
    6499 A    1625 TIP4 H2   HW0      0.679100        1.0080           
    6500 A    1625 TIP4 BD1  LP0     -1.358200        0.0000           
    6501 A    1626 TIP4 O1   OW0      0.000000       15.9990           
    6502 A    1626 TIP4 H1   HW0      0.679100        1.0080           
    6503 A    1626 TIP4 H2   HW0      0.679100        1.0080           
    6504 A    1626 TIP4 BD1  LP0     -1.358200        0.0000           
    6505 A    1627 TIP4 O1   OW0      0.000000       15.9990           
    6506 A    1627 TIP4 H1   HW0      0.679100        1.0080           
    6507 A    1627 TIP4 H2   HW0      0.679100        1.0080           
    6508 A    1627 TIP4 BD1  LP0     -1.358200        0.0000           
    6509 A    1628 TIP4 O1   OW0      0.000000       15.9990           
    6510 A    1628 TIP4 H1   HW0      0.679100        1.0080           
    6511 A    1628 TIP4 H2   HW0      0.679100        1.0080           
    6512 A    1628 TIP4 BD1  LP0     -1.358200        0.0000           
    6513 A    1629 TIP4 O1   OW0      0.000000       15.9990           
    6514 A    1629 TIP4 H1   HW0      0.679100        1.0080           
    6515 A    1629 TIP4 H2   HW0      0.679100        1.0080           
    6516 A    1629 TIP4 BD1  LP0     -1.358200        0.0000           
    6517 A    1630 TIP4 O1   OW0      0.000000       15.9990           
    6518 A    1630 TIP4 H1   HW0      0.679100        1.0080           
    6519 A    1630 TIP4 H2   HW0      0.679100        1.0080           
    6520 A    1630 TIP4 BD1  LP0     -1.358200        0.0000           
    6521 A    1631 TIP4 O1   OW0      0.000000       15.9990           
    6522 A    1631 TIP4 H1   HW0      0.679100        1.0080           
    6523 A    1631 TIP4 H2   HW0      0.679100        1.0080           
    6524 A    1631 TIP4 BD1  LP0     -1.358200        0.0000           
    6525 A    1632 TIP4 O1   OW0      0.000000       15.9990           
    6526 A    1632 TIP4 H1   HW0      0.679100        1.0080           
    6527 A    1632 TIP4 H2   HW0      0.679100        1.0080           
    6528 A    1632 TIP4 BD1  LP0     -1.358200        0.0000           
    6529 A    1633 TIP4 O1   OW0      0.000000       15.9990           
    6530 A    1633 TIP4 H1   HW0      0.679100        1.0080           
    6531 A    1633 TIP4 H2   HW0      0.679100        1.0080           
    6532 A    1633 TIP4 BD1  LP0     -1.358200        0.0000           
    6533 A    1634 TIP4 O1   OW0      0.000000       15.9990           
    6534 A    1634 TIP4 H1   HW0      0.679100        1.0080           
    6535 A    1634 TIP4 H2   HW0      0.679100        1.0080           
    6536 A    1634 TIP4 BD1  LP0     -1.358200        0.0000           
    6537 A    1635 TIP4 O1   OW0      0.000000       15.9990           
    6538 A    1635 TIP4 H1   HW0      0.679100        1.0080           
    6539 A    1635 TIP4 H2   HW0      0.679100        1.0080           
    6540 A    1635 TIP4 BD1  LP0     -1.358200        0.0000           
    6541 A    1636 TIP4 O1   OW0      0.000000       15.9990           
    6542 A    1636 TIP4 H1   HW0      0.679100        1.0080           
    6543 A    1636 TIP4 H2   HW0      0.679100        1.0080           
    6544 A    1636 TIP4 BD1  LP0     -1.358200        0.0000           
    6545 A    1637 TIP4 O1   OW0      0.000000       15.9990           
    6546 A    1637 TIP4 H1   HW0      0.679100        1.0080           
    6547 A    1637 TIP4 H2   HW0      0.679100        1.0080           
    6548 A    1637 TIP4 BD1  LP0     -1.358200        0.0000           
    6549 A    1638 TIP4 O1   OW0      0.000000       15.9990           
    6550 A    1638 TIP4 H1   HW0      0.679100        1.0080           
    6551 A    1638 TIP4 H2   HW0      0.679100        1.0080           
    6552 A    1638 TIP4 BD1  LP0     -1.358200        0.0000           
    6553 A    1639 TIP4 O1   OW0      0.000000       15.9990           
    6554 A    1639 TIP4 H1   HW0      0.679100        1.0080           
    6555 A    1639 TIP4 H2   HW0      0.679100        1.0080           
    6556 A    1639 TIP4 BD1  LP0     -1.358200        0.0000           
    6557 A    1640 TIP4 O1   OW0      0.000000       15.9990           
    6558 A    1640 TIP4 H1   HW0      0.679100        1.0080           
    6559 A    1640 TIP4 H2   HW0      0.679100        1.0080           
    6560 A    1640 TIP4 BD1  LP0     -1.358200        0.0000           
    6561 A    1641 TIP4 O1   OW0      0.000000       15.9990           
    6562 A    1641 TIP4 H1   HW0      0.679100        1.0080           
    6563 A    1641 TIP4 H2   HW0      0.679100        1.0080           
    6564 A    1641 TIP4 BD1  LP0     -1.358200        0.0000           
    6565 A    1642 TIP4 O1   OW0      0.000000       15.9990           
    6566 A    1642 TIP4 H1   HW0      0.679100        1.0080           
    6567 A    1642 TIP4 H2   HW0      0.679100        1.0080           
    6568 A    1642 TIP4 BD1  LP0     -1.358200        0.0000           
    6569 A    1643 TIP4 O1   OW0      0.000000       15.9990           
    6570 A    1643 TIP4 H1   HW0      0.679100        1.0080           
    6571 A    1643 TIP4 H2   HW0      0.679100        1.0080           
    6572 A    1643 TIP4 BD1  LP0     -1.358200        0.0000           
    6573 A    1644 TIP4 O1   OW0      0.000000       15.9990           
    6574 A    1644 TIP4 H1   HW0      0.679100        1.0080           
    6575 A    1644 TIP4 H2   HW0      0.679100        1.0080           
    6576 A    1644 TIP4 BD1  LP0     -1.358200        0.0000           
    6577 A    1645 TIP4 O1   OW0      0.000000       15.9990           
    6578 A    1645 TIP4 H1   HW0      0.679100        1.0080           
    6579 A    1645 TIP4 H2   HW0      0.679100        1.0080           
    6580 A    1645 TIP4 BD1  LP0     -1.358200        0.0000           
    6581 A    1646 TIP4 O1   OW0      0.000000       15.9990           
    6582 A    1646 TIP4 H1   HW0      0.679100        1.0080           
    6583 A    1646 TIP4 H2   HW0      0.679100        1.0080           
    6584 A    1646 TIP4 BD1  LP0     -1.358200        0.0000           
    6585 A    1647 TIP4 O1   OW0      0.000000       15.9990           
    6586 A    1647 TIP4 H1   HW0      0.679100        1.0080           
    6587 A    1647 TIP4 H2   HW0      0.679100        1.0080           
    6588 A    1647 TIP4 BD1  LP0     -1.358200        0.0000           
    6589 A    1648 TIP4 O1   OW0      0.000000       15.9990           
    6590 A    1648 TIP4 H1   HW0      0.679100        1.0080           
    6591 A    1648 TIP4 H2   HW0      0.679100        1.0080           
    6592 A    1648 TIP4 BD1  LP0     -1.358200        0.0000           
    6593 A    1649 TIP4 O1   OW0      0.000000       15.9990           
    6594 A    1649 TIP4 H1   HW0      0.679100        1.0080           
    6595 A    1649 TIP4 H2   HW0      0.679100        1.0080           
    6596 A    1649 TIP4 BD1  LP0     -1.358200        0.0000           
    6597 A    1650 TIP4 O1   OW0      0.000000       15.9990           
    6598 A    1650 TIP4 H1   HW0      0.679100        1.0080           
    6599 A    1650 TIP4 H2   HW0      0.679100        1.0080           
    6600 A    1650 TIP4 BD1  LP0     -1.358200        0.0000           
    6601 A    1651 TIP4 O1   OW0      0.000000       15.9990           
    6602 A    1651 TIP4 H1   HW0      0.679100        1.0080           
    6603 A    1651 TIP4 H2   HW0      0.679100        1.0080           
    6604 A    1651 TIP4 BD1  LP0     -1.358200        0.0000           
    6605 A    1652 TIP4 O1   OW0      0.000000       15.9990           
    6606 A    1652 TIP4 H1   HW0      0.679100        1.0080           
    6607 A    1652 TIP4 H2   HW0      0.679100        1.0080           
    6608 A    1652 TIP4 BD1  LP0     -1.358200        0.0000           
    6609 A    1653 TIP4 O1   OW0      0.000000       15.9990           
    6610 A    1653 TIP4 H1   HW0      0.679100        1.0080           
    6611 A    1653 TIP4 H2   HW0      0.679100        1.0080           
    6612 A    1653 TIP4 BD1  LP0     -1.358200        0.0000           
    6613 A    1654 TIP4 O1   OW0      0.000000       15.9990           
    6614 A    1654 TIP4 H1   HW0      0.679100        1.0080           
    6615 A    1654 TIP4 H2   HW0      0.679100        1.0080           
    6616 A    1654 TIP4 BD1  LP0     -1.358200        0.0000           
    6617 A    1655 TIP4 O1   OW0      0.000000       15.9990           
    6618 A    1655 TIP4 H1   HW0      0.679100        1.0080           
    6619 A    1655 TIP4 H2   HW0      0.679100        1.0080           
    6620 A    1655 TIP4 BD1  LP0     -1.358200        0.0000           
    6621 A    1656 TIP4 O1   OW0      0.000000       15.9990           
    6622 A    1656 TIP4 H1   HW0      0.679100        1.0080           
    6623 A    1656 TIP4 H2   HW0      0.679100        1.0080           
    6624 A    1656 TIP4 BD1  LP0     -1.358200        0.0000           
    6625 A    1657 TIP4 O1   OW0      0.000000       15.9990           
    6626 A    1657 TIP4 H1   HW0      0.679100        1.0080           
    6627 A    1657 TIP4 H2   HW0      0.679100        1.0080           
    6628 A    1657 TIP4 BD1  LP0     -1.358200        0.0000           
    6629 A    1658 TIP4 O1   OW0      0.000000       15.9990           
    6630 A    1658 TIP4 H1   HW0      0.679100        1.0080           
    6631 A    1658 TIP4 H2   HW0      0.679100        1.0080           
    6632 A    1658 TIP4 BD1  LP0     -1.358200        0.0000           
    6633 A    1659 TIP4 O1   OW0      0.000000       15.9990           
    6634 A    1659 TIP4 H1   HW0      0.679100        1.0080           
    6635 A    1659 TIP4 H2   HW0      0.679100        1.0080           
    6636 A    1659 TIP4 BD1  LP0     -1.358200        0.0000           
    6637 A    1660 TIP4 O1   OW0      0.000000       15.9990           
    6638 A    1660 TIP4 H1   HW0      0.679100        1.0080           
    6639 A    1660 TIP4 H2   HW0      0.679100        1.0080           
    6640 A    1660 TIP4 BD1  LP0     -1.358200        0.0000           
    6641 A    1661 TIP4 O1   OW0      0.000000       15.9990           
    6642 A    1661 TIP4 H1   HW0      0.679100        1.0080           
    6643 A    1661 TIP4 H2   HW0      0.679100        1.0080           
    6644 A    1661 TIP4 BD1  LP0     -1.358200        0.0000           
    6645 A    1662 TIP4 O1   OW0      0.000000       15.9990           
    6646 A    1662 TIP4 H1   HW0      0.679100        1.0080           
    6647 A    1662 TIP4 H2   HW0      0.679100        1.0080           
    6648 A    1662 TIP4 BD1  LP0     -1.358200        0.0000           
    6649 A    1663 TIP4 O1   OW0      0.000000       15.9990           
    6650 A    1663 TIP4 H1   HW0      0.679100        1.0080           
    6651 A    1663 TIP4 H2   HW0      0.679100        1.0080           
    6652 A    1663 TIP4 BD1  LP0     -1.358200        0.0000           
    6653 A    1664 TIP4 O1   OW0      0.000000       15.9990           
    6654 A    1664 TIP4 H1   HW0      0.679100        1.0080           
    6655 A    1664 TIP4 H2   HW0      0.679100        1.0080           
    6656 A    1664 TIP4 BD1  LP0     -1.358200        0.0000           
    6657 A    1665 TIP4 O1   OW0      0.000000       15.9990           
    6658 A    1665 TIP4 H1   HW0      0.679100        1.0080           
    6659 A    1665 TIP4 H2   HW0      0.679100        1.0080           
    6660 A    1665 TIP4 BD1  LP0     -1.358200        0.0000           
    6661 A    1666 TIP4 O1   OW0      0.000000       15.9990           
    6662 A    1666 TIP4 H1   HW0      0.679100        1.0080           
    6663 A    1666 TIP4 H2   HW0      0.679100        1.0080           
    6664 A    1666 TIP4 BD1  LP0     -1.358200        0.0000           
    6665 A    1667 TIP4 O1   OW0      0.000000       15.9990           
    6666 A    1667 TIP4 H1   HW0      0.679100        1.0080           
    6667 A    1667 TIP4 H2   HW0      0.679100        1.0080           
    6668 A    1667 TIP4 BD1  LP0     -1.358200        0.0000           
    6669 A    1668 TIP4 O1   OW0      0.000000       15.9990           
    6670 A    1668 TIP4 H1   HW0      0.679100        1.0080           
    6671 A    1668 TIP4 H2   HW0      0.679100        1.0080           
    6672 A    1668 TIP4 BD1  LP0     -1.358200        0.0000           
    6673 A    1669 TIP4 O1   OW0      0.000000       15.9990           
    6674 A    1669 TIP4 H1   HW0      0.679100        1.0080           
    6675 A    1669 TIP4 H2   HW0      0.679100        1.0080           
    6676 A    1669 TIP4 BD1  LP0     -1.358200        0.0000           
    6677 A    1670 TIP4 O1   OW0      0.000000       15.9990           
    6678 A    1670 TIP4 H1   HW0      0.679100        1.0080           
    6679 A    1670 TIP4 H2   HW0      0.679100        1.0080           
    6680 A    1670 TIP4 BD1  LP0     -1.358200        0.0000           
    6681 A    1671 TIP4 O1   OW0      0.000000       15.9990           
    6682 A    1671 TIP4 H1   HW0      0.679100        1.0080           
    6683 A    1671 TIP4 H2   HW0      0.679100        1.0080           
    6684 A    1671 TIP4 BD1  LP0     -1.358200        0.0000           
    6685 A    1672 TIP4 O1   OW0      0.000000       15.9990           
    6686 A    1672 TIP4 H1   HW0      0.679100        1.0080           
    6687 A    1672 TIP4 H2   HW0      0.679100        1.0080           
    6688 A    1672 TIP4 BD1  LP0     -1.358200        0.0000           
    6689 A    1673 TIP4 O1   OW0      0.000000       15.9990           
    6690 A    1673 TIP4 H1   HW0      0.679100        1.0080           
    6691 A    1673 TIP4 H2   HW0      0.679100        1.0080           
    6692 A    1673 TIP4 BD1  LP0     -1.358200        0.0000           
    6693 A    1674 TIP4 O1   OW0      0.000000       15.9990           
    6694 A    1674 TIP4 H1   HW0      0.679100        1.0080           
    6695 A    1674 TIP4 H2   HW0      0.679100        1.0080           
    6696 A    1674 TIP4 BD1  LP0     -1.358200        0.0000           
    6697 A    1675 TIP4 O1   OW0      0.000000       15.9990           
    6698 A    1675 TIP4 H1   HW0      0.679100        1.0080           
    6699 A    1675 TIP4 H2   HW0      0.679100        1.0080           
    6700 A    1675 TIP4 BD1  LP0     -1.358200        0.0000           
    6701 A    1676 TIP4 O1   OW0      0.000000       15.9990           
    6702 A    1676 TIP4 H1   HW0      0.679100        1.0080           
    6703 A    1676 TIP4 H2   HW0      0.679100        1.0080           
    6704 A    1676 TIP4 BD1  LP0     -1.358200        0.0000           
    6705 A    1677 TIP4 O1   OW0      0.000000       15.9990           
    6706 A    1677 TIP4 H1   HW0      0.679100        1.0080           
    6707 A    1677 TIP4 H2   HW0      0.679100        1.0080           
    6708 A    1677 TIP4 BD1  LP0     -1.358200        0.0000           
    6709 A    1678 TIP4 O1   OW0      0.000000       15.9990           
    6710 A    1678 TIP4 H1   HW0      0.679100        1.0080           
    6711 A    1678 TIP4 H2   HW0      0.679100        1.0080           
    6712 A    1678 TIP4 BD1  LP0     -1.358200        0.0000           
    6713 A    1679 TIP4 O1   OW0      0.000000       15.9990           
    6714 A    1679 TIP4 H1   HW0      0.679100        1.0080           
    6715 A    1679 TIP4 H2   HW0      0.679100        1.0080           
    6716 A    1679 TIP4 BD1  LP0     -1.358200        0.0000           
    6717 A    1680 TIP4 O1   OW0      0.000000       15.9990           
    6718 A    1680 TIP4 H1   HW0      0.679100        1.0080           
    6719 A    1680 TIP4 H2   HW0      0.679100        1.0080           
    6720 A    1680 TIP4 BD1  LP0     -1.358200        0.0000           
    6721 A    1681 TIP4 O1   OW0      0.000000       15.9990           
    6722 A    1681 TIP4 H1   HW0      0.679100        1.0080           
    6723 A    1681 TIP4 H2   HW0      0.679100        1.0080           
    6724 A    1681 TIP4 BD1  LP0     -1.358200        0.0000           
    6725 A    1682 TIP4 O1   OW0      0.000000       15.9990           
    6726 A    1682 TIP4 H1   HW0      0.679100        1.0080           
    6727 A    1682 TIP4 H2   HW0      0.679100        1.0080           
    6728 A    1682 TIP4 BD1  LP0     -1.358200        0.0000           
    6729 A    1683 TIP4 O1   OW0      0.000000       15.9990           
    6730 A    1683 TIP4 H1   HW0      0.679100        1.0080           
    6731 A    1683 TIP4 H2   HW0      0.679100        1.0080           
    6732 A    1683 TIP4 BD1  LP0     -1.358200        0.0000           
    6733 A    1684 TIP4 O1   OW0      0.000000       15.9990           
    6734 A    1684 TIP4 H1   HW0      0.679100        1.0080           
    6735 A    1684 TIP4 H2   HW0      0.679100        1.0080           
    6736 A    1684 TIP4 BD1  LP0     -1.358200        0.0000           
    6737 A    1685 TIP4 O1   OW0      0.000000       15.9990           
    6738 A    1685 TIP4 H1   HW0      0.679100        1.0080           
    6739 A    1685 TIP4 H2   HW0      0.679100        1.0080           
    6740 A    1685 TIP4 BD1  LP0     -1.358200        0.0000           
    6741 A    1686 TIP4 O1   OW0      0.000000       15.9990           
    6742 A    1686 TIP4 H1   HW0      0.679100        1.0080           
    6743 A    1686 TIP4 H2   HW0      0.679100        1.0080           
    6744 A    1686 TIP4 BD1  LP0     -1.358200        0.0000           
    6745 A    1687 TIP4 O1   OW0      0.000000       15.9990           
    6746 A    1687 TIP4 H1   HW0      0.679100        1.0080           
    6747 A    1687 TIP4 H2   HW0      0.679100        1.0080           
    6748 A    1687 TIP4 BD1  LP0     -1.358200        0.0000           
    6749 A    1688 TIP4 O1   OW0      0.000000       15.9990           
    6750 A    1688 TIP4 H1   HW0      0.679100        1.0080           
    6751 A    1688 TIP4 H2   HW0      0.679100        1.0080           
    6752 A    1688 TIP4 BD1  LP0     -1.358200        0.0000           
    6753 A    1689 TIP4 O1   OW0      0.000000       15.9990           
    6754 A    1689 TIP4 H1   HW0      0.679100        1.0080           
    6755 A    1689 TIP4 H2   HW0      0.679100        1.0080           
    6756 A    1689 TIP4 BD1  LP0     -1.358200        0.0000           
    6757 A    1690 TIP4 O1   OW0      0.000000       15.9990           
    6758 A    1690 TIP4 H1   HW0      0.679100        1.0080           
    6759 A    1690 TIP4 H2   HW0      0.679100        1.0080           
    6760 A    1690 TIP4 BD1  LP0     -1.358200        0.0000           
    6761 A    1691 TIP4 O1   OW0      0.000000       15.9990           
    6762 A    1691 TIP4 H1   HW0      0.679100        1.0080           
    6763 A    1691 TIP4 H2   HW0      0.679100        1.0080           
    6764 A    1691 TIP4 BD1  LP0     -1.358200        0.0000           
    6765 A    1692 TIP4 O1   OW0      0.000000       15.9990           
    6766 A    1692 TIP4 H1   HW0      0.679100        1.0080           
    6767 A    1692 TIP4 H2   HW0      0.679100        1.0080           
    6768 A    1692 TIP4 BD1  LP0     -1.358200        0.0000           
    6769 A    1693 TIP4 O1   OW0      0.000000       15.9990           
    6770 A    1693 TIP4 H1   HW0      0.679100        1.0080           
    6771 A    1693 TIP4 H2   HW0      0.679100        1.0080           
    6772 A    1693 TIP4 BD1  LP0     -1.358200        0.0000           
    6773 A    1694 TIP4 O1   OW0      0.000000       15.9990           
    6774 A    1694 TIP4 H1   HW0      0.679100        1.0080           
    6775 A    1694 TIP4 H2   HW0      0.679100        1.0080           
    6776 A    1694 TIP4 BD1  LP0     -1.358200        0.0000           
    6777 A    1695 TIP4 O1   OW0      0.000000       15.9990           
    6778 A    1695 TIP4 H1   HW0      0.679100        1.0080           
    6779 A    1695 TIP4 H2   HW0      0.679100        1.0080           
    6780 A    1695 TIP4 BD1  LP0     -1.358200        0.0000           
    6781 A    1696 TIP4 O1   OW0      0.000000       15.9990           
    6782 A    1696 TIP4 H1   HW0      0.679100        1.0080           
    6783 A    1696 TIP4 H2   HW0      0.679100        1.0080           
    6784 A    1696 TIP4 BD1  LP0     -1.358200        0.0000           
    6785 A    1697 TIP4 O1   OW0      0.000000       15.9990           
    6786 A    1697 TIP4 H1   HW0      0.679100        1.0080           
    6787 A    1697 TIP4 H2   HW0      0.679100        1.0080           
    6788 A    1697 TIP4 BD1  LP0     -1.358200        0.0000           
    6789 A    1698 TIP4 O1   OW0      0.000000       15.9990           
    6790 A    1698 TIP4 H1   HW0      0.679100        1.0080           
    6791 A    1698 TIP4 H2   HW0      0.679100        1.0080           
    6792 A    1698 TIP4 BD1  LP0     -1.358200        0.0000           
    6793 A    1699 TIP4 O1   OW0      0.000000       15.9990           
    6794 A    1699 TIP4 H1   HW0      0.679100        1.0080           
    6795 A    1699 TIP4 H2   HW0      0.679100        1.0080           
    6796 A    1699 TIP4 BD1  LP0     -1.358200        0.0000           
    6797 A    1700 TIP4 O1   OW0      0.000000       15.9990           
    6798 A    1700 TIP4 H1   HW0      0.679100        1.0080           
    6799 A    1700 TIP4 H2   HW0      0.679100        1.0080           
    6800 A    1700 TIP4 BD1  LP0     -1.358200        0.0000           
    6801 A    1701 TIP4 O1   OW0      0.000000       15.9990           
    6802 A    1701 TIP4 H1   HW0      0.679100        1.0080           
    6803 A    1701 TIP4 H2   HW0      0.679100        1.0080           
    6804 A    1701 TIP4 BD1  LP0     -1.358200        0.0000           
    6805 A    1702 TIP4 O1   OW0      0.000000       15.9990           
    6806 A    1702 TIP4 H1   HW0      0.679100        1.0080           
    6807 A    1702 TIP4 H2   HW0      0.679100        1.0080           
    6808 A    1702 TIP4 BD1  LP0     -1.358200        0.0000           
    6809 A    1703 TIP4 O1   OW0      0.000000       15.9990           
    6810 A    1703 TIP4 H1   HW0      0.679100        1.0080           
    6811 A    1703 TIP4 H2   HW0      0.679100        1.0080           
    6812 A    1703 TIP4 BD1  LP0     -1.358200        0.0000           
    6813 A    1704 TIP4 O1   OW0      0.000000       15.9990           
    6814 A    1704 TIP4 H1   HW0      0.679100        1.0080           
    6815 A    1704 TIP4 H2   HW0      0.679100        1.0080           
    6816 A    1704 TIP4 BD1  LP0     -1.358200        0.0000           
    6817 A    1705 TIP4 O1   OW0      0.000000       15.9990           
    6818 A    1705 TIP4 H1   HW0      0.679100        1.0080           
    6819 A    1705 TIP4 H2   HW0      0.679100        1.0080           
    6820 A    1705 TIP4 BD1  LP0     -1.358200        0.0000           
    6821 A    1706 TIP4 O1   OW0      0.000000       15.9990           
    6822 A    1706 TIP4 H1   HW0      0.679100        1.0080           
    6823 A    1706 TIP4 H2   HW0      0.679100        1.0080           
    6824 A    1706 TIP4 BD1  LP0     -1.358200        0.0000           
    6825 A    1707 TIP4 O1   OW0      0.000000       15.9990           
    6826 A    1707 TIP4 H1   HW0      0.679100        1.0080           
    6827 A    1707 TIP4 H2   HW0      0.679100        1.0080           
    6828 A    1707 TIP4 BD1  LP0     -1.358200        0.0000           
    6829 A    1708 TIP4 O1   OW0      0.000000       15.9990           
    6830 A    1708 TIP4 H1   HW0      0.679100        1.0080           
    6831 A    1708 TIP4 H2   HW0      0.679100        1.0080           
    6832 A    1708 TIP4 BD1  LP0     -1.358200        0.0000           
    6833 A    1709 TIP4 O1   OW0      0.000000       15.9990           
    6834 A    1709 TIP4 H1   HW0      0.679100        1.0080           
    6835 A    1709 TIP4 H2   HW0      0.679100        1.0080           
    6836 A    1709 TIP4 BD1  LP0     -1.358200        0.0000           
    6837 A    1710 TIP4 O1   OW0      0.000000       15.9990           
    6838 A    1710 TIP4 H1   HW0      0.679100        1.0080           
    6839 A    1710 TIP4 H2   HW0      0.679100        1.0080           
    6840 A    1710 TIP4 BD1  LP0     -1.358200        0.0000           
    6841 A    1711 TIP4 O1   OW0      0.000000       15.9990           
    6842 A    1711 TIP4 H1   HW0      0.679100        1.0080           
    6843 A    1711 TIP4 H2   HW0      0.679100        1.0080           
    6844 A    1711 TIP4 BD1  LP0     -1.358200        0.0000           
    6845 A    1712 TIP4 O1   OW0      0.000000       15.9990           
    6846 A    1712 TIP4 H1   HW0      0.679100        1.0080           
    6847 A    1712 TIP4 H2   HW0      0.679100        1.0080           
    6848 A    1712 TIP4 BD1  LP0     -1.358200        0.0000           
    6849 A    1713 TIP4 O1   OW0      0.000000       15.9990           
    6850 A    1713 TIP4 H1   HW0      0.679100        1.0080           
    6851 A    1713 TIP4 H2   HW0      0.679100        1.0080           
    6852 A    1713 TIP4 BD1  LP0     -1.358200        0.0000           
    6853 A    1714 TIP4 O1   OW0      0.000000       15.9990           
    6854 A    1714 TIP4 H1   HW0      0.679100        1.0080           
    6855 A    1714 TIP4 H2   HW0      0.679100        1.0080           
    6856 A    1714 TIP4 BD1  LP0     -1.358200        0.0000           
    6857 A    1715 TIP4 O1   OW0      0.000000       15.9990           
    6858 A    1715 TIP4 H1   HW0      0.679100        1.0080           
    6859 A    1715 TIP4 H2   HW0      0.679100        1.0080           
    6860 A    1715 TIP4 BD1  LP0     -1.358200        0.0000           
    6861 A    1716 TIP4 O1   OW0      0.000000       15.9990           
    6862 A    1716 TIP4 H1   HW0      0.679100        1.0080           
    6863 A    1716 TIP4 H2   HW0      0.679100        1.0080           
    6864 A    1716 TIP4 BD1  LP0     -1.358200        0.0000           
    6865 A    1717 TIP4 O1   OW0      0.000000       15.9990           
    6866 A    1717 TIP4 H1   HW0      0.679100        1.0080           
    6867 A    1717 TIP4 H2   HW0      0.679100        1.0080           
    6868 A    1717 TIP4 BD1  LP0     -1.358200        0.0000           
    6869 A    1718 TIP4 O1   OW0      0.000000       15.9990           
    6870 A    1718 TIP4 H1   HW0      0.679100        1.0080           
    6871 A    1718 TIP4 H2   HW0      0.679100        1.0080           
    6872 A    1718 TIP4 BD1  LP0     -1.358200        0.0000           
    6873 A    1719 TIP4 O1   OW0      0.000000       15.9990           
    6874 A    1719 TIP4 H1   HW0      0.679100        1.0080           
    6875 A    1719 TIP4 H2   HW0      0.679100        1.0080           
    6876 A    1719 TIP4 BD1  LP0     -1.358200        0.0000           
    6877 A    1720 TIP4 O1   OW0      0.000000       15.9990           
    6878 A    1720 TIP4 H1   HW0      0.679100        1.0080           
    6879 A    1720 TIP4 H2   HW0      0.679100        1.0080           
    6880 A    1720 TIP4 BD1  LP0     -1.358200        0.0000           
    6881 A    1721 TIP4 O1   OW0      0.000000       15.9990           
    6882 A    1721 TIP4 H1   HW0      0.679100        1.0080           
    6883 A    1721 TIP4 H2   HW0      0.679100        1.0080           
    6884 A    1721 TIP4 BD1  LP0     -1.358200        0.0000           
    6885 A    1722 TIP4 O1   OW0      0.000000       15.9990           
    6886 A    1722 TIP4 H1   HW0      0.679100        1.0080           
    6887 A    1722 TIP4 H2   HW0      0.679100        1.0080           
    6888 A    1722 TIP4 BD1  LP0     -1.358200        0.0000           
    6889 A    1723 TIP4 O1   OW0      0.000000       15.9990           
    6890 A    1723 TIP4 H1   HW0      0.679100        1.0080           
    6891 A    1723 TIP4 H2   HW0      0.679100        1.0080           
    6892 A    1723 TIP4 BD1  LP0     -1.358200        0.0000           
    6893 A    1724 TIP4 O1   OW0      0.000000       15.9990           
    6894 A    1724 TIP4 H1   HW0      0.679100        1.0080           
    6895 A    1724 TIP4 H2   HW0      0.679100        1.0080           
    6896 A    1724 TIP4 BD1  LP0     -1.358200        0.0000           
    6897 A    1725 TIP4 O1   OW0      0.000000       15.9990           
    6898 A    1725 TIP4 H1   HW0      0.679100        1.0080           
    6899 A    1725 TIP4 H2   HW0      0.679100        1.0080           
    6900 A    1725 TIP4 BD1  LP0     -1.358200        0.0000           
    6901 A    1726 TIP4 O1   OW0      0.000000       15.9990           
    6902 A    1726 TIP4 H1   HW0      0.679100        1.0080           
    6903 A    1726 TIP4 H2   HW0      0.679100        1.0080           
    6904 A    1726 TIP4 BD1  LP0     -1.358200        0.0000           
    6905 A    1727 TIP4 O1   OW0      0.000000       15.9990           
    6906 A    1727 TIP4 H1   HW0      0.679100        1.0080           
    6907 A    1727 TIP4 H2   HW0      0.679100        1.0080           
    6908 A    1727 TIP4 BD1  LP0     -1.358200        0.0000           
    6909 A    1728 TIP4 O1   OW0      0.000000       15.9990           
    6910 A    1728 TIP4 H1   HW0      0.679100        1.0080           
    6911 A    1728 TIP4 H2   HW0      0.679100        1.0080           
    6912 A    1728 TIP4 BD1  LP0     -1.358200        0.0000           
    6913 A    1729 TIP4 O1   OW0      0.000000       15.9990           
    6914 A    1729 TIP4 H1   HW0      0.679100        1.0080           
    6915 A    1729 TIP4 H2   HW0      0.679100        1.0080           
    6916 A    1729 TIP4 BD1  LP0     -1.358200        0.0000           
    6917 A    1730 TIP4 O1   OW0      0.000000       15.9990           
    6918 A    1730 TIP4 H1   HW0      0.679100        1.0080           
    6919 A    1730 TIP4 H2   HW0      0.679100        1.0080           
    6920 A    1730 TIP4 BD1  LP0     -1.358200        0.0000           
    6921 A    1731 TIP4 O1   OW0      0.000000       15.9990           
    6922 A    1731 TIP4 H1   HW0      0.679100        1.0080           
    6923 A    1731 TIP4 H2   HW0      0.679100        1.0080           
    6924 A    1731 TIP4 BD1  LP0     -1.358200        0.0000           
    6925 A    1732 TIP4 O1   OW0      0.000000       15.9990           
    6926 A    1732 TIP4 H1   HW0      0.679100        1.0080           
    6927 A    1732 TIP4 H2   HW0      0.679100        1.0080           
    6928 A    1732 TIP4 BD1  LP0     -1.358200        0.0000           
    6929 A    1733 TIP4 O1   OW0      0.000000       15.9990           
    6930 A    1733 TIP4 H1   HW0      0.679100        1.0080           
    6931 A    1733 TIP4 H2   HW0      0.679100        1.0080           
    6932 A    1733 TIP4 BD1  LP0     -1.358200        0.0000           
    6933 A    1734 TIP4 O1   OW0      0.000000       15.9990           
    6934 A    1734 TIP4 H1   HW0      0.679100        1.0080           
    6935 A    1734 TIP4 H2   HW0      0.679100        1.0080           
    6936 A    1734 TIP4 BD1  LP0     -1.358200        0.0000           
    6937 A    1735 TIP4 O1   OW0      0.000000       15.9990           
    6938 A    1735 TIP4 H1   HW0      0.679100        1.0080           
    6939 A    1735 TIP4 H2   HW0      0.679100        1.0080           
    6940 A    1735 TIP4 BD1  LP0     -1.358200        0.0000           
    6941 A    1736 TIP4 O1   OW0      0.000000       15.9990           
    6942 A    1736 TIP4 H1   HW0      0.679100        1.0080           
    6943 A    1736 TIP4 H2   HW0      0.679100        1.0080           
    6944 A    1736 TIP4 BD1  LP0     -1.358200        0.0000           
    6945 A    1737 TIP4 O1   OW0      0.000000       15.9990           
    6946 A    1737 TIP4 H1   HW0      0.679100        1.0080           
    6947 A    1737 TIP4 H2   HW0      0.679100        1.0080           
    6948 A    1737 TIP4 BD1  LP0     -1.358200        0.0000           
    6949 A    1738 TIP4 O1   OW0      0.000000       15.9990           
    6950 A    1738 TIP4 H1   HW0      0.679100        1.0080           
    6951 A    1738 TIP4 H2   HW0      0.679100        1.0080           
    6952 A    1738 TIP4 BD1  LP0     -1.358200        0.0000           
    6953 A    1739 TIP4 O1   OW0      0.000000       15.9990           
    6954 A    1739 TIP4 H1   HW0      0.679100        1.0080           
    6955 A    1739 TIP4 H2   HW0      0.679100        1.0080           
    6956 A    1739 TIP4 BD1  LP0     -1.358200        0.0000           
    6957 A    1740 TIP4 O1   OW0      0.000000       15.9990           
    6958 A    1740 TIP4 H1   HW0      0.679100        1.0080           
    6959 A    1740 TIP4 H2   HW0      0.679100        1.0080           
    6960 A    1740 TIP4 BD1  LP0     -1.358200        0.0000           
    6961 A    1741 TIP4 O1   OW0      0.000000       15.9990           
    6962 A    1741 TIP4 H1   HW0      0.679100        1.0080           
    6963 A    1741 TIP4 H2   HW0      0.679100        1.0080           
    6964 A    1741 TIP4 BD1  LP0     -1.358200        0.0000           
    6965 A    1742 TIP4 O1   OW0      0.000000       15.9990           
    6966 A    1742 TIP4 H1   HW0      0.679100        1.0080           
    6967 A    1742 TIP4 H2   HW0      0.679100        1.0080           
    6968 A    1742 TIP4 BD1  LP0     -1.358200        0.0000           
    6969 A    1743 TIP4 O1   OW0      0.000000       15.9990           
    6970 A    1743 TIP4 H1   HW0      0.679100        1.0080           
    6971 A    1743 TIP4 H2   HW0      0.679100        1.0080           
    6972 A    1743 TIP4 BD1  LP0     -1.358200        0.0000           
    6973 A    1744 TIP4 O1   OW0      0.000000       15.9990           
    6974 A    1744 TIP4 H1   HW0      0.679100        1.0080           
    6975 A    1744 TIP4 H2   HW0      0.679100        1.0080           
    6976 A    1744 TIP4 BD1  LP0     -1.358200        0.0000           
    6977 A    1745 TIP4 O1   OW0      0.000000       15.9990           
    6978 A    1745 TIP4 H1   HW0      0.679100        1.0080           
    6979 A    1745 TIP4 H2   HW0      0.679100        1.0080           
    6980 A    1745 TIP4 BD1  LP0     -1.358200        0.0000           
    6981 A    1746 TIP4 O1   OW0      0.000000       15.9990           
    6982 A    1746 TIP4 H1   HW0      0.679100        1.0080           
    6983 A    1746 TIP4 H2   HW0      0.679100        1.0080           
    6984 A    1746 TIP4 BD1  LP0     -1.358200        0.0000           
    6985 A    1747 TIP4 O1   OW0      0.000000       15.9990           
    6986 A    1747 TIP4 H1   HW0      0.679100        1.0080           
    6987 A    1747 TIP4 H2   HW0      0.679100        1.0080           
    6988 A    1747 TIP4 BD1  LP0     -1.358200        0.0000           
    6989 A    1748 TIP4 O1   OW0      0.000000       15.9990           
    6990 A    1748 TIP4 H1   HW0      0.679100        1.0080           
    6991 A    1748 TIP4 H2   HW0      0.679100        1.0080           
    6992 A    1748 TIP4 BD1  LP0     -1.358200        0.0000           
    6993 A    1749 TIP4 O1   OW0      0.000000       15.9990           
    6994 A    1749 TIP4 H1   HW0      0.679100        1.0080           
    6995 A    1749 TIP4 H2   HW0      0.679100        1.0080           
    6996 A    1749 TIP4 BD1  LP0     -1.358200        0.0000           
    6997 A    1750 TIP4 O1   OW0      0.000000       15.9990           
    6998 A    1750 TIP4 H1   HW0      0.679100        1.0080           
    6999 A    1750 TIP4 H2   HW0      0.679100        1.0080           
    7000 A    1750 TIP4 BD1  LP0     -1.358200        0.0000           
    7001 A    1751 TIP4 O1   OW0      0.000000       15.9990           
    7002 A    1751 TIP4 H1   HW0      0.679100        1.0080           
    7003 A    1751 TIP4 H2   HW0      0.679100        1.0080           
    7004 A    1751 TIP4 BD1  LP0     -1.358200        0.0000           
    7005 A    1752 TIP4 O1   OW0      0.000000       15.9990           
    7006 A    1752 TIP4 H1   HW0      0.679100        1.0080           
    7007 A    1752 TIP4 H2   HW0      0.679100        1.0080           
    7008 A    1752 TIP4 BD1  LP0     -1.358200        0.0000           
    7009 A    1753 TIP4 O1   OW0      0.000000       15.9990           
    7010 A    1753 TIP4 H1   HW0      0.679100        1.0080           
    7011 A    1753 TIP4 H2   HW0      0.679100        1.0080           
    7012 A    1753 TIP4 BD1  LP0     -1.358200        0.0000           
    7013 A    1754 TIP4 O1   OW0      0.000000       15.9990           
    7014 A    1754 TIP4 H1   HW0      0.679100        1.0080           
    7015 A    1754 TIP4 H2   HW0      0.679100        1.0080           
    7016 A    1754 TIP4 BD1  LP0     -1.358200        0.0000           
    7017 A    1755 TIP4 O1   OW0      0.000000       15.9990           
    7018 A    1755 TIP4 H1   HW0      0.679100        1.0080           
    7019 A    1755 TIP4 H2   HW0      0.679100        1.0080           
    7020 A    1755 TIP4 BD1  LP0     -1.358200        0.0000           
    7021 A    1756 TIP4 O1   OW0      0.000000       15.9990           
    7022 A    1756 TIP4 H1   HW0      0.679100        1.0080           
    7023 A    1756 TIP4 H2   HW0      0.679100        1.0080           
    7024 A    1756 TIP4 BD1  LP0     -1.358200        0.0000           
    7025 A    1757 TIP4 O1   OW0      0.000000       15.9990           
    7026 A    1757 TIP4 H1   HW0      0.679100        1.0080           
    7027 A    1757 TIP4 H2   HW0      0.679100        1.0080           
    7028 A    1757 TIP4 BD1  LP0     -1.358200        0.0000           
    7029 A    1758 TIP4 O1   OW0      0.000000       15.9990           
    7030 A    1758 TIP4 H1   HW0      0.679100        1.0080           
    7031 A    1758 TIP4 H2   HW0      0.679100        1.0080           
    7032 A    1758 TIP4 BD1  LP0     -1.358200        0.0000           
    7033 A    1759 TIP4 O1   OW0      0.000000       15.9990           
    7034 A    1759 TIP4 H1   HW0      0.679100        1.0080           
    7035 A    1759 TIP4 H2   HW0      0.679100        1.0080           
    7036 A    1759 TIP4 BD1  LP0     -1.358200        0.0000           
    7037 A    1760 TIP4 O1   OW0      0.000000       15.9990           
    7038 A    1760 TIP4 H1   HW0      0.679100        1.0080           
    7039 A    1760 TIP4 H2   HW0      0.679100        1.0080           
    7040 A    1760 TIP4 BD1  LP0     -1.358200        0.0000           
    7041 A    1761 TIP4 O1   OW0      0.000000       15.9990           
    7042 A    1761 TIP4 H1   HW0      0.679100        1.0080           
    7043 A    1761 TIP4 H2   HW0      0.679100        1.0080           
    7044 A    1761 TIP4 BD1  LP0     -1.358200        0.0000           
    7045 A    1762 TIP4 O1   OW0      0.000000       15.9990           
    7046 A    1762 TIP4 H1   HW0      0.679100        1.0080           
    7047 A    1762 TIP4 H2   HW0      0.679100        1.0080           
    7048 A    1762 TIP4 BD1  LP0     -1.358200        0.0000           
    7049 A    1763 TIP4 O1   OW0      0.000000       15.9990           
    7050 A    1763 TIP4 H1   HW0      0.679100        1.0080           
    7051 A    1763 TIP4 H2   HW0      0.679100        1.0080           
    7052 A    1763 TIP4 BD1  LP0     -1.358200        0.0000           
    7053 A    1764 TIP4 O1   OW0      0.000000       15.9990           
    7054 A    1764 TIP4 H1   HW0      0.679100        1.0080           
    7055 A    1764 TIP4 H2   HW0      0.679100        1.0080           
    7056 A    1764 TIP4 BD1  LP0     -1.358200        0.0000           
    7057 A    1765 TIP4 O1   OW0      0.000000       15.9990           
    7058 A    1765 TIP4 H1   HW0      0.679100        1.0080           
    7059 A    1765 TIP4 H2   HW0      0.679100        1.0080           
    7060 A    1765 TIP4 BD1  LP0     -1.358200        0.0000           
    7061 A    1766 TIP4 O1   OW0      0.000000       15.9990           
    7062 A    1766 TIP4 H1   HW0      0.679100        1.0080           
    7063 A    1766 TIP4 H2   HW0      0.679100        1.0080           
    7064 A    1766 TIP4 BD1  LP0     -1.358200        0.0000           
    7065 A    1767 TIP4 O1   OW0      0.000000       15.9990           
    7066 A    1767 TIP4 H1   HW0      0.679100        1.0080           
    7067 A    1767 TIP4 H2   HW0      0.679100        1.0080           
    7068 A    1767 TIP4 BD1  LP0     -1.358200        0.0000           
    7069 A    1768 TIP4 O1   OW0      0.000000       15.9990           
    7070 A    1768 TIP4 H1   HW0      0.679100        1.0080           
    7071 A    1768 TIP4 H2   HW0      0.679100        1.0080           
    7072 A    1768 TIP4 BD1  LP0     -1.358200        0.0000           
    7073 A    1769 TIP4 O1   OW0      0.000000       15.9990           
    7074 A    1769 TIP4 H1   HW0      0.679100        1.0080           
    7075 A    1769 TIP4 H2   HW0      0.679100        1.0080           
    7076 A    1769 TIP4 BD1  LP0     -1.358200        0.0000           
    7077 A    1770 TIP4 O1   OW0      0.000000       15.9990           
    7078 A    1770 TIP4 H1   HW0      0.679100        1.0080           
    7079 A    1770 TIP4 H2   HW0      0.679100        1.0080           
    7080 A    1770 TIP4 BD1  LP0     -1.358200        0.0000           
    7081 A    1771 TIP4 O1   OW0      0.000000       15.9990           
    7082 A    1771 TIP4 H1   HW0      0.679100        1.0080           
    7083 A    1771 TIP4 H2   HW0      0.679100        1.0080           
    7084 A    1771 TIP4 BD1  LP0     -1.358200        0.0000           
    7085 A    1772 TIP4 O1   OW0      0.000000       15.9990           
    7086 A    1772 TIP4 H1   HW0      0.679100        1.0080           
    7087 A    1772 TIP4 H2   HW0      0.679100        1.0080           
    7088 A    1772 TIP4 BD1  LP0     -1.358200        0.0000           
    7089 A    1773 TIP4 O1   OW0      0.000000       15.9990           
    7090 A    1773 TIP4 H1   HW0      0.679100        1.0080           
    7091 A    1773 TIP4 H2   HW0      0.679100        1.0080           
    7092 A    1773 TIP4 BD1  LP0     -1.358200        0.0000           
    7093 A    1774 TIP4 O1   OW0      0.000000       15.9990           
    7094 A    1774 TIP4 H1   HW0      0.679100        1.0080           
    7095 A    1774 TIP4 H2   HW0      0.679100        1.0080           
    7096 A    1774 TIP4 BD1  LP0     -1.358200        0.0000           
    7097 A    1775 TIP4 O1   OW0      0.000000       15.9990           
    7098 A    1775 TIP4 H1   HW0      0.679100        1.0080           
    7099 A    1775 TIP4 H2   HW0      0.679100        1.0080           
    7100 A    1775 TIP4 BD1  LP0     -1.358200        0.0000           
    7101 A    1776 TIP4 O1   OW0      0.000000       15.9990           
    7102 A    1776 TIP4 H1   HW0      0.679100        1.0080           
    7103 A    1776 TIP4 H2   HW0      0.679100        1.0080           
    7104 A    1776 TIP4 BD1  LP0     -1.358200        0.0000           
    7105 A    1777 TIP4 O1   OW0      0.000000       15.9990           
    7106 A    1777 TIP4 H1   HW0      0.679100        1.0080           
    7107 A    1777 TIP4 H2   HW0      0.679100        1.0080           
    7108 A    1777 TIP4 BD1  LP0     -1.358200        0.0000           
    7109 A    1778 TIP4 O1   OW0      0.000000       15.9990           
    7110 A    1778 TIP4 H1   HW0      0.679100        1.0080           
    7111 A    1778 TIP4 H2   HW0      0.679100        1.0080           
    7112 A    1778 TIP4 BD1  LP0     -1.358200        0.0000           
    7113 A    1779 TIP4 O1   OW0      0.000000       15.9990           
    7114 A    1779 TIP4 H1   HW0      0.679100        1.0080           
    7115 A    1779 TIP4 H2   HW0      0.679100        1.0080           
    7116 A    1779 TIP4 BD1  LP0     -1.358200        0.0000           
    7117 A    1780 TIP4 O1   OW0      0.000000       15.9990           
    7118 A    1780 TIP4 H1   HW0      0.679100        1.0080           
    7119 A    1780 TIP4 H2   HW0      0.679100        1.0080           
    7120 A    1780 TIP4 BD1  LP0     -1.358200        0.0000           
    7121 A    1781 TIP4 O1   OW0      0.000000       15.9990           
    7122 A    1781 TIP4 H1   HW0      0.679100        1.0080           
    7123 A    1781 TIP4 H2   HW0      0.679100        1.0080           
    7124 A    1781 TIP4 BD1  LP0     -1.358200        0.0000           
    7125 A    1782 TIP4 O1   OW0      0.000000       15.9990           
    7126 A    1782 TIP4 H1   HW0      0.679100        1.0080           
    7127 A    1782 TIP4 H2   HW0      0.679100        1.0080           
    7128 A    1782 TIP4 BD1  LP0     -1.358200        0.0000           
    7129 A    1783 TIP4 O1   OW0      0.000000       15.9990           
    7130 A    1783 TIP4 H1   HW0      0.679100        1.0080           
    7131 A    1783 TIP4 H2   HW0      0.679100        1.0080           
    7132 A    1783 TIP4 BD1  LP0     -1.358200        0.0000           
    7133 A    1784 TIP4 O1   OW0      0.000000       15.9990           
    7134 A    1784 TIP4 H1   HW0      0.679100        1.0080           
    7135 A    1784 TIP4 H2   HW0      0.679100        1.0080           
    7136 A    1784 TIP4 BD1  LP0     -1.358200        0.0000           
    7137 A    1785 TIP4 O1   OW0      0.000000       15.9990           
    7138 A    1785 TIP4 H1   HW0      0.679100        1.0080           
    7139 A    1785 TIP4 H2   HW0      0.679100        1.0080           
    7140 A    1785 TIP4 BD1  LP0     -1.358200        0.0000           
    7141 A    1786 TIP4 O1   OW0      0.000000       15.9990           
    7142 A    1786 TIP4 H1   HW0      0.679100        1.0080           
    7143 A    1786 TIP4 H2   HW0      0.679100        1.0080           
    7144 A    1786 TIP4 BD1  LP0     -1.358200        0.0000           
    7145 A    1787 TIP4 O1   OW0      0.000000       15.9990           
    7146 A    1787 TIP4 H1   HW0      0.679100        1.0080           
    7147 A    1787 TIP4 H2   HW0      0.679100        1.0080           
    7148 A    1787 TIP4 BD1  LP0     -1.358200        0.0000           
    7149 A    1788 TIP4 O1   OW0      0.000000       15.9990           
    7150 A    1788 TIP4 H1   HW0      0.679100        1.0080           
    7151 A    1788 TIP4 H2   HW0      0.679100        1.0080           
    7152 A    1788 TIP4 BD1  LP0     -1.358200        0.0000           
    7153 A    1789 TIP4 O1   OW0      0.000000       15.9990           
    7154 A    1789 TIP4 H1   HW0      0.679100        1.0080           
    7155 A    1789 TIP4 H2   HW0      0.679100        1.0080           
    7156 A    1789 TIP4 BD1  LP0     -1.358200        0.0000           
    7157 A    1790 TIP4 O1   OW0      0.000000       15.9990           
    7158 A    1790 TIP4 H1   HW0      0.679100        1.0080           
    7159 A    1790 TIP4 H2   HW0      0.679100        1.0080           
    7160 A    1790 TIP4 BD1  LP0     -1.358200        0.0000           
    7161 A    1791 TIP4 O1   OW0      0.000000       15.9990           
    7162 A    1791 TIP4 H1   HW0      0.679100        1.0080           
    7163 A    1791 TIP4 H2   HW0      0.679100        1.0080           
    7164 A    1791 TIP4 BD1  LP0     -1.358200        0.0000           
    7165 A    1792 TIP4 O1   OW0      0.000000       15.9990           
    7166 A    1792 TIP4 H1   HW0      0.679100        1.0080           
    7167 A    1792 TIP4 H2   HW0      0.679100        1.0080           
    7168 A    1792 TIP4 BD1  LP0     -1.358200        0.0000           
    7169 A    1793 TIP4 O1   OW0      0.000000       15.9990           
    7170 A    1793 TIP4 H1   HW0      0.679100        1.0080           
    7171 A    1793 TIP4 H2   HW0      0.679100        1.0080           
    7172 A    1793 TIP4 BD1  LP0     -1.358200        0.0000           
    7173 A    1794 TIP4 O1   OW0      0.000000       15.9990           
    7174 A    1794 TIP4 H1   HW0      0.679100        1.0080           
    7175 A    1794 TIP4 H2   HW0      0.679100        1.0080           
    7176 A    1794 TIP4 BD1  LP0     -1.358200        0.0000           
    7177 A    1795 TIP4 O1   OW0      0.000000       15.9990           
    7178 A    1795 TIP4 H1   HW0      0.679100        1.0080           
    7179 A    1795 TIP4 H2   HW0      0.679100        1.0080           
    7180 A    1795 TIP4 BD1  LP0     -1.358200        0.0000           
    7181 A    1796 TIP4 O1   OW0      0.000000       15.9990           
    7182 A    1796 TIP4 H1   HW0      0.679100        1.0080           
    7183 A    1796 TIP4 H2   HW0      0.679100        1.0080           
    7184 A    1796 TIP4 BD1  LP0     -1.358200        0.0000           
    7185 A    1797 TIP4 O1   OW0      0.000000       15.9990           
    7186 A    1797 TIP4 H1   HW0      0.679100        1.0080           
    7187 A    1797 TIP4 H2   HW0      0.679100        1.0080           
    7188 A    1797 TIP4 BD1  LP0     -1.358200        0.0000           
    7189 A    1798 TIP4 O1   OW0      0.000000       15.9990           
    7190 A    1798 TIP4 H1   HW0      0.679100        1.0080           
    7191 A    1798 TIP4 H2   HW0      0.679100        1.0080           
    7192 A    1798 TIP4 BD1  LP0     -1.358200        0.0000           
    7193 A    1799 TIP4 O1   OW0      0.000000       15.9990           
    7194 A    1799 TIP4 H1   HW0      0.679100        1.0080           
    7195 A    1799 TIP4 H2   HW0      0.679100        1.0080           
    7196 A    1799 TIP4 BD1  LP0     -1.358200        0.0000           
    7197 A    1800 TIP4 O1   OW0      0.000000       15.9990           
    7198 A    1800 TIP4 H1   HW0      0.679100        1.0080           
    7199 A    1800 TIP4 H2   HW0      0.679100        1.0080           
    7200 A    1800 TIP4 BD1  LP0     -1.358200        0.0000           
    7201 A    1801 TIP4 O1   OW0      0.000000       15.9990           
    7202 A    1801 TIP4 H1   HW0      0.679100        1.0080           
    7203 A    1801 TIP4 H2   HW0      0.679100        1.0080           
    7204 A    1801 TIP4 BD1  LP0     -1.358200        0.0000           
    7205 A    1802 TIP4 O1   OW0      0.000000       15.9990           
    7206 A    1802 TIP4 H1   HW0      0.679100        1.0080           
    7207 A    1802 TIP4 H2   HW0      0.679100        1.0080           
    7208 A    1802 TIP4 BD1  LP0     -1.358200        0.0000           
    7209 A    1803 TIP4 O1   OW0      0.000000       15.9990           
    7210 A    1803 TIP4 H1   HW0      0.679100        1.0080           
    7211 A    1803 TIP4 H2   HW0      0.679100        1.0080           
    7212 A    1803 TIP4 BD1  LP0     -1.358200        0.0000           
    7213 A    1804 TIP4 O1   OW0      0.000000       15.9990           
    7214 A    1804 TIP4 H1   HW0      0.679100        1.0080           
    7215 A    1804 TIP4 H2   HW0      0.679100        1.0080           
    7216 A    1804 TIP4 BD1  LP0     -1.358200        0.0000           
    7217 A    1805 TIP4 O1   OW0      0.000000       15.9990           
    7218 A    1805 TIP4 H1   HW0      0.679100        1.0080           
    7219 A    1805 TIP4 H2   HW0      0.679100        1.0080           
    7220 A    1805 TIP4 BD1  LP0     -1.358200        0.0000           
    7221 A    1806 TIP4 O1   OW0      0.000000       15.9990           
    7222 A    1806 TIP4 H1   HW0      0.679100        1.0080           
    7223 A    1806 TIP4 H2   HW0      0.679100        1.0080           
    7224 A    1806 TIP4 BD1  LP0     -1.358200        0.0000           
    7225 A    1807 TIP4 O1   OW0      0.000000       15.9990           
    7226 A    1807 TIP4 H1   HW0      0.679100        1.0080           
    7227 A    1807 TIP4 H2   HW0      0.679100        1.0080           
    7228 A    1807 TIP4 BD1  LP0     -1.358200        0.0000           
    7229 A    1808 TIP4 O1   OW0      0.000000       15.9990           
    7230 A    1808 TIP4 H1   HW0      0.679100        1.0080           
    7231 A    1808 TIP4 H2   HW0      0.679100        1.0080           
    7232 A    1808 TIP4 BD1  LP0     -1.358200        0.0000           
    7233 A    1809 TIP4 O1   OW0      0.000000       15.9990           
    7234 A    1809 TIP4 H1   HW0      0.679100        1.0080           
    7235 A    1809 TIP4 H2   HW0      0.679100        1.0080           
    7236 A    1809 TIP4 BD1  LP0     -1.358200        0.0000           
    7237 A    1810 TIP4 O1   OW0      0.000000       15.9990           
    7238 A    1810 TIP4 H1   HW0      0.679100        1.0080           
    7239 A    1810 TIP4 H2   HW0      0.679100        1.0080           
    7240 A    1810 TIP4 BD1  LP0     -1.358200        0.0000           
    7241 A    1811 TIP4 O1   OW0      0.000000       15.9990           
    7242 A    1811 TIP4 H1   HW0      0.679100        1.0080           
    7243 A    1811 TIP4 H2   HW0      0.679100        1.0080           
    7244 A    1811 TIP4 BD1  LP0     -1.358200        0.0000           
    7245 A    1812 TIP4 O1   OW0      0.000000       15.9990           
    7246 A    1812 TIP4 H1   HW0      0.679100        1.0080           
    7247 A    1812 TIP4 H2   HW0      0.679100        1.0080           
    7248 A    1812 TIP4 BD1  LP0     -1.358200        0.0000           
    7249 A    1813 TIP4 O1   OW0      0.000000       15.9990           
    7250 A    1813 TIP4 H1   HW0      0.679100        1.0080           
    7251 A    1813 TIP4 H2   HW0      0.679100        1.0080           
    7252 A    1813 TIP4 BD1  LP0     -1.358200        0.0000           
    7253 A    1814 TIP4 O1   OW0      0.000000       15.9990           
    7254 A    1814 TIP4 H1   HW0      0.679100        1.0080           
    7255 A    1814 TIP4 H2   HW0      0.679100        1.0080           
    7256 A    1814 TIP4 BD1  LP0     -1.358200        0.0000           
    7257 A    1815 TIP4 O1   OW0      0.000000       15.9990           
    7258 A    1815 TIP4 H1   HW0      0.679100        1.0080           
    7259 A    1815 TIP4 H2   HW0      0.679100        1.0080           
    7260 A    1815 TIP4 BD1  LP0     -1.358200        0.0000           
    7261 A    1816 TIP4 O1   OW0      0.000000       15.9990           
    7262 A    1816 TIP4 H1   HW0      0.679100        1.0080           
    7263 A    1816 TIP4 H2   HW0      0.679100        1.0080           
    7264 A    1816 TIP4 BD1  LP0     -1.358200        0.0000           
    7265 A    1817 TIP4 O1   OW0      0.000000       15.9990           
    7266 A    1817 TIP4 H1   HW0      0.679100        1.0080           
    7267 A    1817 TIP4 H2   HW0      0.679100        1.0080           
    7268 A    1817 TIP4 BD1  LP0     -1.358200        0.0000           
    7269 A    1818 TIP4 O1   OW0      0.000000       15.9990           
    7270 A    1818 TIP4 H1   HW0      0.679100        1.0080           
    7271 A    1818 TIP4 H2   HW0      0.679100        1.0080           
    7272 A    1818 TIP4 BD1  LP0     -1.358200        0.0000           
    7273 A    1819 TIP4 O1   OW0      0.000000       15.9990           
    7274 A    1819 TIP4 H1   HW0      0.679100        1.0080           
    7275 A    1819 TIP4 H2   HW0      0.679100        1.0080           
    7276 A    1819 TIP4 BD1  LP0     -1.358200        0.0000           
    7277 A    1820 TIP4 O1   OW0      0.000000       15.9990           
    7278 A    1820 TIP4 H1   HW0      0.679100        1.0080           
    7279 A    1820 TIP4 H2   HW0      0.679100        1.0080           
    7280 A    1820 TIP4 BD1  LP0     -1.358200        0.0000           
    7281 A    1821 TIP4 O1   OW0      0.000000       15.9990           
    7282 A    1821 TIP4 H1   HW0      0.679100        1.0080           
    7283 A    1821 TIP4 H2   HW0      0.679100        1.0080           
    7284 A    1821 TIP4 BD1  LP0     -1.358200        0.0000           
    7285 A    1822 TIP4 O1   OW0      0.000000       15.9990           
    7286 A    1822 TIP4 H1   HW0      0.679100        1.0080           
    7287 A    1822 TIP4 H2   HW0      0.679100        1.0080           
    7288 A    1822 TIP4 BD1  LP0     -1.358200        0.0000           
    7289 A    1823 TIP4 O1   OW0      0.000000       15.9990           
    7290 A    1823 TIP4 H1   HW0      0.679100        1.0080           
    7291 A    1823 TIP4 H2   HW0      0.679100        1.0080           
    7292 A    1823 TIP4 BD1  LP0     -1.358200        0.0000           
    7293 A    1824 TIP4 O1   OW0      0.000000       15.9990           
    7294 A    1824 TIP4 H1   HW0      0.679100        1.0080           
    7295 A    1824 TIP4 H2   HW0      0.679100        1.0080           
    7296 A    1824 TIP4 BD1  LP0     -1.358200        0.0000           
    7297 A    1825 TIP4 O1   OW0      0.000000       15.9990           
    7298 A    1825 TIP4 H1   HW0      0.679100        1.0080           
    7299 A    1825 TIP4 H2   HW0      0.679100        1.0080           
    7300 A    1825 TIP4 BD1  LP0     -1.358200        0.0000           
    7301 A    1826 TIP4 O1   OW0      0.000000       15.9990           
    7302 A    1826 TIP4 H1   HW0      0.679100        1.0080           
    7303 A    1826 TIP4 H2   HW0      0.679100        1.0080           
    7304 A    1826 TIP4 BD1  LP0     -1.358200        0.0000           
    7305 A    1827 TIP4 O1   OW0      0.000000       15.9990           
    7306 A    1827 TIP4 H1   HW0      0.679100        1.0080           
    7307 A    1827 TIP4 H2   HW0      0.679100        1.0080           
    7308 A    1827 TIP4 BD1  LP0     -1.358200        0.0000           
    7309 A    1828 TIP4 O1   OW0      0.000000       15.9990           
    7310 A    1828 TIP4 H1   HW0      0.679100        1.0080           
    7311 A    1828 TIP4 H2   HW0      0.679100        1.0080           
    7312 A    1828 TIP4 BD1  LP0     -1.358200        0.0000           
    7313 A    1829 TIP4 O1   OW0      0.000000       15.9990           
    7314 A    1829 TIP4 H1   HW0      0.679100        1.0080           
    7315 A    1829 TIP4 H2   HW0      0.679100        1.0080           
    7316 A    1829 TIP4 BD1  LP0     -1.358200        0.0000           
    7317 A    1830 TIP4 O1   OW0      0.000000       15.9990           
    7318 A    1830 TIP4 H1   HW0      0.679100        1.0080           
    7319 A    1830 TIP4 H2   HW0      0.679100        1.0080           
    7320 A    1830 TIP4 BD1  LP0     -1.358200        0.0000           
    7321 A    1831 TIP4 O1   OW0      0.000000       15.9990           
    7322 A    1831 TIP4 H1   HW0      0.679100        1.0080           
    7323 A    1831 TIP4 H2   HW0      0.679100        1.0080           
    7324 A    1831 TIP4 BD1  LP0     -1.358200        0.0000           
    7325 A    1832 TIP4 O1   OW0      0.000000       15.9990           
    7326 A    1832 TIP4 H1   HW0      0.679100        1.0080           
    7327 A    1832 TIP4 H2   HW0      0.679100        1.0080           
    7328 A    1832 TIP4 BD1  LP0     -1.358200        0.0000           
    7329 A    1833 TIP4 O1   OW0      0.000000       15.9990           
    7330 A    1833 TIP4 H1   HW0      0.679100        1.0080           
    7331 A    1833 TIP4 H2   HW0      0.679100        1.0080           
    7332 A    1833 TIP4 BD1  LP0     -1.358200        0.0000           
    7333 A    1834 TIP4 O1   OW0      0.000000       15.9990           
    7334 A    1834 TIP4 H1   HW0      0.679100        1.0080           
    7335 A    1834 TIP4 H2   HW0      0.679100        1.0080           
    7336 A    1834 TIP4 BD1  LP0     -1.358200        0.0000           
    7337 A    1835 TIP4 O1   OW0      0.000000       15.9990           
    7338 A    1835 TIP4 H1   HW0      0.679100        1.0080           
    7339 A    1835 TIP4 H2   HW0      0.679100        1.0080           
    7340 A    1835 TIP4 BD1  LP0     -1.358200        0.0000           
    7341 A    1836 TIP4 O1   OW0      0.000000       15.9990           
    7342 A    1836 TIP4 H1   HW0      0.679100        1.0080           
    7343 A    1836 TIP4 H2   HW0      0.679100        1.0080           
    7344 A    1836 TIP4 BD1  LP0     -1.358200        0.0000           
    7345 A    1837 TIP4 O1   OW0      0.000000       15.9990           
    7346 A    1837 TIP4 H1   HW0      0.679100        1.0080           
    7347 A    1837 TIP4 H2   HW0      0.679100        1.0080           
    7348 A    1837 TIP4 BD1  LP0     -1.358200        0.0000           
    7349 A    1838 TIP4 O1   OW0      0.000000       15.9990           
    7350 A    1838 TIP4 H1   HW0      0.679100        1.0080           
    7351 A    1838 TIP4 H2   HW0      0.679100        1.0080           
    7352 A    1838 TIP4 BD1  LP0     -1.358200        0.0000           
    7353 A    1839 TIP4 O1   OW0      0.000000       15.9990           
    7354 A    1839 TIP4 H1   HW0      0.679100        1.0080           
    7355 A    1839 TIP4 H2   HW0      0.679100        1.0080           
    7356 A    1839 TIP4 BD1  LP0     -1.358200        0.0000           
    7357 A    1840 TIP4 O1   OW0      0.000000       15.9990           
    7358 A    1840 TIP4 H1   HW0      0.679100        1.0080           
    7359 A    1840 TIP4 H2   HW0      0.679100        1.0080           
    7360 A    1840 TIP4 BD1  LP0     -1.358200        0.0000           
    7361 A    1841 TIP4 O1   OW0      0.000000       15.9990           
    7362 A    1841 TIP4 H1   HW0      0.679100        1.0080           
    7363 A    1841 TIP4 H2   HW0      0.679100        1.0080           
    7364 A    1841 TIP4 BD1  LP0     -1.358200        0.0000           
    7365 A    1842 TIP4 O1   OW0      0.000000       15.9990           
    7366 A    1842 TIP4 H1   HW0      0.679100        1.0080           
    7367 A    1842 TIP4 H2   HW0      0.679100        1.0080           
    7368 A    1842 TIP4 BD1  LP0     -1.358200        0.0000           
    7369 A    1843 TIP4 O1   OW0      0.000000       15.9990           
    7370 A    1843 TIP4 H1   HW0      0.679100        1.0080           
    7371 A    1843 TIP4 H2   HW0      0.679100        1.0080           
    7372 A    1843 TIP4 BD1  LP0     -1.358200        0.0000           
    7373 A    1844 TIP4 O1   OW0      0.000000       15.9990           
    7374 A    1844 TIP4 H1   HW0      0.679100        1.0080           
    7375 A    1844 TIP4 H2   HW0      0.679100        1.0080           
    7376 A    1844 TIP4 BD1  LP0     -1.358200        0.0000           
    7377 A    1845 TIP4 O1   OW0      0.000000       15.9990           
    7378 A    1845 TIP4 H1   HW0      0.679100        1.0080           
    7379 A    1845 TIP4 H2   HW0      0.679100        1.0080           
    7380 A    1845 TIP4 BD1  LP0     -1.358200        0.0000           
    7381 A    1846 TIP4 O1   OW0      0.000000       15.9990           
    7382 A    1846 TIP4 H1   HW0      0.679100        1.0080           
    7383 A    1846 TIP4 H2   HW0      0.679100        1.0080           
    7384 A    1846 TIP4 BD1  LP0     -1.358200        0.0000           
    7385 A    1847 TIP4 O1   OW0      0.000000       15.9990           
    7386 A    1847 TIP4 H1   HW0      0.679100        1.0080           
    7387 A    1847 TIP4 H2   HW0      0.679100        1.0080           
    7388 A    1847 TIP4 BD1  LP0     -1.358200        0.0000           
    7389 A    1848 TIP4 O1   OW0      0.000000       15.9990           
    7390 A    1848 TIP4 H1   HW0      0.679100        1.0080           
    7391 A    1848 TIP4 H2   HW0      0.679100        1.0080           
    7392 A    1848 TIP4 BD1  LP0     -1.358200        0.0000           
    7393 A    1849 TIP4 O1   OW0      0.000000       15.9990           
    7394 A    1849 TIP4 H1   HW0      0.679100        1.0080           
    7395 A    1849 TIP4 H2   HW0      0.679100        1.0080           
    7396 A    1849 TIP4 BD1  LP0     -1.358200        0.0000           
    7397 A    1850 TIP4 O1   OW0      0.000000       15.9990           
    7398 A    1850 TIP4 H1   HW0      0.679100        1.0080           
    7399 A    1850 TIP4 H2   HW0      0.679100        1.0080           
    7400 A    1850 TIP4 BD1  LP0     -1.358200        0.0000           
    7401 A    1851 TIP4 O1   OW0      0.000000       15.9990           
    7402 A    1851 TIP4 H1   HW0      0.679100        1.0080           
    7403 A    1851 TIP4 H2   HW0      0.679100        1.0080           
    7404 A    1851 TIP4 BD1  LP0     -1.358200        0.0000           
    7405 A    1852 TIP4 O1   OW0      0.000000       15.9990           
    7406 A    1852 TIP4 H1   HW0      0.679100        1.0080           
    7407 A    1852 TIP4 H2   HW0      0.679100        1.0080           
    7408 A    1852 TIP4 BD1  LP0     -1.358200        0.0000           
    7409 A    1853 TIP4 O1   OW0      0.000000       15.9990           
    7410 A    1853 TIP4 H1   HW0      0.679100        1.0080           
    7411 A    1853 TIP4 H2   HW0      0.679100        1.0080           
    7412 A    1853 TIP4 BD1  LP0     -1.358200        0.0000           
    7413 A    1854 TIP4 O1   OW0      0.000000       15.9990           
    7414 A    1854 TIP4 H1   HW0      0.679100        1.0080           
    7415 A    1854 TIP4 H2   HW0      0.679100        1.0080           
    7416 A    1854 TIP4 BD1  LP0     -1.358200        0.0000           
    7417 A    1855 TIP4 O1   OW0      0.000000       15.9990           
    7418 A    1855 TIP4 H1   HW0      0.679100        1.0080           
    7419 A    1855 TIP4 H2   HW0      0.679100        1.0080           
    7420 A    1855 TIP4 BD1  LP0     -1.358200        0.0000           
    7421 A    1856 TIP4 O1   OW0      0.000000       15.9990           
    7422 A    1856 TIP4 H1   HW0      0.679100        1.0080           
    7423 A    1856 TIP4 H2   HW0      0.679100        1.0080           
    7424 A    1856 TIP4 BD1  LP0     -1.358200        0.0000           
    7425 A    1857 TIP4 O1   OW0      0.000000       15.9990           
    7426 A    1857 TIP4 H1   HW0      0.679100        1.0080           
    7427 A    1857 TIP4 H2   HW0      0.679100        1.0080           
    7428 A    1857 TIP4 BD1  LP0     -1.358200        0.0000           
    7429 A    1858 TIP4 O1   OW0      0.000000       15.9990           
    7430 A    1858 TIP4 H1   HW0      0.679100        1.0080           
    7431 A    1858 TIP4 H2   HW0      0.679100        1.0080           
    7432 A    1858 TIP4 BD1  LP0     -1.358200        0.0000           
    7433 A    1859 TIP4 O1   OW0      0.000000       15.9990           
    7434 A    1859 TIP4 H1   HW0      0.679100        1.0080           
    7435 A    1859 TIP4 H2   HW0      0.679100        1.0080           
    7436 A    1859 TIP4 BD1  LP0     -1.358200        0.0000           
    7437 A    1860 TIP4 O1   OW0      0.000000       15.9990           
    7438 A    1860 TIP4 H1   HW0      0.679100        1.0080           
    7439 A    1860 TIP4 H2   HW0      0.679100        1.0080           
    7440 A    1860 TIP4 BD1  LP0     -1.358200        0.0000           
    7441 A    1861 TIP4 O1   OW0      0.000000       15.9990           
    7442 A    1861 TIP4 H1   HW0      0.679100        1.0080           
    7443 A    1861 TIP4 H2   HW0      0.679100        1.0080           
    7444 A    1861 TIP4 BD1  LP0     -1.358200        0.0000           
    7445 A    1862 TIP4 O1   OW0      0.000000       15.9990           
    7446 A    1862 TIP4 H1   HW0      0.679100        1.0080           
    7447 A    1862 TIP4 H2   HW0      0.679100        1.0080           
    7448 A    1862 TIP4 BD1  LP0     -1.358200        0.0000           
    7449 A    1863 TIP4 O1   OW0      0.000000       15.9990           
    7450 A    1863 TIP4 H1   HW0      0.679100        1.0080           
    7451 A    1863 TIP4 H2   HW0      0.679100        1.0080           
    7452 A    1863 TIP4 BD1  LP0     -1.358200        0.0000           
    7453 A    1864 TIP4 O1   OW0      0.000000       15.9990           
    7454 A    1864 TIP4 H1   HW0      0.679100        1.0080           
    7455 A    1864 TIP4 H2   HW0      0.679100        1.0080           
    7456 A    1864 TIP4 BD1  LP0     -1.358200        0.0000           
    7457 A    1865 TIP4 O1   OW0      0.000000       15.9990           
    7458 A    1865 TIP4 H1   HW0      0.679100        1.0080           
    7459 A    1865 TIP4 H2   HW0      0.679100        1.0080           
    7460 A    1865 TIP4 BD1  LP0     -1.358200        0.0000           
    7461 A    1866 TIP4 O1   OW0      0.000000       15.9990           
    7462 A    1866 TIP4 H1   HW0      0.679100        1.0080           
    7463 A    1866 TIP4 H2   HW0      0.679100        1.0080           
    7464 A    1866 TIP4 BD1  LP0     -1.358200        0.0000           
    7465 A    1867 TIP4 O1   OW0      0.000000       15.9990           
    7466 A    1867 TIP4 H1   HW0      0.679100        1.0080           
    7467 A    1867 TIP4 H2   HW0      0.679100        1.0080           
    7468 A    1867 TIP4 BD1  LP0     -1.358200        0.0000           
    7469 A    1868 TIP4 O1   OW0      0.000000       15.9990           
    7470 A    1868 TIP4 H1   HW0      0.679100        1.0080           
    7471 A    1868 TIP4 H2   HW0      0.679100        1.0080           
    7472 A    1868 TIP4 BD1  LP0     -1.358200        0.0000           
    7473 A    1869 TIP4 O1   OW0      0.000000       15.9990           
    7474 A    1869 TIP4 H1   HW0      0.679100        1.0080           
    7475 A    1869 TIP4 H2   HW0      0.679100        1.0080           
    7476 A    1869 TIP4 BD1  LP0     -1.358200        0.0000           
    7477 A    1870 TIP4 O1   OW0      0.000000       15.9990           
    7478 A    1870 TIP4 H1   HW0      0.679100        1.0080           
    7479 A    1870 TIP4 H2   HW0      0.679100        1.0080           
    7480 A    1870 TIP4 BD1  LP0     -1.358200        0.0000           
    7481 A    1871 TIP4 O1   OW0      0.000000       15.9990           
    7482 A    1871 TIP4 H1   HW0      0.679100        1.0080           
    7483 A    1871 TIP4 H2   HW0      0.679100        1.0080           
    7484 A    1871 TIP4 BD1  LP0     -1.358200        0.0000           
    7485 A    1872 TIP4 O1   OW0      0.000000       15.9990           
    7486 A    1872 TIP4 H1   HW0      0.679100        1.0080           
    7487 A    1872 TIP4 H2   HW0      0.679100        1.0080           
    7488 A    1872 TIP4 BD1  LP0     -1.358200        0.0000           
    7489 A    1873 TIP4 O1   OW0      0.000000       15.9990           
    7490 A    1873 TIP4 H1   HW0      0.679100        1.0080           
    7491 A    1873 TIP4 H2   HW0      0.679100        1.0080           
    7492 A    1873 TIP4 BD1  LP0     -1.358200        0.0000           
    7493 A    1874 TIP4 O1   OW0      0.000000       15.9990           
    7494 A    1874 TIP4 H1   HW0      0.679100        1.0080           
    7495 A    1874 TIP4 H2   HW0      0.679100        1.0080           
    7496 A    1874 TIP4 BD1  LP0     -1.358200        0.0000           
    7497 A    1875 TIP4 O1   OW0      0.000000       15.9990           
    7498 A    1875 TIP4 H1   HW0      0.679100        1.0080           
    7499 A    1875 TIP4 H2   HW0      0.679100        1.0080           
    7500 A    1875 TIP4 BD1  LP0     -1.358200        0.0000           
    7501 A    1876 TIP4 O1   OW0      0.000000       15.9990           
    7502 A    1876 TIP4 H1   HW0      0.679100        1.0080           
    7503 A    1876 TIP4 H2   HW0      0.679100        1.0080           
    7504 A    1876 TIP4 BD1  LP0     -1.358200        0.0000           
    7505 A    1877 TIP4 O1   OW0      0.000000       15.9990           
    7506 A    1877 TIP4 H1   HW0      0.679100        1.0080           
    7507 A    1877 TIP4 H2   HW0      0.679100        1.0080           
    7508 A    1877 TIP4 BD1  LP0     -1.358200        0.0000           
    7509 A    1878 TIP4 O1   OW0      0.000000       15.9990           
    7510 A    1878 TIP4 H1   HW0      0.679100        1.0080           
    7511 A    1878 TIP4 H2   HW0      0.679100        1.0080           
    7512 A    1878 TIP4 BD1  LP0     -1.358200        0.0000           
    7513 A    1879 TIP4 O1   OW0      0.000000       15.9990           
    7514 A    1879 TIP4 H1   HW0      0.679100        1.0080           
    7515 A    1879 TIP4 H2   HW0      0.679100        1.0080           
    7516 A    1879 TIP4 BD1  LP0     -1.358200        0.0000           
    7517 A    1880 TIP4 O1   OW0      0.000000       15.9990           
    7518 A    1880 TIP4 H1   HW0      0.679100        1.0080           
    7519 A    1880 TIP4 H2   HW0      0.679100        1.0080           
    7520 A    1880 TIP4 BD1  LP0     -1.358200        0.0000           
    7521 A    1881 TIP4 O1   OW0      0.000000       15.9990           
    7522 A    1881 TIP4 H1   HW0      0.679100        1.0080           
    7523 A    1881 TIP4 H2   HW0      0.679100        1.0080           
    7524 A    1881 TIP4 BD1  LP0     -1.358200        0.0000           
    7525 A    1882 TIP4 O1   OW0      0.000000       15.9990           
    7526 A    1882 TIP4 H1   HW0      0.679100        1.0080           
    7527 A    1882 TIP4 H2   HW0      0.679100        1.0080           
    7528 A    1882 TIP4 BD1  LP0     -1.358200        0.0000           
    7529 A    1883 TIP4 O1   OW0      0.000000       15.9990           
    7530 A    1883 TIP4 H1   HW0      0.679100        1.0080           
    7531 A    1883 TIP4 H2   HW0      0.679100        1.0080           
    7532 A    1883 TIP4 BD1  LP0     -1.358200        0.0000           
    7533 A    1884 TIP4 O1   OW0      0.000000       15.9990           
    7534 A    1884 TIP4 H1   HW0      0.679100        1.0080           
    7535 A    1884 TIP4 H2   HW0      0.679100        1.0080           
    7536 A    1884 TIP4 BD1  LP0     -1.358200        0.0000           
    7537 A    1885 TIP4 O1   OW0      0.000000       15.9990           
    7538 A    1885 TIP4 H1   HW0      0.679100        1.0080           
    7539 A    1885 TIP4 H2   HW0      0.679100        1.0080           
    7540 A    1885 TIP4 BD1  LP0     -1.358200        0.0000           
    7541 A    1886 TIP4 O1   OW0      0.000000       15.9990           
    7542 A    1886 TIP4 H1   HW0      0.679100        1.0080           
    7543 A    1886 TIP4 H2   HW0      0.679100        1.0080           
    7544 A    1886 TIP4 BD1  LP0     -1.358200        0.0000           
    7545 A    1887 TIP4 O1   OW0      0.000000       15.9990           
    7546 A    1887 TIP4 H1   HW0      0.679100        1.0080           
    7547 A    1887 TIP4 H2   HW0      0.679100        1.0080           
    7548 A    1887 TIP4 BD1  LP0     -1.358200        0.0000           
    7549 A    1888 TIP4 O1   OW0      0.000000       15.9990           
    7550 A    1888 TIP4 H1   HW0      0.679100        1.0080           
    7551 A    1888 TIP4 H2   HW0      0.679100        1.0080           
    7552 A    1888 TIP4 BD1  LP0     -1.358200        0.0000           
    7553 A    1889 TIP4 O1   OW0      0.000000       15.9990           
    7554 A    1889 TIP4 H1   HW0      0.679100        1.0080           
    7555 A    1889 TIP4 H2   HW0      0.679100        1.0080           
    7556 A    1889 TIP4 BD1  LP0     -1.358200        0.0000           
    7557 A    1890 TIP4 O1   OW0      0.000000       15.9990           
    7558 A    1890 TIP4 H1   HW0      0.679100        1.0080           
    7559 A    1890 TIP4 H2   HW0      0.679100        1.0080           
    7560 A    1890 TIP4 BD1  LP0     -1.358200        0.0000           
    7561 A    1891 TIP4 O1   OW0      0.000000       15.9990           
    7562 A    1891 TIP4 H1   HW0      0.679100        1.0080           
    7563 A    1891 TIP4 H2   HW0      0.679100        1.0080           
    7564 A    1891 TIP4 BD1  LP0     -1.358200        0.0000           
    7565 A    1892 TIP4 O1   OW0      0.000000       15.9990           
    7566 A    1892 TIP4 H1   HW0      0.679100        1.0080           
    7567 A    1892 TIP4 H2   HW0      0.679100        1.0080           
    7568 A    1892 TIP4 BD1  LP0     -1.358200        0.0000           
    7569 A    1893 TIP4 O1   OW0      0.000000       15.9990           
    7570 A    1893 TIP4 H1   HW0      0.679100        1.0080           
    7571 A    1893 TIP4 H2   HW0      0.679100        1.0080           
    7572 A    1893 TIP4 BD1  LP0     -1.358200        0.0000           
    7573 A    1894 TIP4 O1   OW0      0.000000       15.9990           
    7574 A    1894 TIP4 H1   HW0      0.679100        1.0080           
    7575 A    1894 TIP4 H2   HW0      0.679100        1.0080           
    7576 A    1894 TIP4 BD1  LP0     -1.358200        0.0000           
    7577 A    1895 TIP4 O1   OW0      0.000000       15.9990           
    7578 A    1895 TIP4 H1   HW0      0.679100        1.0080           
    7579 A    1895 TIP4 H2   HW0      0.679100        1.0080           
    7580 A    1895 TIP4 BD1  LP0     -1.358200        0.0000           
    7581 A    1896 TIP4 O1   OW0      0.000000       15.9990           
    7582 A    1896 TIP4 H1   HW0      0.679100        1.0080           
    7583 A    1896 TIP4 H2   HW0      0.679100        1.0080           
    7584 A    1896 TIP4 BD1  LP0     -1.358200        0.0000           
    7585 A    1897 TIP4 O1   OW0      0.000000       15.9990           
    7586 A    1897 TIP4 H1   HW0      0.679100        1.0080           
    7587 A    1897 TIP4 H2   HW0      0.679100        1.0080           
    7588 A    1897 TIP4 BD1  LP0     -1.358200        0.0000           
    7589 A    1898 TIP4 O1   OW0      0.000000       15.9990           
    7590 A    1898 TIP4 H1   HW0      0.679100        1.0080           
    7591 A    1898 TIP4 H2   HW0      0.679100        1.0080           
    7592 A    1898 TIP4 BD1  LP0     -1.358200        0.0000           
    7593 A    1899 TIP4 O1   OW0      0.000000       15.9990           
    7594 A    1899 TIP4 H1   HW0      0.679100        1.0080           
    7595 A    1899 TIP4 H2   HW0      0.679100        1.0080           
    7596 A    1899 TIP4 BD1  LP0     -1.358200        0.0000           
    7597 A    1900 TIP4 O1   OW0      0.000000       15.9990           
    7598 A    1900 TIP4 H1   HW0      0.679100        1.0080           
    7599 A    1900 TIP4 H2   HW0      0.679100        1.0080           
    7600 A    1900 TIP4 BD1  LP0     -1.358200        0.0000           
    7601 A    1901 TIP4 O1   OW0      0.000000       15.9990           
    7602 A    1901 TIP4 H1   HW0      0.679100        1.0080           
    7603 A    1901 TIP4 H2   HW0      0.679100        1.0080           
    7604 A    1901 TIP4 BD1  LP0     -1.358200        0.0000           
    7605 A    1902 TIP4 O1   OW0      0.000000       15.9990           
    7606 A    1902 TIP4 H1   HW0      0.679100        1.0080           
    7607 A    1902 TIP4 H2   HW0      0.679100        1.0080           
    7608 A    1902 TIP4 BD1  LP0     -1.358200        0.0000           
    7609 A    1903 TIP4 O1   OW0      0.000000       15.9990           
    7610 A    1903 TIP4 H1   HW0      0.679100        1.0080           
    7611 A    1903 TIP4 H2   HW0      0.679100        1.0080           
    7612 A    1903 TIP4 BD1  LP0     -1.358200        0.0000           
    7613 A    1904 TIP4 O1   OW0      0.000000       15.9990           
    7614 A    1904 TIP4 H1   HW0      0.679100        1.0080           
    7615 A    1904 TIP4 H2   HW0      0.679100        1.0080           
    7616 A    1904 TIP4 BD1  LP0     -1.358200        0.0000           
    7617 A    1905 TIP4 O1   OW0      0.000000       15.9990           
    7618 A    1905 TIP4 H1   HW0      0.679100        1.0080           
    7619 A    1905 TIP4 H2   HW0      0.679100        1.0080           
    7620 A    1905 TIP4 BD1  LP0     -1.358200        0.0000           
    7621 A    1906 TIP4 O1   OW0      0.000000       15.9990           
    7622 A    1906 TIP4 H1   HW0      0.679100        1.0080           
    7623 A    1906 TIP4 H2   HW0      0.679100        1.0080           
    7624 A    1906 TIP4 BD1  LP0     -1.358200        0.0000           
    7625 A    1907 TIP4 O1   OW0      0.000000       15.9990           
    7626 A    1907 TIP4 H1   HW0      0.679100        1.0080           
    7627 A    1907 TIP4 H2   HW0      0.679100        1.0080           
    7628 A    1907 TIP4 BD1  LP0     -1.358200        0.0000           
    7629 A    1908 TIP4 O1   OW0      0.000000       15.9990           
    7630 A    1908 TIP4 H1   HW0      0.679100        1.0080           
    7631 A    1908 TIP4 H2   HW0      0.679100        1.0080           
    7632 A    1908 TIP4 BD1  LP0     -1.358200        0.0000           
    7633 A    1909 TIP4 O1   OW0      0.000000       15.9990           
    7634 A    1909 TIP4 H1   HW0      0.679100        1.0080           
    7635 A    1909 TIP4 H2   HW0      0.679100        1.0080           
    7636 A    1909 TIP4 BD1  LP0     -1.358200        0.0000           
    7637 A    1910 TIP4 O1   OW0      0.000000       15.9990           
    7638 A    1910 TIP4 H1   HW0      0.679100        1.0080           
    7639 A    1910 TIP4 H2   HW0      0.679100        1.0080           
    7640 A    1910 TIP4 BD1  LP0     -1.358200        0.0000           
    7641 A    1911 TIP4 O1   OW0      0.000000       15.9990           
    7642 A    1911 TIP4 H1   HW0      0.679100        1.0080           
    7643 A    1911 TIP4 H2   HW0      0.679100        1.0080           
    7644 A    1911 TIP4 BD1  LP0     -1.358200        0.0000           
    7645 A    1912 TIP4 O1   OW0      0.000000       15.9990           
    7646 A    1912 TIP4 H1   HW0      0.679100        1.0080           
    7647 A    1912 TIP4 H2   HW0      0.679100        1.0080           
    7648 A    1912 TIP4 BD1  LP0     -1.358200        0.0000           
    7649 A    1913 TIP4 O1   OW0      0.000000       15.9990           
    7650 A    1913 TIP4 H1   HW0      0.679100        1.0080           
    7651 A    1913 TIP4 H2   HW0      0.679100        1.0080           
    7652 A    1913 TIP4 BD1  LP0     -1.358200        0.0000           
    7653 A    1914 TIP4 O1   OW0      0.000000       15.9990           
    7654 A    1914 TIP4 H1   HW0      0.679100        1.0080           
    7655 A    1914 TIP4 H2   HW0      0.679100        1.0080           
    7656 A    1914 TIP4 BD1  LP0     -1.358200        0.0000           
    7657 A    1915 TIP4 O1   OW0      0.000000       15.9990           
    7658 A    1915 TIP4 H1   HW0      0.679100        1.0080           
    7659 A    1915 TIP4 H2   HW0      0.679100        1.0080           
    7660 A    1915 TIP4 BD1  LP0     -1.358200        0.0000           
    7661 A    1916 TIP4 O1   OW0      0.000000       15.9990           
    7662 A    1916 TIP4 H1   HW0      0.679100        1.0080           
    7663 A    1916 TIP4 H2   HW0      0.679100        1.0080           
    7664 A    1916 TIP4 BD1  LP0     -1.358200        0.0000           
    7665 A    1917 TIP4 O1   OW0      0.000000       15.9990           
    7666 A    1917 TIP4 H1   HW0      0.679100        1.0080           
    7667 A    1917 TIP4 H2   HW0      0.679100        1.0080           
    7668 A    1917 TIP4 BD1  LP0     -1.358200        0.0000           
    7669 A    1918 TIP4 O1   OW0      0.000000       15.9990           
    7670 A    1918 TIP4 H1   HW0      0.679100        1.0080           
    7671 A    1918 TIP4 H2   HW0      0.679100        1.0080           
    7672 A    1918 TIP4 BD1  LP0     -1.358200        0.0000           
    7673 A    1919 TIP4 O1   OW0      0.000000       15.9990           
    7674 A    1919 TIP4 H1   HW0      0.679100        1.0080           
    7675 A    1919 TIP4 H2   HW0      0.679100        1.0080           
    7676 A    1919 TIP4 BD1  LP0     -1.358200        0.0000           
    7677 A    1920 TIP4 O1   OW0      0.000000       15.9990           
    7678 A    1920 TIP4 H1   HW0      0.679100        1.0080           
    7679 A    1920 TIP4 H2   HW0      0.679100        1.0080           
    7680 A    1920 TIP4 BD1  LP0     -1.358200        0.0000           
    7681 A    1921 TIP4 O1   OW0      0.000000       15.9990           
    7682 A    1921 TIP4 H1   HW0      0.679100        1.0080           
    7683 A    1921 TIP4 H2   HW0      0.679100        1.0080           
    7684 A    1921 TIP4 BD1  LP0     -1.358200        0.0000           
    7685 A    1922 TIP4 O1   OW0      0.000000       15.9990           
    7686 A    1922 TIP4 H1   HW0      0.679100        1.0080           
    7687 A    1922 TIP4 H2   HW0      0.679100        1.0080           
    7688 A    1922 TIP4 BD1  LP0     -1.358200        0.0000           
    7689 A    1923 TIP4 O1   OW0      0.000000       15.9990           
    7690 A    1923 TIP4 H1   HW0      0.679100        1.0080           
    7691 A    1923 TIP4 H2   HW0      0.679100        1.0080           
    7692 A    1923 TIP4 BD1  LP0     -1.358200        0.0000           
    7693 A    1924 TIP4 O1   OW0      0.000000       15.9990           
    7694 A    1924 TIP4 H1   HW0      0.679100        1.0080           
    7695 A    1924 TIP4 H2   HW0      0.679100        1.0080           
    7696 A    1924 TIP4 BD1  LP0     -1.358200        0.0000           
    7697 A    1925 TIP4 O1   OW0      0.000000       15.9990           
    7698 A    1925 TIP4 H1   HW0      0.679100        1.0080           
    7699 A    1925 TIP4 H2   HW0      0.679100        1.0080           
    7700 A    1925 TIP4 BD1  LP0     -1.358200        0.0000           
    7701 A    1926 TIP4 O1   OW0      0.000000       15.9990           
    7702 A    1926 TIP4 H1   HW0      0.679100        1.0080           
    7703 A    1926 TIP4 H2   HW0      0.679100        1.0080           
    7704 A    1926 TIP4 BD1  LP0     -1.358200        0.0000           
    7705 A    1927 TIP4 O1   OW0      0.000000       15.9990           
    7706 A    1927 TIP4 H1   HW0      0.679100        1.0080           
    7707 A    1927 TIP4 H2   HW0      0.679100        1.0080           
    7708 A    1927 TIP4 BD1  LP0     -1.358200        0.0000           
    7709 A    1928 TIP4 O1   OW0      0.000000       15.9990           
    7710 A    1928 TIP4 H1   HW0      0.679100        1.0080           
    7711 A    1928 TIP4 H2   HW0      0.679100        1.0080           
    7712 A    1928 TIP4 BD1  LP0     -1.358200        0.0000           
    7713 A    1929 TIP4 O1   OW0      0.000000       15.9990           
    7714 A    1929 TIP4 H1   HW0      0.679100        1.0080           
    7715 A    1929 TIP4 H2   HW0      0.679100        1.0080           
    7716 A    1929 TIP4 BD1  LP0     -1.358200        0.0000           
    7717 A    1930 TIP4 O1   OW0      0.000000       15.9990           
    7718 A    1930 TIP4 H1   HW0      0.679100        1.0080           
    7719 A    1930 TIP4 H2   HW0      0.679100        1.0080           
    7720 A    1930 TIP4 BD1  LP0     -1.358200        0.0000           
    7721 A    1931 TIP4 O1   OW0      0.000000       15.9990           
    7722 A    1931 TIP4 H1   HW0      0.679100        1.0080           
    7723 A    1931 TIP4 H2   HW0      0.679100        1.0080           
    7724 A    1931 TIP4 BD1  LP0     -1.358200        0.0000           
    7725 A    1932 TIP4 O1   OW0      0.000000       15.9990           
    7726 A    1932 TIP4 H1   HW0      0.679100        1.0080           
    7727 A    1932 TIP4 H2   HW0      0.679100        1.0080           
    7728 A    1932 TIP4 BD1  LP0     -1.358200        0.0000           
    7729 A    1933 TIP4 O1   OW0      0.000000       15.9990           
    7730 A    1933 TIP4 H1   HW0      0.679100        1.0080           
    7731 A    1933 TIP4 H2   HW0      0.679100        1.0080           
    7732 A    1933 TIP4 BD1  LP0     -1.358200        0.0000           
    7733 A    1934 TIP4 O1   OW0      0.000000       15.9990           
    7734 A    1934 TIP4 H1   HW0      0.679100        1.0080           
    7735 A    1934 TIP4 H2   HW0      0.679100        1.0080           
    7736 A    1934 TIP4 BD1  LP0     -1.358200        0.0000           
    7737 A    1935 TIP4 O1   OW0      0.000000       15.9990           
    7738 A    1935 TIP4 H1   HW0      0.679100        1.0080           
    7739 A    1935 TIP4 H2   HW0      0.679100        1.0080           
    7740 A    1935 TIP4 BD1  LP0     -1.358200        0.0000           
    7741 A    1936 TIP4 O1   OW0      0.000000       15.9990           
    7742 A    1936 TIP4 H1   HW0      0.679100        1.0080           
    7743 A    1936 TIP4 H2   HW0      0.679100        1.0080           
    7744 A    1936 TIP4 BD1  LP0     -1.358200        0.0000           
    7745 A    1937 TIP4 O1   OW0      0.000000       15.9990           
    7746 A    1937 TIP4 H1   HW0      0.679100        1.0080           
    7747 A    1937 TIP4 H2   HW0      0.679100        1.0080           
    7748 A    1937 TIP4 BD1  LP0     -1.358200        0.0000           
    7749 A    1938 TIP4 O1   OW0      0.000000       15.9990           
    7750 A    1938 TIP4 H1   HW0      0.679100        1.0080           
    7751 A    1938 TIP4 H2   HW0      0.679100        1.0080           
    7752 A    1938 TIP4 BD1  LP0     -1.358200        0.0000           
    7753 A    1939 TIP4 O1   OW0      0.000000       15.9990           
    7754 A    1939 TIP4 H1   HW0      0.679100        1.0080           
    7755 A    1939 TIP4 H2   HW0      0.679100        1.0080           
    7756 A    1939 TIP4 BD1  LP0     -1.358200        0.0000           
    7757 A    1940 TIP4 O1   OW0      0.000000       15.9990           
    7758 A    1940 TIP4 H1   HW0      0.679100        1.0080           
    7759 A    1940 TIP4 H2   HW0      0.679100        1.0080           
    7760 A    1940 TIP4 BD1  LP0     -1.358200        0.0000           
    7761 A    1941 TIP4 O1   OW0      0.000000       15.9990           
    7762 A    1941 TIP4 H1   HW0      0.679100        1.0080           
    7763 A    1941 TIP4 H2   HW0      0.679100        1.0080           
    7764 A    1941 TIP4 BD1  LP0     -1.358200        0.0000           
    7765 A    1942 TIP4 O1   OW0      0.000000       15.9990           
    7766 A    1942 TIP4 H1   HW0      0.679100        1.0080           
    7767 A    1942 TIP4 H2   HW0      0.679100        1.0080           
    7768 A    1942 TIP4 BD1  LP0     -1.358200        0.0000           
    7769 A    1943 TIP4 O1   OW0      0.000000       15.9990           
    7770 A    1943 TIP4 H1   HW0      0.679100        1.0080           
    7771 A    1943 TIP4 H2   HW0      0.679100        1.0080           
    7772 A    1943 TIP4 BD1  LP0     -1.358200        0.0000           
    7773 A    1944 TIP4 O1   OW0      0.000000       15.9990           
    7774 A    1944 TIP4 H1   HW0      0.679100        1.0080           
    7775 A    1944 TIP4 H2   HW0      0.679100        1.0080           
    7776 A    1944 TIP4 BD1  LP0     -1.358200        0.0000           
    7777 A    1945 TIP4 O1   OW0      0.000000       15.9990           
    7778 A    1945 TIP4 H1   HW0      0.679100        1.0080           
    7779 A    1945 TIP4 H2   HW0      0.679100        1.0080           
    7780 A    1945 TIP4 BD1  LP0     -1.358200        0.0000           
    7781 A    1946 TIP4 O1   OW0      0.000000       15.9990           
    7782 A    1946 TIP4 H1   HW0      0.679100        1.0080           
    7783 A    1946 TIP4 H2   HW0      0.679100        1.0080           
    7784 A    1946 TIP4 BD1  LP0     -1.358200        0.0000           
    7785 A    1947 TIP4 O1   OW0      0.000000       15.9990           
    7786 A    1947 TIP4 H1   HW0      0.679100        1.0080           
    7787 A    1947 TIP4 H2   HW0      0.679100        1.0080           
    7788 A    1947 TIP4 BD1  LP0     -1.358200        0.0000           
    7789 A    1948 TIP4 O1   OW0      0.000000       15.9990           
    7790 A    1948 TIP4 H1   HW0      0.679100        1.0080           
    7791 A    1948 TIP4 H2   HW0      0.679100        1.0080           
    7792 A    1948 TIP4 BD1  LP0     -1.358200        0.0000           
    7793 A    1949 TIP4 O1   OW0      0.000000       15.9990           
    7794 A    1949 TIP4 H1   HW0      0.679100        1.0080           
    7795 A    1949 TIP4 H2   HW0      0.679100        1.0080           
    7796 A    1949 TIP4 BD1  LP0     -1.358200        0.0000           
    7797 A    1950 TIP4 O1   OW0      0.000000       15.9990           
    7798 A    1950 TIP4 H1   HW0      0.679100        1.0080           
    7799 A    1950 TIP4 H2   HW0      0.679100        1.0080           
    7800 A    1950 TIP4 BD1  LP0     -1.358200        0.0000           
    7801 A    1951 TIP4 O1   OW0      0.000000       15.9990           
    7802 A    1951 TIP4 H1   HW0      0.679100        1.0080           
    7803 A    1951 TIP4 H2   HW0      0.679100        1.0080           
    7804 A    1951 TIP4 BD1  LP0     -1.358200        0.0000           
    7805 A    1952 TIP4 O1   OW0      0.000000       15.9990           
    7806 A    1952 TIP4 H1   HW0      0.679100        1.0080           
    7807 A    1952 TIP4 H2   HW0      0.679100        1.0080           
    7808 A    1952 TIP4 BD1  LP0     -1.358200        0.0000           
    7809 A    1953 TIP4 O1   OW0      0.000000       15.9990           
    7810 A    1953 TIP4 H1   HW0      0.679100        1.0080           
    7811 A    1953 TIP4 H2   HW0      0.679100        1.0080           
    7812 A    1953 TIP4 BD1  LP0     -1.358200        0.0000           
    7813 A    1954 TIP4 O1   OW0      0.000000       15.9990           
    7814 A    1954 TIP4 H1   HW0      0.679100        1.0080           
    7815 A    1954 TIP4 H2   HW0      0.679100        1.0080           
    7816 A    1954 TIP4 BD1  LP0     -1.358200        0.0000           
    7817 A    1955 TIP4 O1   OW0      0.000000       15.9990           
    7818 A    1955 TIP4 H1   HW0      0.679100        1.0080           
    7819 A    1955 TIP4 H2   HW0      0.679100        1.0080           
    7820 A    1955 TIP4 BD1  LP0     -1.358200        0.0000           
    7821 A    1956 TIP4 O1   OW0      0.000000       15.9990           
    7822 A    1956 TIP4 H1   HW0      0.679100        1.0080           
    7823 A    1956 TIP4 H2   HW0      0.679100        1.0080           
    7824 A    1956 TIP4 BD1  LP0     -1.358200        0.0000           
    7825 A    1957 TIP4 O1   OW0      0.000000       15.9990           
    7826 A    1957 TIP4 H1   HW0      0.679100        1.0080           
    7827 A    1957 TIP4 H2   HW0      0.679100        1.0080           
    7828 A    1957 TIP4 BD1  LP0     -1.358200        0.0000           
    7829 A    1958 TIP4 O1   OW0      0.000000       15.9990           
    7830 A    1958 TIP4 H1   HW0      0.679100        1.0080           
    7831 A    1958 TIP4 H2   HW0      0.679100        1.0080           
    7832 A    1958 TIP4 BD1  LP0     -1.358200        0.0000           
    7833 A    1959 TIP4 O1   OW0      0.000000       15.9990           
    7834 A    1959 TIP4 H1   HW0      0.679100        1.0080           
    7835 A    1959 TIP4 H2   HW0      0.679100        1.0080           
    7836 A    1959 TIP4 BD1  LP0     -1.358200        0.0000           
    7837 A    1960 TIP4 O1   OW0      0.000000       15.9990           
    7838 A    1960 TIP4 H1   HW0      0.679100        1.0080           
    7839 A    1960 TIP4 H2   HW0      0.679100        1.0080           
    7840 A    1960 TIP4 BD1  LP0     -1.358200        0.0000           
    7841 A    1961 TIP4 O1   OW0      0.000000       15.9990           
    7842 A    1961 TIP4 H1   HW0      0.679100        1.0080           
    7843 A    1961 TIP4 H2   HW0      0.679100        1.0080           
    7844 A    1961 TIP4 BD1  LP0     -1.358200        0.0000           
    7845 A    1962 TIP4 O1   OW0      0.000000       15.9990           
    7846 A    1962 TIP4 H1   HW0      0.679100        1.0080           
    7847 A    1962 TIP4 H2   HW0      0.679100        1.0080           
    7848 A    1962 TIP4 BD1  LP0     -1.358200        0.0000           
    7849 A    1963 TIP4 O1   OW0      0.000000       15.9990           
    7850 A    1963 TIP4 H1   HW0      0.679100        1.0080           
    7851 A    1963 TIP4 H2   HW0      0.679100        1.0080           
    7852 A    1963 TIP4 BD1  LP0     -1.358200        0.0000           
    7853 A    1964 TIP4 O1   OW0      0.000000       15.9990           
    7854 A    1964 TIP4 H1   HW0      0.679100        1.0080           
    7855 A    1964 TIP4 H2   HW0      0.679100        1.0080           
    7856 A    1964 TIP4 BD1  LP0     -1.358200        0.0000           
    7857 A    1965 TIP4 O1   OW0      0.000000       15.9990           
    7858 A    1965 TIP4 H1   HW0      0.679100        1.0080           
    7859 A    1965 TIP4 H2   HW0      0.679100        1.0080           
    7860 A    1965 TIP4 BD1  LP0     -1.358200        0.0000           
    7861 A    1966 TIP4 O1   OW0      0.000000       15.9990           
    7862 A    1966 TIP4 H1   HW0      0.679100        1.0080           
    7863 A    1966 TIP4 H2   HW0      0.679100        1.0080           
    7864 A    1966 TIP4 BD1  LP0     -1.358200        0.0000           
    7865 A    1967 TIP4 O1   OW0      0.000000       15.9990           
    7866 A    1967 TIP4 H1   HW0      0.679100        1.0080           
    7867 A    1967 TIP4 H2   HW0      0.679100        1.0080           
    7868 A    1967 TIP4 BD1  LP0     -1.358200        0.0000           
    7869 A    1968 TIP4 O1   OW0      0.000000       15.9990           
    7870 A    1968 TIP4 H1   HW0      0.679100        1.0080           
    7871 A    1968 TIP4 H2   HW0      0.679100        1.0080           
    7872 A    1968 TIP4 BD1  LP0     -1.358200        0.0000           
    7873 A    1969 TIP4 O1   OW0      0.000000       15.9990           
    7874 A    1969 TIP4 H1   HW0      0.679100        1.0080           
    7875 A    1969 TIP4 H2   HW0      0.679100        1.0080           
    7876 A    1969 TIP4 BD1  LP0     -1.358200        0.0000           
    7877 A    1970 TIP4 O1   OW0      0.000000       15.9990           
    7878 A    1970 TIP4 H1   HW0      0.679100        1.0080           
    7879 A    1970 TIP4 H2   HW0      0.679100        1.0080           
    7880 A    1970 TIP4 BD1  LP0     -1.358200        0.0000           
    7881 A    1971 TIP4 O1   OW0      0.000000       15.9990           
    7882 A    1971 TIP4 H1   HW0      0.679100        1.0080           
    7883 A    1971 TIP4 H2   HW0      0.679100        1.0080           
    7884 A    1971 TIP4 BD1  LP0     -1.358200        0.0000           
    7885 A    1972 TIP4 O1   OW0      0.000000       15.9990           
    7886 A    1972 TIP4 H1   HW0      0.679100        1.0080           
    7887 A    1972 TIP4 H2   HW0      0.679100        1.0080           
    7888 A    1972 TIP4 BD1  LP0     -1.358200        0.0000           
    7889 A    1973 TIP4 O1   OW0      0.000000       15.9990           
    7890 A    1973 TIP4 H1   HW0      0.679100        1.0080           
    7891 A    1973 TIP4 H2   HW0      0.679100        1.0080           
    7892 A    1973 TIP4 BD1  LP0     -1.358200        0.0000           
    7893 A    1974 TIP4 O1   OW0      0.000000       15.9990           
    7894 A    1974 TIP4 H1   HW0      0.679100        1.0080           
    7895 A    1974 TIP4 H2   HW0      0.679100        1.0080           
    7896 A    1974 TIP4 BD1  LP0     -1.358200        0.0000           
    7897 A    1975 TIP4 O1   OW0      0.000000       15.9990           
    7898 A    1975 TIP4 H1   HW0      0.679100        1.0080           
    7899 A    1975 TIP4 H2   HW0      0.679100        1.0080           
    7900 A    1975 TIP4 BD1  LP0     -1.358200        0.0000           
    7901 A    1976 TIP4 O1   OW0      0.000000       15.9990           
    7902 A    1976 TIP4 H1   HW0      0.679100        1.0080           
    7903 A    1976 TIP4 H2   HW0      0.679100        1.0080           
    7904 A    1976 TIP4 BD1  LP0     -1.358200        0.0000           
    7905 A    1977 TIP4 O1   OW0      0.000000       15.9990           
    7906 A    1977 TIP4 H1   HW0      0.679100        1.0080           
    7907 A    1977 TIP4 H2   HW0      0.679100        1.0080           
    7908 A    1977 TIP4 BD1  LP0     -1.358200        0.0000           
    7909 A    1978 TIP4 O1   OW0      0.000000       15.9990           
    7910 A    1978 TIP4 H1   HW0      0.679100        1.0080           
    7911 A    1978 TIP4 H2   HW0      0.679100        1.0080           
    7912 A    1978 TIP4 BD1  LP0     -1.358200        0.0000           
    7913 A    1979 TIP4 O1   OW0      0.000000       15.9990           
    7914 A    1979 TIP4 H1   HW0      0.679100        1.0080           
    7915 A    1979 TIP4 H2   HW0      0.679100        1.0080           
    7916 A    1979 TIP4 BD1  LP0     -1.358200        0.0000           
    7917 A    1980 TIP4 O1   OW0      0.000000       15.9990           
    7918 A    1980 TIP4 H1   HW0      0.679100        1.0080           
    7919 A    1980 TIP4 H2   HW0      0.679100        1.0080           
    7920 A    1980 TIP4 BD1  LP0     -1.358200        0.0000           
    7921 A    1981 TIP4 O1   OW0      0.000000       15.9990           
    7922 A    1981 TIP4 H1   HW0      0.679100        1.0080           
    7923 A    1981 TIP4 H2   HW0      0.679100        1.0080           
    7924 A    1981 TIP4 BD1  LP0     -1.358200        0.0000           
    7925 A    1982 TIP4 O1   OW0      0.000000       15.9990           
    7926 A    1982 TIP4 H1   HW0      0.679100        1.0080           
    7927 A    1982 TIP4 H2   HW0      0.679100        1.0080           
    7928 A    1982 TIP4 BD1  LP0     -1.358200        0.0000           
    7929 A    1983 TIP4 O1   OW0      0.000000       15.9990           
    7930 A    1983 TIP4 H1   HW0      0.679100        1.0080           
    7931 A    1983 TIP4 H2   HW0      0.679100        1.0080           
    7932 A    1983 TIP4 BD1  LP0     -1.358200        0.0000           
    7933 A    1984 TIP4 O1   OW0      0.000000       15.9990           
    7934 A    1984 TIP4 H1   HW0      0.679100        1.0080           
    7935 A    1984 TIP4 H2   HW0      0.679100        1.0080           
    7936 A    1984 TIP4 BD1  LP0     -1.358200        0.0000           
    7937 A    1985 TIP4 O1   OW0      0.000000       15.9990           
    7938 A    1985 TIP4 H1   HW0      0.679100        1.0080           
    7939 A    1985 TIP4 H2   HW0      0.679100        1.0080           
    7940 A    1985 TIP4 BD1  LP0     -1.358200        0.0000           
    7941 A    1986 TIP4 O1   OW0      0.000000       15.9990           
    7942 A    1986 TIP4 H1   HW0      0.679100        1.0080           
    7943 A    1986 TIP4 H2   HW0      0.679100        1.0080           
    7944 A    1986 TIP4 BD1  LP0     -1.358200        0.0000           
    7945 A    1987 TIP4 O1   OW0      0.000000       15.9990           
    7946 A    1987 TIP4 H1   HW0      0.679100        1.0080           
    7947 A    1987 TIP4 H2   HW0      0.679100        1.0080           
    7948 A    1987 TIP4 BD1  LP0     -1.358200        0.0000           
    7949 A    1988 TIP4 O1   OW0      0.000000       15.9990           
    7950 A    1988 TIP4 H1   HW0      0.679100        1.0080           
    7951 A    1988 TIP4 H2   HW0      0.679100        1.0080           
    7952 A    1988 TIP4 BD1  LP0     -1.358200        0.0000           
    7953 A    1989 TIP4 O1   OW0      0.000000       15.9990           
    7954 A    1989 TIP4 H1   HW0      0.679100        1.0080           
    7955 A    1989 TIP4 H2   HW0      0.679100        1.0080           
    7956 A    1989 TIP4 BD1  LP0     -1.358200        0.0000           
    7957 A    1990 TIP4 O1   OW0      0.000000       15.9990           
    7958 A    1990 TIP4 H1   HW0      0.679100        1.0080           
    7959 A    1990 TIP4 H2   HW0      0.679100        1.0080           
    7960 A    1990 TIP4 BD1  LP0     -1.358200        0.0000           
    7961 A    1991 TIP4 O1   OW0      0.000000       15.9990           
    7962 A    1991 TIP4 H1   HW0      0.679100        1.0080           
    7963 A    1991 TIP4 H2   HW0      0.679100        1.0080           
    7964 A    1991 TIP4 BD1  LP0     -1.358200        0.0000           
    7965 A    1992 TIP4 O1   OW0      0.000000       15.9990           
    7966 A    1992 TIP4 H1   HW0      0.679100        1.0080           
    7967 A    1992 TIP4 H2   HW0      0.679100        1.0080           
    7968 A    1992 TIP4 BD1  LP0     -1.358200        0.0000           
    7969 A    1993 TIP4 O1   OW0      0.000000       15.9990           
    7970 A    1993 TIP4 H1   HW0      0.679100        1.0080           
    7971 A    1993 TIP4 H2   HW0      0.679100        1.0080           
    7972 A    1993 TIP4 BD1  LP0     -1.358200        0.0000           
    7973 A    1994 TIP4 O1   OW0      0.000000       15.9990           
    7974 A    1994 TIP4 H1   HW0      0.679100        1.0080           
    7975 A    1994 TIP4 H2   HW0      0.679100        1.0080           
    7976 A    1994 TIP4 BD1  LP0     -1.358200        0.0000           
    7977 A    1995 TIP4 O1   OW0      0.000000       15.9990           
    7978 A    1995 TIP4 H1   HW0      0.679100        1.0080           
    7979 A    1995 TIP4 H2   HW0      0.679100        1.0080           
    7980 A    1995 TIP4 BD1  LP0     -1.358200        0.0000           
    7981 A    1996 TIP4 O1   OW0      0.000000       15.9990           
    7982 A    1996 TIP4 H1   HW0      0.679100        1.0080           
    7983 A    1996 TIP4 H2   HW0      0.679100        1.0080           
    7984 A    1996 TIP4 BD1  LP0     -1.358200        0.0000           
    7985 A    1997 TIP4 O1   OW0      0.000000       15.9990           
    7986 A    1997 TIP4 H1   HW0      0.679100        1.0080           
    7987 A    1997 TIP4 H2   HW0      0.679100        1.0080           
    7988 A    1997 TIP4 BD1  LP0     -1.358200        0.0000           
    7989 A    1998 TIP4 O1   OW0      0.000000       15.9990           
    7990 A    1998 TIP4 H1   HW0      0.679100        1.0080           
    7991 A    1998 TIP4 H2   HW0      0.679100        1.0080           
    7992 A    1998 TIP4 BD1  LP0     -1.358200        0.0000           
    7993 A    1999 TIP4 O1   OW0      0.000000       15.9990           
    7994 A    1999 TIP4 H1   HW0      0.679100        1.0080           
    7995 A    1999 TIP4 H2   HW0      0.679100        1.0080           
    7996 A    1999 TIP4 BD1  LP0     -1.358200        0.0000           
    7997 A    2000 TIP4 O1   OW0      0.000000       15.9990           
    7998 A    2000 TIP4 H1   HW0      0.679100        1.0080           
    7999 A    2000 TIP4 H2   HW0      0.679100        1.0080           
    8000 A    2000 TIP4 BD1  LP0     -1.358200        0.0000           
    8001 A    2001 TIP4 O1   OW0      0.000000       15.9990           
    8002 A    2001 TIP4 H1   HW0      0.679100        1.0080           
    8003 A    2001 TIP4 H2   HW0      0.679100        1.0080           
    8004 A    2001 TIP4 BD1  LP0     -1.358200        0.0000           
    8005 A    2002 TIP4 O1   OW0      0.000000       15.9990           
    8006 A    2002 TIP4 H1   HW0      0.679100        1.0080           
    8007 A    2002 TIP4 H2   HW0      0.679100        1.0080           
    8008 A    2002 TIP4 BD1  LP0     -1.358200        0.0000           
    8009 A    2003 TIP4 O1   OW0      0.000000       15.9990           
    8010 A    2003 TIP4 H1   HW0      0.679100        1.0080           
    8011 A    2003 TIP4 H2   HW0      0.679100        1.0080           
    8012 A    2003 TIP4 BD1  LP0     -1.358200        0.0000           
    8013 A    2004 TIP4 O1   OW0      0.000000       15.9990           
    8014 A    2004 TIP4 H1   HW0      0.679100        1.0080           
    8015 A    2004 TIP4 H2   HW0      0.679100        1.0080           
    8016 A    2004 TIP4 BD1  LP0     -1.358200        0.0000           
    8017 A    2005 TIP4 O1   OW0      0.000000       15.9990           
    8018 A    2005 TIP4 H1   HW0      0.679100        1.0080           
    8019 A    2005 TIP4 H2   HW0      0.679100        1.0080           
    8020 A    2005 TIP4 BD1  LP0     -1.358200        0.0000           
    8021 A    2006 TIP4 O1   OW0      0.000000       15.9990           
    8022 A    2006 TIP4 H1   HW0      0.679100        1.0080           
    8023 A    2006 TIP4 H2   HW0      0.679100        1.0080           
    8024 A    2006 TIP4 BD1  LP0     -1.358200        0.0000           
    8025 A    2007 TIP4 O1   OW0      0.000000       15.9990           
    8026 A    2007 TIP4 H1   HW0      0.679100        1.0080           
    8027 A    2007 TIP4 H2   HW0      0.679100        1.0080           
    8028 A    2007 TIP4 BD1  LP0     -1.358200        0.0000           
    8029 A    2008 TIP4 O1   OW0      0.000000       15.9990           
    8030 A    2008 TIP4 H1   HW0      0.679100        1.0080           
    8031 A    2008 TIP4 H2   HW0      0.679100        1.0080           
    8032 A    2008 TIP4 BD1  LP0     -1.358200        0.0000           
    8033 A    2009 TIP4 O1   OW0      0.000000       15.9990           
    8034 A    2009 TIP4 H1   HW0      0.679100        1.0080           
    8035 A    2009 TIP4 H2   HW0      0.679100        1.0080           
    8036 A    2009 TIP4 BD1  LP0     -1.358200        0.0000           
    8037 A    2010 TIP4 O1   OW0      0.000000       15.9990           
    8038 A    2010 TIP4 H1   HW0      0.679100        1.0080           
    8039 A    2010 TIP4 H2   HW0      0.679100        1.0080           
    8040 A    2010 TIP4 BD1  LP0     -1.358200        0.0000           
    8041 A    2011 TIP4 O1   OW0      0.000000       15.9990           
    8042 A    2011 TIP4 H1   HW0      0.679100        1.0080           
    8043 A    2011 TIP4 H2   HW0      0.679100        1.0080           
    8044 A    2011 TIP4 BD1  LP0     -1.358200        0.0000           
    8045 A    2012 TIP4 O1   OW0      0.000000       15.9990           
    8046 A    2012 TIP4 H1   HW0      0.679100        1.0080           
    8047 A    2012 TIP4 H2   HW0      0.679100        1.0080           
    8048 A    2012 TIP4 BD1  LP0     -1.358200        0.0000           
    8049 A    2013 TIP4 O1   OW0      0.000000       15.9990           
    8050 A    2013 TIP4 H1   HW0      0.679100        1.0080           
    8051 A    2013 TIP4 H2   HW0      0.679100        1.0080           
    8052 A    2013 TIP4 BD1  LP0     -1.358200        0.0000           
    8053 A    2014 TIP4 O1   OW0      0.000000       15.9990           
    8054 A    2014 TIP4 H1   HW0      0.679100        1.0080           
    8055 A    2014 TIP4 H2   HW0      0.679100        1.0080           
    8056 A    2014 TIP4 BD1  LP0     -1.358200        0.0000           
    8057 A    2015 TIP4 O1   OW0      0.000000       15.9990           
    8058 A    2015 TIP4 H1   HW0      0.679100        1.0080           
    8059 A    2015 TIP4 H2   HW0      0.679100        1.0080           
    8060 A    2015 TIP4 BD1  LP0     -1.358200        0.0000           
    8061 A    2016 TIP4 O1   OW0      0.000000       15.9990           
    8062 A    2016 TIP4 H1   HW0      0.679100        1.0080           
    8063 A    2016 TIP4 H2   HW0      0.679100        1.0080           
    8064 A    2016 TIP4 BD1  LP0     -1.358200        0.0000           
    8065 A    2017 TIP4 O1   OW0      0.000000       15.9990           
    8066 A    2017 TIP4 H1   HW0      0.679100        1.0080           
    8067 A    2017 TIP4 H2   HW0      0.679100        1.0080           
    8068 A    2017 TIP4 BD1  LP0     -1.358200        0.0000           
    8069 A    2018 TIP4 O1   OW0      0.000000       15.9990           
    8070 A    2018 TIP4 H1   HW0      0.679100        1.0080           
    8071 A    2018 TIP4 H2   HW0      0.679100        1.0080           
    8072 A    2018 TIP4 BD1  LP0     -1.358200        0.0000           
    8073 A    2019 TIP4 O1   OW0      0.000000       15.9990           
    8074 A    2019 TIP4 H1   HW0      0.679100        1.0080           
    8075 A    2019 TIP4 H2   HW0      0.679100        1.0080           
    8076 A    2019 TIP4 BD1  LP0     -1.358200        0.0000           
    8077 A    2020 TIP4 O1   OW0      0.000000       15.9990           
    8078 A    2020 TIP4 H1   HW0      0.679100        1.0080           
    8079 A    2020 TIP4 H2   HW0      0.679100        1.0080           
    8080 A    2020 TIP4 BD1  LP0     -1.358200        0.0000           
    8081 A    2021 TIP4 O1   OW0      0.000000       15.9990           
    8082 A    2021 TIP4 H1   HW0      0.679100        1.0080           
    8083 A    2021 TIP4 H2   HW0      0.679100        1.0080           
    8084 A    2021 TIP4 BD1  LP0     -1.358200        0.0000           
    8085 A    2022 TIP4 O1   OW0      0.000000       15.9990           
    8086 A    2022 TIP4 H1   HW0      0.679100        1.0080           
    8087 A    2022 TIP4 H2   HW0      0.679100        1.0080           
    8088 A    2022 TIP4 BD1  LP0     -1.358200        0.0000           
    8089 A    2023 TIP4 O1   OW0      0.000000       15.9990           
    8090 A    2023 TIP4 H1   HW0      0.679100        1.0080           
    8091 A    2023 TIP4 H2   HW0      0.679100        1.0080           
    8092 A    2023 TIP4 BD1  LP0     -1.358200        0.0000           
    8093 A    2024 TIP4 O1   OW0      0.000000       15.9990           
    8094 A    2024 TIP4 H1   HW0      0.679100        1.0080           
    8095 A    2024 TIP4 H2   HW0      0.679100        1.0080           
    8096 A    2024 TIP4 BD1  LP0     -1.358200        0.0000           
    8097 A    2025 TIP4 O1   OW0      0.000000       15.9990           
    8098 A    2025 TIP4 H1   HW0      0.679100        1.0080           
    8099 A    2025 TIP4 H2   HW0      0.679100        1.0080           
    8100 A    2025 TIP4 BD1  LP0     -1.358200        0.0000           
    8101 A    2026 TIP4 O1   OW0      0.000000       15.9990           
    8102 A    2026 TIP4 H1   HW0      0.679100        1.0080           
    8103 A    2026 TIP4 H2   HW0      0.679100        1.0080           
    8104 A    2026 TIP4 BD1  LP0     -1.358200        0.0000           
    8105 A    2027 TIP4 O1   OW0      0.000000       15.9990           
    8106 A    2027 TIP4 H1   HW0      0.679100        1.0080           
    8107 A    2027 TIP4 H2   HW0      0.679100        1.0080           
    8108 A    2027 TIP4 BD1  LP0     -1.358200        0.0000           
    8109 A    2028 TIP4 O1   OW0      0.000000       15.9990           
    8110 A    2028 TIP4 H1   HW0      0.679100        1.0080           
    8111 A    2028 TIP4 H2   HW0      0.679100        1.0080           
    8112 A    2028 TIP4 BD1  LP0     -1.358200        0.0000           
    8113 A    2029 TIP4 O1   OW0      0.000000       15.9990           
    8114 A    2029 TIP4 H1   HW0      0.679100        1.0080           
    8115 A    2029 TIP4 H2   HW0      0.679100        1.0080           
    8116 A    2029 TIP4 BD1  LP0     -1.358200        0.0000           
    8117 A    2030 TIP4 O1   OW0      0.000000       15.9990           
    8118 A    2030 TIP4 H1   HW0      0.679100        1.0080           
    8119 A    2030 TIP4 H2   HW0      0.679100        1.0080           
    8120 A    2030 TIP4 BD1  LP0     -1.358200        0.0000           
    8121 A    2031 TIP4 O1   OW0      0.000000       15.9990           
    8122 A    2031 TIP4 H1   HW0      0.679100        1.0080           
    8123 A    2031 TIP4 H2   HW0      0.679100        1.0080           
    8124 A    2031 TIP4 BD1  LP0     -1.358200        0.0000           
    8125 A    2032 TIP4 O1   OW0      0.000000       15.9990           
    8126 A    2032 TIP4 H1   HW0      0.679100        1.0080           
    8127 A    2032 TIP4 H2   HW0      0.679100        1.0080           
    8128 A    2032 TIP4 BD1  LP0     -1.358200        0.0000           
    8129 A    2033 TIP4 O1   OW0      0.000000       15.9990           
    8130 A    2033 TIP4 H1   HW0      0.679100        1.0080           
    8131 A    2033 TIP4 H2   HW0      0.679100        1.0080           
    8132 A    2033 TIP4 BD1  LP0     -1.358200        0.0000           
    8133 A    2034 TIP4 O1   OW0      0.000000       15.9990           
    8134 A    2034 TIP4 H1   HW0      0.679100        1.0080           
    8135 A    2034 TIP4 H2   HW0      0.679100        1.0080           
    8136 A    2034 TIP4 BD1  LP0     -1.358200        0.0000           
    8137 A    2035 TIP4 O1   OW0      0.000000       15.9990           
    8138 A    2035 TIP4 H1   HW0      0.679100        1.0080           
    8139 A    2035 TIP4 H2   HW0      0.679100        1.0080           
    8140 A    2035 TIP4 BD1  LP0     -1.358200        0.0000           
    8141 A    2036 TIP4 O1   OW0      0.000000       15.9990           
    8142 A    2036 TIP4 H1   HW0      0.679100        1.0080           
    8143 A    2036 TIP4 H2   HW0      0.679100        1.0080           
    8144 A    2036 TIP4 BD1  LP0     -1.358200        0.0000           
    8145 A    2037 TIP4 O1   OW0      0.000000       15.9990           
    8146 A    2037 TIP4 H1   HW0      0.679100        1.0080           
    8147 A    2037 TIP4 H2   HW0      0.679100        1.0080           
    8148 A    2037 TIP4 BD1  LP0     -1.358200        0.0000           
    8149 A    2038 TIP4 O1   OW0      0.000000       15.9990           
    8150 A    2038 TIP4 H1   HW0      0.679100        1.0080           
    8151 A    2038 TIP4 H2   HW0      0.679100        1.0080           
    8152 A    2038 TIP4 BD1  LP0     -1.358200        0.0000           
    8153 A    2039 TIP4 O1   OW0      0.000000       15.9990           
    8154 A    2039 TIP4 H1   HW0      0.679100        1.0080           
    8155 A    2039 TIP4 H2   HW0      0.679100        1.0080           
    8156 A    2039 TIP4 BD1  LP0     -1.358200        0.0000           
    8157 A    2040 TIP4 O1   OW0      0.000000       15.9990           
    8158 A    2040 TIP4 H1   HW0      0.679100        1.0080           
    8159 A    2040 TIP4 H2   HW0      0.679100        1.0080           
    8160 A    2040 TIP4 BD1  LP0     -1.358200        0.0000           
    8161 A    2041 TIP4 O1   OW0      0.000000       15.9990           
    8162 A    2041 TIP4 H1   HW0      0.679100        1.0080           
    8163 A    2041 TIP4 H2   HW0      0.679100        1.0080           
    8164 A    2041 TIP4 BD1  LP0     -1.358200        0.0000           
    8165 A    2042 TIP4 O1   OW0      0.000000       15.9990           
    8166 A    2042 TIP4 H1   HW0      0.679100        1.0080           
    8167 A    2042 TIP4 H2   HW0      0.679100        1.0080           
    8168 A    2042 TIP4 BD1  LP0     -1.358200        0.0000           
    8169 A    2043 TIP4 O1   OW0      0.000000       15.9990           
    8170 A    2043 TIP4 H1   HW0      0.679100        1.0080           
    8171 A    2043 TIP4 H2   HW0      0.679100        1.0080           
    8172 A    2043 TIP4 BD1  LP0     -1.358200        0.0000           
    8173 A    2044 TIP4 O1   OW0      0.000000       15.9990           
    8174 A    2044 TIP4 H1   HW0      0.679100        1.0080           
    8175 A    2044 TIP4 H2   HW0      0.679100        1.0080           
    8176 A    2044 TIP4 BD1  LP0     -1.358200        0.0000           
    8177 A    2045 TIP4 O1   OW0      0.000000       15.9990           
    8178 A    2045 TIP4 H1   HW0      0.679100        1.0080           
    8179 A    2045 TIP4 H2   HW0      0.679100        1.0080           
    8180 A    2045 TIP4 BD1  LP0     -1.358200        0.0000           
    8181 A    2046 TIP4 O1   OW0      0.000000       15.9990           
    8182 A    2046 TIP4 H1   HW0      0.679100        1.0080           
    8183 A    2046 TIP4 H2   HW0      0.679100        1.0080           
    8184 A    2046 TIP4 BD1  LP0     -1.358200        0.0000           
    8185 A    2047 TIP4 O1   OW0      0.000000       15.9990           
    8186 A    2047 TIP4 H1   HW0      0.679100        1.0080           
    8187 A    2047 TIP4 H2   HW0      0.679100        1.0080           
    8188 A    2047 TIP4 BD1  LP0     -1.358200        0.0000           
    8189 A    2048 TIP4 O1   OW0      0.000000       15.9990           
    8190 A    2048 TIP4 H1   HW0      0.679100        1.0080           
    8191 A    2048 TIP4 H2   HW0      0.679100        1.0080           
    8192 A    2048 TIP4 BD1  LP0     -1.358200        0.0000           
    8193 A    2049 TIP4 O1   OW0      0.000000       15.9990           
    8194 A    2049 TIP4 H1   HW0      0.679100        1.0080           
    8195 A    2049 TIP4 H2   HW0      0.679100        1.0080           
    8196 A    2049 TIP4 BD1  LP0     -1.358200        0.0000           
    8197 A    2050 TIP4 O1   OW0      0.000000       15.9990           
    8198 A    2050 TIP4 H1   HW0      0.679100        1.0080           
    8199 A    2050 TIP4 H2   HW0      0.679100        1.0080           
    8200 A    2050 TIP4 BD1  LP0     -1.358200        0.0000           
    8201 A    2051 TIP4 O1   OW0      0.000000       15.9990           
    8202 A    2051 TIP4 H1   HW0      0.679100        1.0080           
    8203 A    2051 TIP4 H2   HW0      0.679100        1.0080           
    8204 A    2051 TIP4 BD1  LP0     -1.358200        0.0000           
    8205 A    2052 TIP4 O1   OW0      0.000000       15.9990           
    8206 A    2052 TIP4 H1   HW0      0.679100        1.0080           
    8207 A    2052 TIP4 H2   HW0      0.679100        1.0080           
    8208 A    2052 TIP4 BD1  LP0     -1.358200        0.0000           
    8209 A    2053 TIP4 O1   OW0      0.000000       15.9990           
    8210 A    2053 TIP4 H1   HW0      0.679100        1.0080           
    8211 A    2053 TIP4 H2   HW0      0.679100        1.0080           
    8212 A    2053 TIP4 BD1  LP0     -1.358200        0.0000           
    8213 A    2054 TIP4 O1   OW0      0.000000       15.9990           
    8214 A    2054 TIP4 H1   HW0      0.679100        1.0080           
    8215 A    2054 TIP4 H2   HW0      0.679100        1.0080           
    8216 A    2054 TIP4 BD1  LP0     -1.358200        0.0000           
    8217 A    2055 TIP4 O1   OW0      0.000000       15.9990           
    8218 A    2055 TIP4 H1   HW0      0.679100        1.0080           
    8219 A    2055 TIP4 H2   HW0      0.679100        1.0080           
    8220 A    2055 TIP4 BD1  LP0     -1.358200        0.0000           
    8221 A    2056 TIP4 O1   OW0      0.000000       15.9990           
    8222 A    2056 TIP4 H1   HW0      0.679100        1.0080           
    8223 A    2056 TIP4 H2   HW0      0.679100        1.0080           
    8224 A    2056 TIP4 BD1  LP0     -1.358200        0.0000           
    8225 A    2057 TIP4 O1   OW0      0.000000       15.9990           
    8226 A    2057 TIP4 H1   HW0      0.679100        1.0080           
    8227 A    2057 TIP4 H2   HW0      0.679100        1.0080           
    8228 A    2057 TIP4 BD1  LP0     -1.358200        0.0000           
    8229 A    2058 TIP4 O1   OW0      0.000000       15.9990           
    8230 A    2058 TIP4 H1   HW0      0.679100        1.0080           
    8231 A    2058 TIP4 H2   HW0      0.679100        1.0080           
    8232 A    2058 TIP4 BD1  LP0     -1.358200        0.0000           
    8233 A    2059 TIP4 O1   OW0      0.000000       15.9990           
    8234 A    2059 TIP4 H1   HW0      0.679100        1.0080           
    8235 A    2059 TIP4 H2   HW0      0.679100        1.0080           
    8236 A    2059 TIP4 BD1  LP0     -1.358200        0.0000           
    8237 A    2060 TIP4 O1   OW0      0.000000       15.9990           
    8238 A    2060 TIP4 H1   HW0      0.679100        1.0080           
    8239 A    2060 TIP4 H2   HW0      0.679100        1.0080           
    8240 A    2060 TIP4 BD1  LP0     -1.358200        0.0000           
    8241 A    2061 TIP4 O1   OW0      0.000000       15.9990           
    8242 A    2061 TIP4 H1   HW0      0.679100        1.0080           
    8243 A    2061 TIP4 H2   HW0      0.679100        1.0080           
    8244 A    2061 TIP4 BD1  LP0     -1.358200        0.0000           
    8245 A    2062 TIP4 O1   OW0      0.000000       15.9990           
    8246 A    2062 TIP4 H1   HW0      0.679100        1.0080           
    8247 A    2062 TIP4 H2   HW0      0.679100        1.0080           
    8248 A    2062 TIP4 BD1  LP0     -1.358200        0.0000           
    8249 A    2063 TIP4 O1   OW0      0.000000       15.9990           
    8250 A    2063 TIP4 H1   HW0      0.679100        1.0080           
    8251 A    2063 TIP4 H2   HW0      0.679100        1.0080           
    8252 A    2063 TIP4 BD1  LP0     -1.358200        0.0000           
    8253 A    2064 TIP4 O1   OW0      0.000000       15.9990           
    8254 A    2064 TIP4 H1   HW0      0.679100        1.0080           
    8255 A    2064 TIP4 H2   HW0      0.679100        1.0080           
    8256 A    2064 TIP4 BD1  LP0     -1.358200        0.0000           
    8257 A    2065 TIP4 O1   OW0      0.000000       15.9990           
    8258 A    2065 TIP4 H1   HW0      0.679100        1.0080           
    8259 A    2065 TIP4 H2   HW0      0.679100        1.0080           
    8260 A    2065 TIP4 BD1  LP0     -1.358200        0.0000           
    8261 A    2066 TIP4 O1   OW0      0.000000       15.9990           
    8262 A    2066 TIP4 H1   HW0      0.679100        1.0080           
    8263 A    2066 TIP4 H2   HW0      0.679100        1.0080           
    8264 A    2066 TIP4 BD1  LP0     -1.358200        0.0000           
    8265 A    2067 TIP4 O1   OW0      0.000000       15.9990           
    8266 A    2067 TIP4 H1   HW0      0.679100        1.0080           
    8267 A    2067 TIP4 H2   HW0      0.679100        1.0080           
    8268 A    2067 TIP4 BD1  LP0     -1.358200        0.0000           
    8269 A    2068 TIP4 O1   OW0      0.000000       15.9990           
    8270 A    2068 TIP4 H1   HW0      0.679100        1.0080           
    8271 A    2068 TIP4 H2   HW0      0.679100        1.0080           
    8272 A    2068 TIP4 BD1  LP0     -1.358200        0.0000           
    8273 A    2069 TIP4 O1   OW0      0.000000       15.9990           
    8274 A    2069 TIP4 H1   HW0      0.679100        1.0080           
    8275 A    2069 TIP4 H2   HW0      0.679100        1.0080           
    8276 A    2069 TIP4 BD1  LP0     -1.358200        0.0000           
    8277 A    2070 TIP4 O1   OW0      0.000000       15.9990           
    8278 A    2070 TIP4 H1   HW0      0.679100        1.0080           
    8279 A    2070 TIP4 H2   HW0      0.679100        1.0080           
    8280 A    2070 TIP4 BD1  LP0     -1.358200        0.0000           
    8281 A    2071 TIP4 O1   OW0      0.000000       15.9990           
    8282 A    2071 TIP4 H1   HW0      0.679100        1.0080           
    8283 A    2071 TIP4 H2   HW0      0.679100        1.0080           
    8284 A    2071 TIP4 BD1  LP0     -1.358200        0.0000           
    8285 A    2072 TIP4 O1   OW0      0.000000       15.9990           
    8286 A    2072 TIP4 H1   HW0      0.679100        1.0080           
    8287 A    2072 TIP4 H2   HW0      0.679100        1.0080           
    8288 A    2072 TIP4 BD1  LP0     -1.358200        0.0000           
    8289 A    2073 TIP4 O1   OW0      0.000000       15.9990           
    8290 A    2073 TIP4 H1   HW0      0.679100        1.0080           
    8291 A    2073 TIP4 H2   HW0      0.679100        1.0080           
    8292 A    2073 TIP4 BD1  LP0     -1.358200        0.0000           
    8293 A    2074 TIP4 O1   OW0      0.000000       15.9990           
    8294 A    2074 TIP4 H1   HW0      0.679100        1.0080           
    8295 A    2074 TIP4 H2   HW0      0.679100        1.0080           
    8296 A    2074 TIP4 BD1  LP0     -1.358200        0.0000           
    8297 A    2075 TIP4 O1   OW0      0.000000       15.9990           
    8298 A    2075 TIP4 H1   HW0      0.679100        1.0080           
    8299 A    2075 TIP4 H2   HW0      0.679100        1.0080           
    8300 A    2075 TIP4 BD1  LP0     -1.358200        0.0000           
    8301 A    2076 TIP4 O1   OW0      0.000000       15.9990           
    8302 A    2076 TIP4 H1   HW0      0.679100        1.0080           
    8303 A    2076 TIP4 H2   HW0      0.679100        1.0080           
    8304 A    2076 TIP4 BD1  LP0     -1.358200        0.0000           
    8305 A    2077 TIP4 O1   OW0      0.000000       15.9990           
    8306 A    2077 TIP4 H1   HW0      0.679100        1.0080           
    8307 A    2077 TIP4 H2   HW0      0.679100        1.0080           
    8308 A    2077 TIP4 BD1  LP0     -1.358200        0.0000           
    8309 A    2078 TIP4 O1   OW0      0.000000       15.9990           
    8310 A    2078 TIP4 H1   HW0      0.679100        1.0080           
    8311 A    2078 TIP4 H2   HW0      0.679100        1.0080           
    8312 A    2078 TIP4 BD1  LP0     -1.358200        0.0000           
    8313 A    2079 TIP4 O1   OW0      0.000000       15.9990           
    8314 A    2079 TIP4 H1   HW0      0.679100        1.0080           
    8315 A    2079 TIP4 H2   HW0      0.679100        1.0080           
    8316 A    2079 TIP4 BD1  LP0     -1.358200        0.0000           
    8317 A    2080 TIP4 O1   OW0      0.000000       15.9990           
    8318 A    2080 TIP4 H1   HW0      0.679100        1.0080           
    8319 A    2080 TIP4 H2   HW0      0.679100        1.0080           
    8320 A    2080 TIP4 BD1  LP0     -1.358200        0.0000           
    8321 A    2081 TIP4 O1   OW0      0.000000       15.9990           
    8322 A    2081 TIP4 H1   HW0      0.679100        1.0080           
    8323 A    2081 TIP4 H2   HW0      0.679100        1.0080           
    8324 A    2081 TIP4 BD1  LP0     -1.358200        0.0000           
    8325 A    2082 TIP4 O1   OW0      0.000000       15.9990           
    8326 A    2082 TIP4 H1   HW0      0.679100        1.0080           
    8327 A    2082 TIP4 H2   HW0      0.679100        1.0080           
    8328 A    2082 TIP4 BD1  LP0     -1.358200        0.0000           
    8329 A    2083 TIP4 O1   OW0      0.000000       15.9990           
    8330 A    2083 TIP4 H1   HW0      0.679100        1.0080           
    8331 A    2083 TIP4 H2   HW0      0.679100        1.0080           
    8332 A    2083 TIP4 BD1  LP0     -1.358200        0.0000           
    8333 A    2084 TIP4 O1   OW0      0.000000       15.9990           
    8334 A    2084 TIP4 H1   HW0      0.679100        1.0080           
    8335 A    2084 TIP4 H2   HW0      0.679100        1.0080           
    8336 A    2084 TIP4 BD1  LP0     -1.358200        0.0000           
    8337 A    2085 TIP4 O1   OW0      0.000000       15.9990           
    8338 A    2085 TIP4 H1   HW0      0.679100        1.0080           
    8339 A    2085 TIP4 H2   HW0      0.679100        1.0080           
    8340 A    2085 TIP4 BD1  LP0     -1.358200        0.0000           
    8341 A    2086 TIP4 O1   OW0      0.000000       15.9990           
    8342 A    2086 TIP4 H1   HW0      0.679100        1.0080           
    8343 A    2086 TIP4 H2   HW0      0.679100        1.0080           
    8344 A    2086 TIP4 BD1  LP0     -1.358200        0.0000           
    8345 A    2087 TIP4 O1   OW0      0.000000       15.9990           
    8346 A    2087 TIP4 H1   HW0      0.679100        1.0080           
    8347 A    2087 TIP4 H2   HW0      0.679100        1.0080           
    8348 A    2087 TIP4 BD1  LP0     -1.358200        0.0000           
    8349 A    2088 TIP4 O1   OW0      0.000000       15.9990           
    8350 A    2088 TIP4 H1   HW0      0.679100        1.0080           
    8351 A    2088 TIP4 H2   HW0      0.679100        1.0080           
    8352 A    2088 TIP4 BD1  LP0     -1.358200        0.0000           
    8353 A    2089 TIP4 O1   OW0      0.000000       15.9990           
    8354 A    2089 TIP4 H1   HW0      0.679100        1.0080           
    8355 A    2089 TIP4 H2   HW0      0.679100        1.0080           
    8356 A    2089 TIP4 BD1  LP0     -1.358200        0.0000           
    8357 A    2090 TIP4 O1   OW0      0.000000       15.9990           
    8358 A    2090 TIP4 H1   HW0      0.679100        1.0080           
    8359 A    2090 TIP4 H2   HW0      0.679100        1.0080           
    8360 A    2090 TIP4 BD1  LP0     -1.358200        0.0000           
    8361 A    2091 TIP4 O1   OW0      0.000000       15.9990           
    8362 A    2091 TIP4 H1   HW0      0.679100        1.0080           
    8363 A    2091 TIP4 H2   HW0      0.679100        1.0080           
    8364 A    2091 TIP4 BD1  LP0     -1.358200        0.0000           
    8365 A    2092 TIP4 O1   OW0      0.000000       15.9990           
    8366 A    2092 TIP4 H1   HW0      0.679100        1.0080           
    8367 A    2092 TIP4 H2   HW0      0.679100        1.0080           
    8368 A    2092 TIP4 BD1  LP0     -1.358200        0.0000           
    8369 A    2093 TIP4 O1   OW0      0.000000       15.9990           
    8370 A    2093 TIP4 H1   HW0      0.679100        1.0080           
    8371 A    2093 TIP4 H2   HW0      0.679100        1.0080           
    8372 A    2093 TIP4 BD1  LP0     -1.358200        0.0000           
    8373 A    2094 TIP4 O1   OW0      0.000000       15.9990           
    8374 A    2094 TIP4 H1   HW0      0.679100        1.0080           
    8375 A    2094 TIP4 H2   HW0      0.679100        1.0080           
    8376 A    2094 TIP4 BD1  LP0     -1.358200        0.0000           
    8377 A    2095 TIP4 O1   OW0      0.000000       15.9990           
    8378 A    2095 TIP4 H1   HW0      0.679100        1.0080           
    8379 A    2095 TIP4 H2   HW0      0.679100        1.0080           
    8380 A    2095 TIP4 BD1  LP0     -1.358200        0.0000           
    8381 A    2096 TIP4 O1   OW0      0.000000       15.9990           
    8382 A    2096 TIP4 H1   HW0      0.679100        1.0080           
    8383 A    2096 TIP4 H2   HW0      0.679100        1.0080           
    8384 A    2096 TIP4 BD1  LP0     -1.358200        0.0000           
    8385 A    2097 TIP4 O1   OW0      0.000000       15.9990           
    8386 A    2097 TIP4 H1   HW0      0.679100        1.0080           
    8387 A    2097 TIP4 H2   HW0      0.679100        1.0080           
    8388 A    2097 TIP4 BD1  LP0     -1.358200        0.0000           
    8389 A    2098 TIP4 O1   OW0      0.000000       15.9990           
    8390 A    2098 TIP4 H1   HW0      0.679100        1.0080           
    8391 A    2098 TIP4 H2   HW0      0.679100        1.0080           
    8392 A    2098 TIP4 BD1  LP0     -1.358200        0.0000           
    8393 A    2099 TIP4 O1   OW0      0.000000       15.9990           
    8394 A    2099 TIP4 H1   HW0      0.679100        1.0080           
    8395 A    2099 TIP4 H2   HW0      0.679100        1.0080           
    8396 A    2099 TIP4 BD1  LP0     -1.358200        0.0000           
    8397 A    2100 TIP4 O1   OW0      0.000000       15.9990           
    8398 A    2100 TIP4 H1   HW0      0.679100        1.0080           
    8399 A    2100 TIP4 H2   HW0      0.679100        1.0080           
    8400 A    2100 TIP4 BD1  LP0     -1.358200        0.0000           
    8401 A    2101 TIP4 O1   OW0      0.000000       15.9990           
    8402 A    2101 TIP4 H1   HW0      0.679100        1.0080           
    8403 A    2101 TIP4 H2   HW0      0.679100        1.0080           
    8404 A    2101 TIP4 BD1  LP0     -1.358200        0.0000           
    8405 A    2102 TIP4 O1   OW0      0.000000       15.9990           
    8406 A    2102 TIP4 H1   HW0      0.679100        1.0080           
    8407 A    2102 TIP4 H2   HW0      0.679100        1.0080           
    8408 A    2102 TIP4 BD1  LP0     -1.358200        0.0000           
    8409 A    2103 TIP4 O1   OW0      0.000000       15.9990           
    8410 A    2103 TIP4 H1   HW0      0.679100        1.0080           
    8411 A    2103 TIP4 H2   HW0      0.679100        1.0080           
    8412 A    2103 TIP4 BD1  LP0     -1.358200        0.0000           
    8413 A    2104 TIP4 O1   OW0      0.000000       15.9990           
    8414 A    2104 TIP4 H1   HW0      0.679100        1.0080           
    8415 A    2104 TIP4 H2   HW0      0.679100        1.0080           
    8416 A    2104 TIP4 BD1  LP0     -1.358200        0.0000           
    8417 A    2105 TIP4 O1   OW0      0.000000       15.9990           
    8418 A    2105 TIP4 H1   HW0      0.679100        1.0080           
    8419 A    2105 TIP4 H2   HW0      0.679100        1.0080           
    8420 A    2105 TIP4 BD1  LP0     -1.358200        0.0000           
    8421 A    2106 TIP4 O1   OW0      0.000000       15.9990           
    8422 A    2106 TIP4 H1   HW0      0.679100        1.0080           
    8423 A    2106 TIP4 H2   HW0      0.679100        1.0080           
    8424 A    2106 TIP4 BD1  LP0     -1.358200        0.0000           
    8425 A    2107 TIP4 O1   OW0      0.000000       15.9990           
    8426 A    2107 TIP4 H1   HW0      0.679100        1.0080           
    8427 A    2107 TIP4 H2   HW0      0.679100        1.0080           
    8428 A    2107 TIP4 BD1  LP0     -1.358200        0.0000           
    8429 A    2108 TIP4 O1   OW0      0.000000       15.9990           
    8430 A    2108 TIP4 H1   HW0      0.679100        1.0080           
    8431 A    2108 TIP4 H2   HW0      0.679100        1.0080           
    8432 A    2108 TIP4 BD1  LP0     -1.358200        0.0000           
    8433 A    2109 TIP4 O1   OW0      0.000000       15.9990           
    8434 A    2109 TIP4 H1   HW0      0.679100        1.0080           
    8435 A    2109 TIP4 H2   HW0      0.679100        1.0080           
    8436 A    2109 TIP4 BD1  LP0     -1.358200        0.0000           
    8437 A    2110 TIP4 O1   OW0      0.000000       15.9990           
    8438 A    2110 TIP4 H1   HW0      0.679100        1.0080           
    8439 A    2110 TIP4 H2   HW0      0.679100        1.0080           
    8440 A    2110 TIP4 BD1  LP0     -1.358200        0.0000           
    8441 A    2111 TIP4 O1   OW0      0.000000       15.9990           
    8442 A    2111 TIP4 H1   HW0      0.679100        1.0080           
    8443 A    2111 TIP4 H2   HW0      0.679100        1.0080           
    8444 A    2111 TIP4 BD1  LP0     -1.358200        0.0000           
    8445 A    2112 TIP4 O1   OW0      0.000000       15.9990           
    8446 A    2112 TIP4 H1   HW0      0.679100        1.0080           
    8447 A    2112 TIP4 H2   HW0      0.679100        1.0080           
    8448 A    2112 TIP4 BD1  LP0     -1.358200        0.0000           
    8449 A    2113 TIP4 O1   OW0      0.000000       15.9990           
    8450 A    2113 TIP4 H1   HW0      0.679100        1.0080           
    8451 A    2113 TIP4 H2   HW0      0.679100        1.0080           
    8452 A    2113 TIP4 BD1  LP0     -1.358200        0.0000           
    8453 A    2114 TIP4 O1   OW0      0.000000       15.9990           
    8454 A    2114 TIP4 H1   HW0      0.679100        1.0080           
    8455 A    2114 TIP4 H2   HW0      0.679100        1.0080           
    8456 A    2114 TIP4 BD1  LP0     -1.358200        0.0000           
    8457 A    2115 TIP4 O1   OW0      0.000000       15.9990           
    8458 A    2115 TIP4 H1   HW0      0.679100        1.0080           
    8459 A    2115 TIP4 H2   HW0      0.679100        1.0080           
    8460 A    2115 TIP4 BD1  LP0     -1.358200        0.0000           
    8461 A    2116 TIP4 O1   OW0      0.000000       15.9990           
    8462 A    2116 TIP4 H1   HW0      0.679100        1.0080           
    8463 A    2116 TIP4 H2   HW0      0.679100        1.0080           
    8464 A    2116 TIP4 BD1  LP0     -1.358200        0.0000           
    8465 A    2117 TIP4 O1   OW0      0.000000       15.9990           
    8466 A    2117 TIP4 H1   HW0      0.679100        1.0080           
    8467 A    2117 TIP4 H2   HW0      0.679100        1.0080           
    8468 A    2117 TIP4 BD1  LP0     -1.358200        0.0000           
    8469 A    2118 TIP4 O1   OW0      0.000000       15.9990           
    8470 A    2118 TIP4 H1   HW0      0.679100        1.0080           
    8471 A    2118 TIP4 H2   HW0      0.679100        1.0080           
    8472 A    2118 TIP4 BD1  LP0     -1.358200        0.0000           
    8473 A    2119 TIP4 O1   OW0      0.000000       15.9990           
    8474 A    2119 TIP4 H1   HW0      0.679100        1.0080           
    8475 A    2119 TIP4 H2   HW0      0.679100        1.0080           
    8476 A    2119 TIP4 BD1  LP0     -1.358200        0.0000           
    8477 A    2120 TIP4 O1   OW0      0.000000       15.9990           
    8478 A    2120 TIP4 H1   HW0      0.679100        1.0080           
    8479 A    2120 TIP4 H2   HW0      0.679100        1.0080           
    8480 A    2120 TIP4 BD1  LP0     -1.358200        0.0000           
    8481 A    2121 TIP4 O1   OW0      0.000000       15.9990           
    8482 A    2121 TIP4 H1   HW0      0.679100        1.0080           
    8483 A    2121 TIP4 H2   HW0      0.679100        1.0080           
    8484 A    2121 TIP4 BD1  LP0     -1.358200        0.0000           
    8485 A    2122 TIP4 O1   OW0      0.000000       15.9990           
    8486 A    2122 TIP4 H1   HW0      0.679100        1.0080           
    8487 A    2122 TIP4 H2   HW0      0.679100        1.0080           
    8488 A    2122 TIP4 BD1  LP0     -1.358200        0.0000           
    8489 A    2123 TIP4 O1   OW0      0.000000       15.9990           
    8490 A    2123 TIP4 H1   HW0      0.679100        1.0080           
    8491 A    2123 TIP4 H2   HW0      0.679100        1.0080           
    8492 A    2123 TIP4 BD1  LP0     -1.358200        0.0000           
    8493 A    2124 TIP4 O1   OW0      0.000000       15.9990           
    8494 A    2124 TIP4 H1   HW0      0.679100        1.0080           
    8495 A    2124 TIP4 H2   HW0      0.679100        1.0080           
    8496 A    2124 TIP4 BD1  LP0     -1.358200        0.0000           
    8497 A    2125 TIP4 O1   OW0      0.000000       15.9990           
    8498 A    2125 TIP4 H1   HW0      0.679100        1.0080           
    8499 A    2125 TIP4 H2   HW0      0.679100        1.0080           
    8500 A    2125 TIP4 BD1  LP0     -1.358200        0.0000           
    8501 A    2126 TIP4 O1   OW0      0.000000       15.9990           
    8502 A    2126 TIP4 H1   HW0      0.679100        1.0080           
    8503 A    2126 TIP4 H2   HW0      0.679100        1.0080           
    8504 A    2126 TIP4 BD1  LP0     -1.358200        0.0000           
    8505 A    2127 TIP4 O1   OW0      0.000000       15.9990           
    8506 A    2127 TIP4 H1   HW0      0.679100        1.0080           
    8507 A    2127 TIP4 H2   HW0      0.679100        1.0080           
    8508 A    2127 TIP4 BD1  LP0     -1.358200        0.0000           
    8509 A    2128 TIP4 O1   OW0      0.000000       15.9990           
    8510 A    2128 TIP4 H1   HW0      0.679100        1.0080           
    8511 A    2128 TIP4 H2   HW0      0.679100        1.0080           
    8512 A    2128 TIP4 BD1  LP0     -1.358200        0.0000           
    8513 A    2129 TIP4 O1   OW0      0.000000       15.9990           
    8514 A    2129 TIP4 H1   HW0      0.679100        1.0080           
    8515 A    2129 TIP4 H2   HW0      0.679100        1.0080           
    8516 A    2129 TIP4 BD1  LP0     -1.358200        0.0000           
    8517 A    2130 TIP4 O1   OW0      0.000000       15.9990           
    8518 A    2130 TIP4 H1   HW0      0.679100        1.0080           
    8519 A    2130 TIP4 H2   HW0      0.679100        1.0080           
    8520 A    2130 TIP4 BD1  LP0     -1.358200        0.0000           
    8521 A    2131 TIP4 O1   OW0      0.000000       15.9990           
    8522 A    2131 TIP4 H1   HW0      0.679100        1.0080           
    8523 A    2131 TIP4 H2   HW0      0.679100        1.0080           
    8524 A    2131 TIP4 BD1  LP0     -1.358200        0.0000           
    8525 A    2132 TIP4 O1   OW0      0.000000       15.9990           
    8526 A    2132 TIP4 H1   HW0      0.679100        1.0080           
    8527 A    2132 TIP4 H2   HW0      0.679100        1.0080           
    8528 A    2132 TIP4 BD1  LP0     -1.358200        0.0000           
    8529 A    2133 TIP4 O1   OW0      0.000000       15.9990           
    8530 A    2133 TIP4 H1   HW0      0.679100        1.0080           
    8531 A    2133 TIP4 H2   HW0      0.679100        1.0080           
    8532 A    2133 TIP4 BD1  LP0     -1.358200        0.0000           
    8533 A    2134 TIP4 O1   OW0      0.000000       15.9990           
    8534 A    2134 TIP4 H1   HW0      0.679100        1.0080           
    8535 A    2134 TIP4 H2   HW0      0.679100        1.0080           
    8536 A    2134 TIP4 BD1  LP0     -1.358200        0.0000           
    8537 A    2135 TIP4 O1   OW0      0.000000       15.9990           
    8538 A    2135 TIP4 H1   HW0      0.679100        1.0080           
    8539 A    2135 TIP4 H2   HW0      0.679100        1.0080           
    8540 A    2135 TIP4 BD1  LP0     -1.358200        0.0000           
    8541 A    2136 TIP4 O1   OW0      0.000000       15.9990           
    8542 A    2136 TIP4 H1   HW0      0.679100        1.0080           
    8543 A    2136 TIP4 H2   HW0      0.679100        1.0080           
    8544 A    2136 TIP4 BD1  LP0     -1.358200        0.0000           
    8545 A    2137 TIP4 O1   OW0      0.000000       15.9990           
    8546 A    2137 TIP4 H1   HW0      0.679100        1.0080           
    8547 A    2137 TIP4 H2   HW0      0.679100        1.0080           
    8548 A    2137 TIP4 BD1  LP0     -1.358200        0.0000           
    8549 A    2138 TIP4 O1   OW0      0.000000       15.9990           
    8550 A    2138 TIP4 H1   HW0      0.679100        1.0080           
    8551 A    2138 TIP4 H2   HW0      0.679100        1.0080           
    8552 A    2138 TIP4 BD1  LP0     -1.358200        0.0000           
    8553 A    2139 TIP4 O1   OW0      0.000000       15.9990           
    8554 A    2139 TIP4 H1   HW0      0.679100        1.0080           
    8555 A    2139 TIP4 H2   HW0      0.679100        1.0080           
    8556 A    2139 TIP4 BD1  LP0     -1.358200        0.0000           
    8557 A    2140 TIP4 O1   OW0      0.000000       15.9990           
    8558 A    2140 TIP4 H1   HW0      0.679100        1.0080           
    8559 A    2140 TIP4 H2   HW0      0.679100        1.0080           
    8560 A    2140 TIP4 BD1  LP0     -1.358200        0.0000           
    8561 A    2141 TIP4 O1   OW0      0.000000       15.9990           
    8562 A    2141 TIP4 H1   HW0      0.679100        1.0080           
    8563 A    2141 TIP4 H2   HW0      0.679100        1.0080           
    8564 A    2141 TIP4 BD1  LP0     -1.358200        0.0000           
    8565 A    2142 TIP4 O1   OW0      0.000000       15.9990           
    8566 A    2142 TIP4 H1   HW0      0.679100        1.0080           
    8567 A    2142 TIP4 H2   HW0      0.679100        1.0080           
    8568 A    2142 TIP4 BD1  LP0     -1.358200        0.0000           
    8569 A    2143 TIP4 O1   OW0      0.000000       15.9990           
    8570 A    2143 TIP4 H1   HW0      0.679100        1.0080           
    8571 A    2143 TIP4 H2   HW0      0.679100        1.0080           
    8572 A    2143 TIP4 BD1  LP0     -1.358200        0.0000           
    8573 A    2144 TIP4 O1   OW0      0.000000       15.9990           
    8574 A    2144 TIP4 H1   HW0      0.679100        1.0080           
    8575 A    2144 TIP4 H2   HW0      0.679100        1.0080           
    8576 A    2144 TIP4 BD1  LP0     -1.358200        0.0000           
    8577 A    2145 TIP4 O1   OW0      0.000000       15.9990           
    8578 A    2145 TIP4 H1   HW0      0.679100        1.0080           
    8579 A    2145 TIP4 H2   HW0      0.679100        1.0080           
    8580 A    2145 TIP4 BD1  LP0     -1.358200        0.0000           
    8581 A    2146 TIP4 O1   OW0      0.000000       15.9990           
    8582 A    2146 TIP4 H1   HW0      0.679100        1.0080           
    8583 A    2146 TIP4 H2   HW0      0.679100        1.0080           
    8584 A    2146 TIP4 BD1  LP0     -1.358200        0.0000           
    8585 A    2147 TIP4 O1   OW0      0.000000       15.9990           
    8586 A    2147 TIP4 H1   HW0      0.679100        1.0080           
    8587 A    2147 TIP4 H2   HW0      0.679100        1.0080           
    8588 A    2147 TIP4 BD1  LP0     -1.358200        0.0000           
    8589 A    2148 TIP4 O1   OW0      0.000000       15.9990           
    8590 A    2148 TIP4 H1   HW0      0.679100        1.0080           
    8591 A    2148 TIP4 H2   HW0      0.679100        1.0080           
    8592 A    2148 TIP4 BD1  LP0     -1.358200        0.0000           
    8593 A    2149 TIP4 O1   OW0      0.000000       15.9990           
    8594 A    2149 TIP4 H1   HW0      0.679100        1.0080           
    8595 A    2149 TIP4 H2   HW0      0.679100        1.0080           
    8596 A    2149 TIP4 BD1  LP0     -1.358200        0.0000           
    8597 A    2150 TIP4 O1   OW0      0.000000       15.9990           
    8598 A    2150 TIP4 H1   HW0      0.679100        1.0080           
    8599 A    2150 TIP4 H2   HW0      0.679100        1.0080           
    8600 A    2150 TIP4 BD1  LP0     -1.358200        0.0000           
    8601 A    2151 TIP4 O1   OW0      0.000000       15.9990           
    8602 A    2151 TIP4 H1   HW0      0.679100        1.0080           
    8603 A    2151 TIP4 H2   HW0      0.679100        1.0080           
    8604 A    2151 TIP4 BD1  LP0     -1.358200        0.0000           
    8605 A    2152 TIP4 O1   OW0      0.000000       15.9990           
    8606 A    2152 TIP4 H1   HW0      0.679100        1.0080           
    8607 A    2152 TIP4 H2   HW0      0.679100        1.0080           
    8608 A    2152 TIP4 BD1  LP0     -1.358200        0.0000           
    8609 A    2153 TIP4 O1   OW0      0.000000       15.9990           
    8610 A    2153 TIP4 H1   HW0      0.679100        1.0080           
    8611 A    2153 TIP4 H2   HW0      0.679100        1.0080           
    8612 A    2153 TIP4 BD1  LP0     -1.358200        0.0000           
    8613 A    2154 TIP4 O1   OW0      0.000000       15.9990           
    8614 A    2154 TIP4 H1   HW0      0.679100        1.0080           
    8615 A    2154 TIP4 H2   HW0      0.679100        1.0080           
    8616 A    2154 TIP4 BD1  LP0     -1.358200        0.0000           
    8617 A    2155 TIP4 O1   OW0      0.000000       15.9990           
    8618 A    2155 TIP4 H1   HW0      0.679100        1.0080           
    8619 A    2155 TIP4 H2   HW0      0.679100        1.0080           
    8620 A    2155 TIP4 BD1  LP0     -1.358200        0.0000           
    8621 A    2156 TIP4 O1   OW0      0.000000       15.9990           
    8622 A    2156 TIP4 H1   HW0      0.679100        1.0080           
    8623 A    2156 TIP4 H2   HW0      0.679100        1.0080           
    8624 A    2156 TIP4 BD1  LP0     -1.358200        0.0000           
    8625 A    2157 TIP4 O1   OW0      0.000000       15.9990           
    8626 A    2157 TIP4 H1   HW0      0.679100        1.0080           
    8627 A    2157 TIP4 H2   HW0      0.679100        1.0080           
    8628 A    2157 TIP4 BD1  LP0     -1.358200        0.0000           
    8629 A    2158 TIP4 O1   OW0      0.000000       15.9990           
    8630 A    2158 TIP4 H1   HW0      0.679100        1.0080           
    8631 A    2158 TIP4 H2   HW0      0.679100        1.0080           
    8632 A    2158 TIP4 BD1  LP0     -1.358200        0.0000           
    8633 A    2159 TIP4 O1   OW0      0.000000       15.9990           
    8634 A    2159 TIP4 H1   HW0      0.679100        1.0080           
    8635 A    2159 TIP4 H2   HW0      0.679100        1.0080           
    8636 A    2159 TIP4 BD1  LP0     -1.358200        0.0000           
    8637 A    2160 TIP4 O1   OW0      0.000000       15.9990           
    8638 A    2160 TIP4 H1   HW0      0.679100        1.0080           
    8639 A    2160 TIP4 H2   HW0      0.679100        1.0080           
    8640 A    2160 TIP4 BD1  LP0     -1.358200        0.0000           
    8641 A    2161 TIP4 O1   OW0      0.000000       15.9990           
    8642 A    2161 TIP4 H1   HW0      0.679100        1.0080           
    8643 A    2161 TIP4 H2   HW0      0.679100        1.0080           
    8644 A    2161 TIP4 BD1  LP0     -1.358200        0.0000           
    8645 A    2162 TIP4 O1   OW0      0.000000       15.9990           
    8646 A    2162 TIP4 H1   HW0      0.679100        1.0080           
    8647 A    2162 TIP4 H2   HW0      0.679100        1.0080           
    8648 A    2162 TIP4 BD1  LP0     -1.358200        0.0000           
    8649 A    2163 TIP4 O1   OW0      0.000000       15.9990           
    8650 A    2163 TIP4 H1   HW0      0.679100        1.0080           
    8651 A    2163 TIP4 H2   HW0      0.679100        1.0080           
    8652 A    2163 TIP4 BD1  LP0     -1.358200        0.0000           
    8653 A    2164 TIP4 O1   OW0      0.000000       15.9990           
    8654 A    2164 TIP4 H1   HW0      0.679100        1.0080           
    8655 A    2164 TIP4 H2   HW0      0.679100        1.0080           
    8656 A    2164 TIP4 BD1  LP0     -1.358200        0.0000           
    8657 A    2165 TIP4 O1   OW0      0.000000       15.9990           
    8658 A    2165 TIP4 H1   HW0      0.679100        1.0080           
    8659 A    2165 TIP4 H2   HW0      0.679100        1.0080           
    8660 A    2165 TIP4 BD1  LP0     -1.358200        0.0000           
    8661 A    2166 TIP4 O1   OW0      0.000000       15.9990           
    8662 A    2166 TIP4 H1   HW0      0.679100        1.0080           
    8663 A    2166 TIP4 H2   HW0      0.679100        1.0080           
    8664 A    2166 TIP4 BD1  LP0     -1.358200        0.0000           
    8665 A    2167 TIP4 O1   OW0      0.000000       15.9990           
    8666 A    2167 TIP4 H1   HW0      0.679100        1.0080           
    8667 A    2167 TIP4 H2   HW0      0.679100        1.0080           
    8668 A    2167 TIP4 BD1  LP0     -1.358200        0.0000           
    8669 A    2168 TIP4 O1   OW0      0.000000       15.9990           
    8670 A    2168 TIP4 H1   HW0      0.679100        1.0080           
    8671 A    2168 TIP4 H2   HW0      0.679100        1.0080           
    8672 A    2168 TIP4 BD1  LP0     -1.358200        0.0000           
    8673 A    2169 TIP4 O1   OW0      0.000000       15.9990           
    8674 A    2169 TIP4 H1   HW0      0.679100        1.0080           
    8675 A    2169 TIP4 H2   HW0      0.679100        1.0080           
    8676 A    2169 TIP4 BD1  LP0     -1.358200        0.0000           
    8677 A    2170 TIP4 O1   OW0      0.000000       15.9990           
    8678 A    2170 TIP4 H1   HW0      0.679100        1.0080           
    8679 A    2170 TIP4 H2   HW0      0.679100        1.0080           
    8680 A    2170 TIP4 BD1  LP0     -1.358200        0.0000           
    8681 A    2171 TIP4 O1   OW0      0.000000       15.9990           
    8682 A    2171 TIP4 H1   HW0      0.679100        1.0080           
    8683 A    2171 TIP4 H2   HW0      0.679100        1.0080           
    8684 A    2171 TIP4 BD1  LP0     -1.358200        0.0000           
    8685 A    2172 TIP4 O1   OW0      0.000000       15.9990           
    8686 A    2172 TIP4 H1   HW0      0.679100        1.0080           
    8687 A    2172 TIP4 H2   HW0      0.679100        1.0080           
    8688 A    2172 TIP4 BD1  LP0     -1.358200        0.0000           
    8689 A    2173 TIP4 O1   OW0      0.000000       15.9990           
    8690 A    2173 TIP4 H1   HW0      0.679100        1.0080           
    8691 A    2173 TIP4 H2   HW0      0.679100        1.0080           
    8692 A    2173 TIP4 BD1  LP0     -1.358200        0.0000           
    8693 A    2174 TIP4 O1   OW0      0.000000       15.9990           
    8694 A    2174 TIP4 H1   HW0      0.679100        1.0080           
    8695 A    2174 TIP4 H2   HW0      0.679100        1.0080           
    8696 A    2174 TIP4 BD1  LP0     -1.358200        0.0000           
    8697 A    2175 TIP4 O1   OW0      0.000000       15.9990           
    8698 A    2175 TIP4 H1   HW0      0.679100        1.0080           
    8699 A    2175 TIP4 H2   HW0      0.679100        1.0080           
    8700 A    2175 TIP4 BD1  LP0     -1.358200        0.0000           
    8701 A    2176 TIP4 O1   OW0      0.000000       15.9990           
    8702 A    2176 TIP4 H1   HW0      0.679100        1.0080           
    8703 A    2176 TIP4 H2   HW0      0.679100        1.0080           
    8704 A    2176 TIP4 BD1  LP0     -1.358200        0.0000           
    8705 A    2177 TIP4 O1   OW0      0.000000       15.9990           
    8706 A    2177 TIP4 H1   HW0      0.679100        1.0080           
    8707 A    2177 TIP4 H2   HW0      0.679100        1.0080           
    8708 A    2177 TIP4 BD1  LP0     -1.358200        0.0000           
    8709 A    2178 TIP4 O1   OW0      0.000000       15.9990           
    8710 A    2178 TIP4 H1   HW0      0.679100        1.0080           
    8711 A    2178 TIP4 H2   HW0      0.679100        1.0080           
    8712 A    2178 TIP4 BD1  LP0     -1.358200        0.0000           
    8713 A    2179 TIP4 O1   OW0      0.000000       15.9990           
    8714 A    2179 TIP4 H1   HW0      0.679100        1.0080           
    8715 A    2179 TIP4 H2   HW0      0.679100        1.0080           
    8716 A    2179 TIP4 BD1  LP0     -1.358200        0.0000           
    8717 A    2180 TIP4 O1   OW0      0.000000       15.9990           
    8718 A    2180 TIP4 H1   HW0      0.679100        1.0080           
    8719 A    2180 TIP4 H2   HW0      0.679100        1.0080           
    8720 A    2180 TIP4 BD1  LP0     -1.358200        0.0000           
    8721 A    2181 TIP4 O1   OW0      0.000000       15.9990           
    8722 A    2181 TIP4 H1   HW0      0.679100        1.0080           
    8723 A    2181 TIP4 H2   HW0      0.679100        1.0080           
    8724 A    2181 TIP4 BD1  LP0     -1.358200        0.0000           
    8725 A    2182 TIP4 O1   OW0      0.000000       15.9990           
    8726 A    2182 TIP4 H1   HW0      0.679100        1.0080           
    8727 A    2182 TIP4 H2   HW0      0.679100        1.0080           
    8728 A    2182 TIP4 BD1  LP0     -1.358200        0.0000           
    8729 A    2183 TIP4 O1   OW0      0.000000       15.9990           
    8730 A    2183 TIP4 H1   HW0      0.679100        1.0080           
    8731 A    2183 TIP4 H2   HW0      0.679100        1.0080           
    8732 A    2183 TIP4 BD1  LP0     -1.358200        0.0000           
    8733 A    2184 TIP4 O1   OW0      0.000000       15.9990           
    8734 A    2184 TIP4 H1   HW0      0.679100        1.0080           
    8735 A    2184 TIP4 H2   HW0      0.679100        1.0080           
    8736 A    2184 TIP4 BD1  LP0     -1.358200        0.0000           
    8737 A    2185 TIP4 O1   OW0      0.000000       15.9990           
    8738 A    2185 TIP4 H1   HW0      0.679100        1.0080           
    8739 A    2185 TIP4 H2   HW0      0.679100        1.0080           
    8740 A    2185 TIP4 BD1  LP0     -1.358200        0.0000           
    8741 A    2186 TIP4 O1   OW0      0.000000       15.9990           
    8742 A    2186 TIP4 H1   HW0      0.679100        1.0080           
    8743 A    2186 TIP4 H2   HW0      0.679100        1.0080           
    8744 A    2186 TIP4 BD1  LP0     -1.358200        0.0000           
    8745 A    2187 TIP4 O1   OW0      0.000000       15.9990           
    8746 A    2187 TIP4 H1   HW0      0.679100        1.0080           
    8747 A    2187 TIP4 H2   HW0      0.679100        1.0080           
    8748 A    2187 TIP4 BD1  LP0     -1.358200        0.0000           
    8749 A    2188 TIP4 O1   OW0      0.000000       15.9990           
    8750 A    2188 TIP4 H1   HW0      0.679100        1.0080           
    8751 A    2188 TIP4 H2   HW0      0.679100        1.0080           
    8752 A    2188 TIP4 BD1  LP0     -1.358200        0.0000           
    8753 A    2189 TIP4 O1   OW0      0.000000       15.9990           
    8754 A    2189 TIP4 H1   HW0      0.679100        1.0080           
    8755 A    2189 TIP4 H2   HW0      0.679100        1.0080           
    8756 A    2189 TIP4 BD1  LP0     -1.358200        0.0000           
    8757 A    2190 TIP4 O1   OW0      0.000000       15.9990           
    8758 A    2190 TIP4 H1   HW0      0.679100        1.0080           
    8759 A    2190 TIP4 H2   HW0      0.679100        1.0080           
    8760 A    2190 TIP4 BD1  LP0     -1.358200        0.0000           
    8761 A    2191 TIP4 O1   OW0      0.000000       15.9990           
    8762 A    2191 TIP4 H1   HW0      0.679100        1.0080           
    8763 A    2191 TIP4 H2   HW0      0.679100        1.0080           
    8764 A    2191 TIP4 BD1  LP0     -1.358200        0.0000           
    8765 A    2192 TIP4 O1   OW0      0.000000       15.9990           
    8766 A    2192 TIP4 H1   HW0      0.679100        1.0080           
    8767 A    2192 TIP4 H2   HW0      0.679100        1.0080           
    8768 A    2192 TIP4 BD1  LP0     -1.358200        0.0000           
    8769 A    2193 TIP4 O1   OW0      0.000000       15.9990           
    8770 A    2193 TIP4 H1   HW0      0.679100        1.0080           
    8771 A    2193 TIP4 H2   HW0      0.679100        1.0080           
    8772 A    2193 TIP4 BD1  LP0     -1.358200        0.0000           
    8773 A    2194 TIP4 O1   OW0      0.000000       15.9990           
    8774 A    2194 TIP4 H1   HW0      0.679100        1.0080           
    8775 A    2194 TIP4 H2   HW0      0.679100        1.0080           
    8776 A    2194 TIP4 BD1  LP0     -1.358200        0.0000           
    8777 A    2195 TIP4 O1   OW0      0.000000       15.9990           
    8778 A    2195 TIP4 H1   HW0      0.679100        1.0080           
    8779 A    2195 TIP4 H2   HW0      0.679100        1.0080           
    8780 A    2195 TIP4 BD1  LP0     -1.358200        0.0000           
    8781 A    2196 TIP4 O1   OW0      0.000000       15.9990           
    8782 A    2196 TIP4 H1   HW0      0.679100        1.0080           
    8783 A    2196 TIP4 H2   HW0      0.679100        1.0080           
    8784 A    2196 TIP4 BD1  LP0     -1.358200        0.0000           
    8785 A    2197 TIP4 O1   OW0      0.000000       15.9990           
    8786 A    2197 TIP4 H1   HW0      0.679100        1.0080           
    8787 A    2197 TIP4 H2   HW0      0.679100        1.0080           
    8788 A    2197 TIP4 BD1  LP0     -1.358200        0.0000           
    8789 A    2198 TIP4 O1   OW0      0.000000       15.9990           
    8790 A    2198 TIP4 H1   HW0      0.679100        1.0080           
    8791 A    2198 TIP4 H2   HW0      0.679100        1.0080           
    8792 A    2198 TIP4 BD1  LP0     -1.358200        0.0000           
    8793 A    2199 TIP4 O1   OW0      0.000000       15.9990           
    8794 A    2199 TIP4 H1   HW0      0.679100        1.0080           
    8795 A    2199 TIP4 H2   HW0      0.679100        1.0080           
    8796 A    2199 TIP4 BD1  LP0     -1.358200        0.0000           
    8797 A    2200 TIP4 O1   OW0      0.000000       15.9990           
    8798 A    2200 TIP4 H1   HW0      0.679100        1.0080           
    8799 A    2200 TIP4 H2   HW0      0.679100        1.0080           
    8800 A    2200 TIP4 BD1  LP0     -1.358200        0.0000           
    8801 A    2201 TIP4 O1   OW0      0.000000       15.9990           
    8802 A    2201 TIP4 H1   HW0      0.679100        1.0080           
    8803 A    2201 TIP4 H2   HW0      0.679100        1.0080           
    8804 A    2201 TIP4 BD1  LP0     -1.358200        0.0000           
    8805 A    2202 TIP4 O1   OW0      0.000000       15.9990           
    8806 A    2202 TIP4 H1   HW0      0.679100        1.0080           
    8807 A    2202 TIP4 H2   HW0      0.679100        1.0080           
    8808 A    2202 TIP4 BD1  LP0     -1.358200        0.0000           
    8809 A    2203 TIP4 O1   OW0      0.000000       15.9990           
    8810 A    2203 TIP4 H1   HW0      0.679100        1.0080           
    8811 A    2203 TIP4 H2   HW0      0.679100        1.0080           
    8812 A    2203 TIP4 BD1  LP0     -1.358200        0.0000           
    8813 A    2204 TIP4 O1   OW0      0.000000       15.9990           
    8814 A    2204 TIP4 H1   HW0      0.679100        1.0080           
    8815 A    2204 TIP4 H2   HW0      0.679100        1.0080           
    8816 A    2204 TIP4 BD1  LP0     -1.358200        0.0000           
    8817 A    2205 TIP4 O1   OW0      0.000000       15.9990           
    8818 A    2205 TIP4 H1   HW0      0.679100        1.0080           
    8819 A    2205 TIP4 H2   HW0      0.679100        1.0080           
    8820 A    2205 TIP4 BD1  LP0     -1.358200        0.0000           
    8821 A    2206 TIP4 O1   OW0      0.000000       15.9990           
    8822 A    2206 TIP4 H1   HW0      0.679100        1.0080           
    8823 A    2206 TIP4 H2   HW0      0.679100        1.0080           
    8824 A    2206 TIP4 BD1  LP0     -1.358200        0.0000           
    8825 A    2207 TIP4 O1   OW0      0.000000       15.9990           
    8826 A    2207 TIP4 H1   HW0      0.679100        1.0080           
    8827 A    2207 TIP4 H2   HW0      0.679100        1.0080           
    8828 A    2207 TIP4 BD1  LP0     -1.358200        0.0000           
    8829 A    2208 TIP4 O1   OW0      0.000000       15.9990           
    8830 A    2208 TIP4 H1   HW0      0.679100        1.0080           
    8831 A    2208 TIP4 H2   HW0      0.679100        1.0080           
    8832 A    2208 TIP4 BD1  LP0     -1.358200        0.0000           
    8833 A    2209 TIP4 O1   OW0      0.000000       15.9990           
    8834 A    2209 TIP4 H1   HW0      0.679100        1.0080           
    8835 A    2209 TIP4 H2   HW0      0.679100        1.0080           
    8836 A    2209 TIP4 BD1  LP0     -1.358200        0.0000           
    8837 A    2210 TIP4 O1   OW0      0.000000       15.9990           
    8838 A    2210 TIP4 H1   HW0      0.679100        1.0080           
    8839 A    2210 TIP4 H2   HW0      0.679100        1.0080           
    8840 A    2210 TIP4 BD1  LP0     -1.358200        0.0000           
    8841 A    2211 TIP4 O1   OW0      0.000000       15.9990           
    8842 A    2211 TIP4 H1   HW0      0.679100        1.0080           
    8843 A    2211 TIP4 H2   HW0      0.679100        1.0080           
    8844 A    2211 TIP4 BD1  LP0     -1.358200        0.0000           
    8845 A    2212 TIP4 O1   OW0      0.000000       15.9990           
    8846 A    2212 TIP4 H1   HW0      0.679100        1.0080           
    8847 A    2212 TIP4 H2   HW0      0.679100        1.0080           
    8848 A    2212 TIP4 BD1  LP0     -1.358200        0.0000           
    8849 A    2213 TIP4 O1   OW0      0.000000       15.9990           
    8850 A    2213 TIP4 H1   HW0      0.679100        1.0080           
    8851 A    2213 TIP4 H2   HW0      0.679100        1.0080           
    8852 A    2213 TIP4 BD1  LP0     -1.358200        0.0000           
    8853 A    2214 TIP4 O1   OW0      0.000000       15.9990           
    8854 A    2214 TIP4 H1   HW0      0.679100        1.0080           
    8855 A    2214 TIP4 H2   HW0      0.679100        1.0080           
    8856 A    2214 TIP4 BD1  LP0     -1.358200        0.0000           
    8857 A    2215 TIP4 O1   OW0      0.000000       15.9990           
    8858 A    2215 TIP4 H1   HW0      0.679100        1.0080           
    8859 A    2215 TIP4 H2   HW0      0.679100        1.0080           
    8860 A    2215 TIP4 BD1  LP0     -1.358200        0.0000           
    8861 A    2216 TIP4 O1   OW0      0.000000       15.9990           
    8862 A    2216 TIP4 H1   HW0      0.679100        1.0080           
    8863 A    2216 TIP4 H2   HW0      0.679100        1.0080           
    8864 A    2216 TIP4 BD1  LP0     -1.358200        0.0000           
    8865 A    2217 TIP4 O1   OW0      0.000000       15.9990           
    8866 A    2217 TIP4 H1   HW0      0.679100        1.0080           
    8867 A    2217 TIP4 H2   HW0      0.679100        1.0080           
    8868 A    2217 TIP4 BD1  LP0     -1.358200        0.0000           
    8869 A    2218 TIP4 O1   OW0      0.000000       15.9990           
    8870 A    2218 TIP4 H1   HW0      0.679100        1.0080           
    8871 A    2218 TIP4 H2   HW0      0.679100        1.0080           
    8872 A    2218 TIP4 BD1  LP0     -1.358200        0.0000           
    8873 A    2219 TIP4 O1   OW0      0.000000       15.9990           
    8874 A    2219 TIP4 H1   HW0      0.679100        1.0080           
    8875 A    2219 TIP4 H2   HW0      0.679100        1.0080           
    8876 A    2219 TIP4 BD1  LP0     -1.358200        0.0000           
    8877 A    2220 TIP4 O1   OW0      0.000000       15.9990           
    8878 A    2220 TIP4 H1   HW0      0.679100        1.0080           
    8879 A    2220 TIP4 H2   HW0      0.679100        1.0080           
    8880 A    2220 TIP4 BD1  LP0     -1.358200        0.0000           
    8881 A    2221 TIP4 O1   OW0      0.000000       15.9990           
    8882 A    2221 TIP4 H1   HW0      0.679100        1.0080           
    8883 A    2221 TIP4 H2   HW0      0.679100        1.0080           
    8884 A    2221 TIP4 BD1  LP0     -1.358200        0.0000           
    8885 A    2222 TIP4 O1   OW0      0.000000       15.9990           
    8886 A    2222 TIP4 H1   HW0      0.679100        1.0080           
    8887 A    2222 TIP4 H2   HW0      0.679100        1.0080           
    8888 A    2222 TIP4 BD1  LP0     -1.358200        0.0000           
    8889 A    2223 TIP4 O1   OW0      0.000000       15.9990           
    8890 A    2223 TIP4 H1   HW0      0.679100        1.0080           
    8891 A    2223 TIP4 H2   HW0      0.679100        1.0080           
    8892 A    2223 TIP4 BD1  LP0     -1.358200        0.0000           
    8893 A    2224 TIP4 O1   OW0      0.000000       15.9990           
    8894 A    2224 TIP4 H1   HW0      0.679100        1.0080           
    8895 A    2224 TIP4 H2   HW0      0.679100        1.0080           
    8896 A    2224 TIP4 BD1  LP0     -1.358200        0.0000           
    8897 A    2225 TIP4 O1   OW0      0.000000       15.9990           
    8898 A    2225 TIP4 H1   HW0      0.679100        1.0080           
    8899 A    2225 TIP4 H2   HW0      0.679100        1.0080           
    8900 A    2225 TIP4 BD1  LP0     -1.358200        0.0000           
    8901 A    2226 TIP4 O1   OW0      0.000000       15.9990           
    8902 A    2226 TIP4 H1   HW0      0.679100        1.0080           
    8903 A    2226 TIP4 H2   HW0      0.679100        1.0080           
    8904 A    2226 TIP4 BD1  LP0     -1.358200        0.0000           
    8905 A    2227 TIP4 O1   OW0      0.000000       15.9990           
    8906 A    2227 TIP4 H1   HW0      0.679100        1.0080           
    8907 A    2227 TIP4 H2   HW0      0.679100        1.0080           
    8908 A    2227 TIP4 BD1  LP0     -1.358200        0.0000           
    8909 A    2228 TIP4 O1   OW0      0.000000       15.9990           
    8910 A    2228 TIP4 H1   HW0      0.679100        1.0080           
    8911 A    2228 TIP4 H2   HW0      0.679100        1.0080           
    8912 A    2228 TIP4 BD1  LP0     -1.358200        0.0000           
    8913 A    2229 TIP4 O1   OW0      0.000000       15.9990           
    8914 A    2229 TIP4 H1   HW0      0.679100        1.0080           
    8915 A    2229 TIP4 H2   HW0      0.679100        1.0080           
    8916 A    2229 TIP4 BD1  LP0     -1.358200        0.0000           
    8917 A    2230 TIP4 O1   OW0      0.000000       15.9990           
    8918 A    2230 TIP4 H1   HW0      0.679100        1.0080           
    8919 A    2230 TIP4 H2   HW0      0.679100        1.0080           
    8920 A    2230 TIP4 BD1  LP0     -1.358200        0.0000           
    8921 A    2231 TIP4 O1   OW0      0.000000       15.9990           
    8922 A    2231 TIP4 H1   HW0      0.679100        1.0080           
    8923 A    2231 TIP4 H2   HW0      0.679100        1.0080           
    8924 A    2231 TIP4 BD1  LP0     -1.358200        0.0000           
    8925 A    2232 TIP4 O1   OW0      0.000000       15.9990           
    8926 A    2232 TIP4 H1   HW0      0.679100        1.0080           
    8927 A    2232 TIP4 H2   HW0      0.679100        1.0080           
    8928 A    2232 TIP4 BD1  LP0     -1.358200        0.0000           
    8929 A    2233 TIP4 O1   OW0      0.000000       15.9990           
    8930 A    2233 TIP4 H1   HW0      0.679100        1.0080           
    8931 A    2233 TIP4 H2   HW0      0.679100        1.0080           
    8932 A    2233 TIP4 BD1  LP0     -1.358200        0.0000           
    8933 A    2234 TIP4 O1   OW0      0.000000       15.9990           
    8934 A    2234 TIP4 H1   HW0      0.679100        1.0080           
    8935 A    2234 TIP4 H2   HW0      0.679100        1.0080           
    8936 A    2234 TIP4 BD1  LP0     -1.358200        0.0000           
    8937 A    2235 TIP4 O1   OW0      0.000000       15.9990           
    8938 A    2235 TIP4 H1   HW0      0.679100        1.0080           
    8939 A    2235 TIP4 H2   HW0      0.679100        1.0080           
    8940 A    2235 TIP4 BD1  LP0     -1.358200        0.0000           
    8941 A    2236 TIP4 O1   OW0      0.000000       15.9990           
    8942 A    2236 TIP4 H1   HW0      0.679100        1.0080           
    8943 A    2236 TIP4 H2   HW0      0.679100        1.0080           
    8944 A    2236 TIP4 BD1  LP0     -1.358200        0.0000           
    8945 A    2237 TIP4 O1   OW0      0.000000       15.9990           
    8946 A    2237 TIP4 H1   HW0      0.679100        1.0080           
    8947 A    2237 TIP4 H2   HW0      0.679100        1.0080           
    8948 A    2237 TIP4 BD1  LP0     -1.358200        0.0000           
    8949 A    2238 TIP4 O1   OW0      0.000000       15.9990           
    8950 A    2238 TIP4 H1   HW0      0.679100        1.0080           
    8951 A    2238 TIP4 H2   HW0      0.679100        1.0080           
    8952 A    2238 TIP4 BD1  LP0     -1.358200        0.0000           
    8953 A    2239 TIP4 O1   OW0      0.000000       15.9990           
    8954 A    2239 TIP4 H1   HW0      0.679100        1.0080           
    8955 A    2239 TIP4 H2   HW0      0.679100        1.0080           
    8956 A    2239 TIP4 BD1  LP0     -1.358200        0.0000           
    8957 A    2240 TIP4 O1   OW0      0.000000       15.9990           
    8958 A    2240 TIP4 H1   HW0      0.679100        1.0080           
    8959 A    2240 TIP4 H2   HW0      0.679100        1.0080           
    8960 A    2240 TIP4 BD1  LP0     -1.358200        0.0000           
    8961 A    2241 TIP4 O1   OW0      0.000000       15.9990           
    8962 A    2241 TIP4 H1   HW0      0.679100        1.0080           
    8963 A    2241 TIP4 H2   HW0      0.679100        1.0080           
    8964 A    2241 TIP4 BD1  LP0     -1.358200        0.0000           
    8965 A    2242 TIP4 O1   OW0      0.000000       15.9990           
    8966 A    2242 TIP4 H1   HW0      0.679100        1.0080           
    8967 A    2242 TIP4 H2   HW0      0.679100        1.0080           
    8968 A    2242 TIP4 BD1  LP0     -1.358200        0.0000           
    8969 A    2243 TIP4 O1   OW0      0.000000       15.9990           
    8970 A    2243 TIP4 H1   HW0      0.679100        1.0080           
    8971 A    2243 TIP4 H2   HW0      0.679100        1.0080           
    8972 A    2243 TIP4 BD1  LP0     -1.358200        0.0000           
    8973 A    2244 TIP4 O1   OW0      0.000000       15.9990           
    8974 A    2244 TIP4 H1   HW0      0.679100        1.0080           
    8975 A    2244 TIP4 H2   HW0      0.679100        1.0080           
    8976 A    2244 TIP4 BD1  LP0     -1.358200        0.0000           
    8977 A    2245 TIP4 O1   OW0      0.000000       15.9990           
    8978 A    2245 TIP4 H1   HW0      0.679100        1.0080           
    8979 A    2245 TIP4 H2   HW0      0.679100        1.0080           
    8980 A    2245 TIP4 BD1  LP0     -1.358200        0.0000           
    8981 A    2246 TIP4 O1   OW0      0.000000       15.9990           
    8982 A    2246 TIP4 H1   HW0      0.679100        1.0080           
    8983 A    2246 TIP4 H2   HW0      0.679100        1.0080           
    8984 A    2246 TIP4 BD1  LP0     -1.358200        0.0000           
    8985 A    2247 TIP4 O1   OW0      0.000000       15.9990           
    8986 A    2247 TIP4 H1   HW0      0.679100        1.0080           
    8987 A    2247 TIP4 H2   HW0      0.679100        1.0080           
    8988 A    2247 TIP4 BD1  LP0     -1.358200        0.0000           
    8989 A    2248 TIP4 O1   OW0      0.000000       15.9990           
    8990 A    2248 TIP4 H1   HW0      0.679100        1.0080           
    8991 A    2248 TIP4 H2   HW0      0.679100        1.0080           
    8992 A    2248 TIP4 BD1  LP0     -1.358200        0.0000           
    8993 A    2249 TIP4 O1   OW0      0.000000       15.9990           
    8994 A    2249 TIP4 H1   HW0      0.679100        1.0080           
    8995 A    2249 TIP4 H2   HW0      0.679100        1.0080           
    8996 A    2249 TIP4 BD1  LP0     -1.358200        0.0000           
    8997 A    2250 TIP4 O1   OW0      0.000000       15.9990           
    8998 A    2250 TIP4 H1   HW0      0.679100        1.0080           
    8999 A    2250 TIP4 H2   HW0      0.679100        1.0080           
    9000 A    2250 TIP4 BD1  LP0     -1.358200        0.0000           
    9001 A    2251 TIP4 O1   OW0      0.000000       15.9990           
    9002 A    2251 TIP4 H1   HW0      0.679100        1.0080           
    9003 A    2251 TIP4 H2   HW0      0.679100        1.0080           
    9004 A    2251 TIP4 BD1  LP0     -1.358200        0.0000           
    9005 A    2252 TIP4 O1   OW0      0.000000       15.9990           
    9006 A    2252 TIP4 H1   HW0      0.679100        1.0080           
    9007 A    2252 TIP4 H2   HW0      0.679100        1.0080           
    9008 A    2252 TIP4 BD1  LP0     -1.358200        0.0000           
    9009 A    2253 TIP4 O1   OW0      0.000000       15.9990           
    9010 A    2253 TIP4 H1   HW0      0.679100        1.0080           
    9011 A    2253 TIP4 H2   HW0      0.679100        1.0080           
    9012 A    2253 TIP4 BD1  LP0     -1.358200        0.0000           
    9013 A    2254 TIP4 O1   OW0      0.000000       15.9990           
    9014 A    2254 TIP4 H1   HW0      0.679100        1.0080           
    9015 A    2254 TIP4 H2   HW0      0.679100        1.0080           
    9016 A    2254 TIP4 BD1  LP0     -1.358200        0.0000           
    9017 A    2255 TIP4 O1   OW0      0.000000       15.9990           
    9018 A    2255 TIP4 H1   HW0      0.679100        1.0080           
    9019 A    2255 TIP4 H2   HW0      0.679100        1.0080           
    9020 A    2255 TIP4 BD1  LP0     -1.358200        0.0000           
    9021 A    2256 TIP4 O1   OW0      0.000000       15.9990           
    9022 A    2256 TIP4 H1   HW0      0.679100        1.0080           
    9023 A    2256 TIP4 H2   HW0      0.679100        1.0080           
    9024 A    2256 TIP4 BD1  LP0     -1.358200        0.0000           
    9025 A    2257 TIP4 O1   OW0      0.000000       15.9990           
    9026 A    2257 TIP4 H1   HW0      0.679100        1.0080           
    9027 A    2257 TIP4 H2   HW0      0.679100        1.0080           
    9028 A    2257 TIP4 BD1  LP0     -1.358200        0.0000           
    9029 A    2258 TIP4 O1   OW0      0.000000       15.9990           
    9030 A    2258 TIP4 H1   HW0      0.679100        1.0080           
    9031 A    2258 TIP4 H2   HW0      0.679100        1.0080           
    9032 A    2258 TIP4 BD1  LP0     -1.358200        0.0000           
    9033 A    2259 TIP4 O1   OW0      0.000000       15.9990           
    9034 A    2259 TIP4 H1   HW0      0.679100        1.0080           
    9035 A    2259 TIP4 H2   HW0      0.679100        1.0080           
    9036 A    2259 TIP4 BD1  LP0     -1.358200        0.0000           
    9037 A    2260 TIP4 O1   OW0      0.000000       15.9990           
    9038 A    2260 TIP4 H1   HW0      0.679100        1.0080           
    9039 A    2260 TIP4 H2   HW0      0.679100        1.0080           
    9040 A    2260 TIP4 BD1  LP0     -1.358200        0.0000           
    9041 A    2261 TIP4 O1   OW0      0.000000       15.9990           
    9042 A    2261 TIP4 H1   HW0      0.679100        1.0080           
    9043 A    2261 TIP4 H2   HW0      0.679100        1.0080           
    9044 A    2261 TIP4 BD1  LP0     -1.358200        0.0000           
    9045 A    2262 TIP4 O1   OW0      0.000000       15.9990           
    9046 A    2262 TIP4 H1   HW0      0.679100        1.0080           
    9047 A    2262 TIP4 H2   HW0      0.679100        1.0080           
    9048 A    2262 TIP4 BD1  LP0     -1.358200        0.0000           
    9049 A    2263 TIP4 O1   OW0      0.000000       15.9990           
    9050 A    2263 TIP4 H1   HW0      0.679100        1.0080           
    9051 A    2263 TIP4 H2   HW0      0.679100        1.0080           
    9052 A    2263 TIP4 BD1  LP0     -1.358200        0.0000           
    9053 A    2264 TIP4 O1   OW0      0.000000       15.9990           
    9054 A    2264 TIP4 H1   HW0      0.679100        1.0080           
    9055 A    2264 TIP4 H2   HW0      0.679100        1.0080           
    9056 A    2264 TIP4 BD1  LP0     -1.358200        0.0000           
    9057 A    2265 TIP4 O1   OW0      0.000000       15.9990           
    9058 A    2265 TIP4 H1   HW0      0.679100        1.0080           
    9059 A    2265 TIP4 H2   HW0      0.679100        1.0080           
    9060 A    2265 TIP4 BD1  LP0     -1.358200        0.0000           
    9061 A    2266 TIP4 O1   OW0      0.000000       15.9990           
    9062 A    2266 TIP4 H1   HW0      0.679100        1.0080           
    9063 A    2266 TIP4 H2   HW0      0.679100        1.0080           
    9064 A    2266 TIP4 BD1  LP0     -1.358200        0.0000           
    9065 A    2267 TIP4 O1   OW0      0.000000       15.9990           
    9066 A    2267 TIP4 H1   HW0      0.679100        1.0080           
    9067 A    2267 TIP4 H2   HW0      0.679100        1.0080           
    9068 A    2267 TIP4 BD1  LP0     -1.358200        0.0000           
    9069 A    2268 TIP4 O1   OW0      0.000000       15.9990           
    9070 A    2268 TIP4 H1   HW0      0.679100        1.0080           
    9071 A    2268 TIP4 H2   HW0      0.679100        1.0080           
    9072 A    2268 TIP4 BD1  LP0     -1.358200        0.0000           
    9073 A    2269 TIP4 O1   OW0      0.000000       15.9990           
    9074 A    2269 TIP4 H1   HW0      0.679100        1.0080           
    9075 A    2269 TIP4 H2   HW0      0.679100        1.0080           
    9076 A    2269 TIP4 BD1  LP0     -1.358200        0.0000           
    9077 A    2270 TIP4 O1   OW0      0.000000       15.9990           
    9078 A    2270 TIP4 H1   HW0      0.679100        1.0080           
    9079 A    2270 TIP4 H2   HW0      0.679100        1.0080           
    9080 A    2270 TIP4 BD1  LP0     -1.358200        0.0000           
    9081 A    2271 TIP4 O1   OW0      0.000000       15.9990           
    9082 A    2271 TIP4 H1   HW0      0.679100        1.0080           
    9083 A    2271 TIP4 H2   HW0      0.679100        1.0080           
    9084 A    2271 TIP4 BD1  LP0     -1.358200        0.0000           
    9085 A    2272 TIP4 O1   OW0      0.000000       15.9990           
    9086 A    2272 TIP4 H1   HW0      0.679100        1.0080           
    9087 A    2272 TIP4 H2   HW0      0.679100        1.0080           
    9088 A    2272 TIP4 BD1  LP0     -1.358200        0.0000           
    9089 A    2273 TIP4 O1   OW0      0.000000       15.9990           
    9090 A    2273 TIP4 H1   HW0      0.679100        1.0080           
    9091 A    2273 TIP4 H2   HW0      0.679100        1.0080           
    9092 A    2273 TIP4 BD1  LP0     -1.358200        0.0000           
    9093 A    2274 TIP4 O1   OW0      0.000000       15.9990           
    9094 A    2274 TIP4 H1   HW0      0.679100        1.0080           
    9095 A    2274 TIP4 H2   HW0      0.679100        1.0080           
    9096 A    2274 TIP4 BD1  LP0     -1.358200        0.0000           
    9097 A    2275 TIP4 O1   OW0      0.000000       15.9990           
    9098 A    2275 TIP4 H1   HW0      0.679100        1.0080           
    9099 A    2275 TIP4 H2   HW0      0.679100        1.0080           
    9100 A    2275 TIP4 BD1  LP0     -1.358200        0.0000           
    9101 A    2276 TIP4 O1   OW0      0.000000       15.9990           
    9102 A    2276 TIP4 H1   HW0      0.679100        1.0080           
    9103 A    2276 TIP4 H2   HW0      0.679100        1.0080           
    9104 A    2276 TIP4 BD1  LP0     -1.358200        0.0000           
    9105 A    2277 TIP4 O1   OW0      0.000000       15.9990           
    9106 A    2277 TIP4 H1   HW0      0.679100        1.0080           
    9107 A    2277 TIP4 H2   HW0      0.679100        1.0080           
    9108 A    2277 TIP4 BD1  LP0     -1.358200        0.0000           
    9109 A    2278 TIP4 O1   OW0      0.000000       15.9990           
    9110 A    2278 TIP4 H1   HW0      0.679100        1.0080           
    9111 A    2278 TIP4 H2   HW0      0.679100        1.0080           
    9112 A    2278 TIP4 BD1  LP0     -1.358200        0.0000           
    9113 A    2279 TIP4 O1   OW0      0.000000       15.9990           
    9114 A    2279 TIP4 H1   HW0      0.679100        1.0080           
    9115 A    2279 TIP4 H2   HW0      0.679100        1.0080           
    9116 A    2279 TIP4 BD1  LP0     -1.358200        0.0000           
    9117 A    2280 TIP4 O1   OW0      0.000000       15.9990           
    9118 A    2280 TIP4 H1   HW0      0.679100        1.0080           
    9119 A    2280 TIP4 H2   HW0      0.679100        1.0080           
    9120 A    2280 TIP4 BD1  LP0     -1.358200        0.0000           
    9121 A    2281 TIP4 O1   OW0      0.000000       15.9990           
    9122 A    2281 TIP4 H1   HW0      0.679100        1.0080           
    9123 A    2281 TIP4 H2   HW0      0.679100        1.0080           
    9124 A    2281 TIP4 BD1  LP0     -1.358200        0.0000           
    9125 A    2282 TIP4 O1   OW0      0.000000       15.9990           
    9126 A    2282 TIP4 H1   HW0      0.679100        1.0080           
    9127 A    2282 TIP4 H2   HW0      0.679100        1.0080           
    9128 A    2282 TIP4 BD1  LP0     -1.358200        0.0000           
    9129 A    2283 TIP4 O1   OW0      0.000000       15.9990           
    9130 A    2283 TIP4 H1   HW0      0.679100        1.0080           
    9131 A    2283 TIP4 H2   HW0      0.679100        1.0080           
    9132 A    2283 TIP4 BD1  LP0     -1.358200        0.0000           
    9133 A    2284 TIP4 O1   OW0      0.000000       15.9990           
    9134 A    2284 TIP4 H1   HW0      0.679100        1.0080           
    9135 A    2284 TIP4 H2   HW0      0.679100        1.0080           
    9136 A    2284 TIP4 BD1  LP0     -1.358200        0.0000           
    9137 A    2285 TIP4 O1   OW0      0.000000       15.9990           
    9138 A    2285 TIP4 H1   HW0      0.679100        1.0080           
    9139 A    2285 TIP4 H2   HW0      0.679100        1.0080           
    9140 A    2285 TIP4 BD1  LP0     -1.358200        0.0000           
    9141 A    2286 TIP4 O1   OW0      0.000000       15.9990           
    9142 A    2286 TIP4 H1   HW0      0.679100        1.0080           
    9143 A    2286 TIP4 H2   HW0      0.679100        1.0080           
    9144 A    2286 TIP4 BD1  LP0     -1.358200        0.0000           
    9145 A    2287 TIP4 O1   OW0      0.000000       15.9990           
    9146 A    2287 TIP4 H1   HW0      0.679100        1.0080           
    9147 A    2287 TIP4 H2   HW0      0.679100        1.0080           
    9148 A    2287 TIP4 BD1  LP0     -1.358200        0.0000           
    9149 A    2288 TIP4 O1   OW0      0.000000       15.9990           
    9150 A    2288 TIP4 H1   HW0      0.679100        1.0080           
    9151 A    2288 TIP4 H2   HW0      0.679100        1.0080           
    9152 A    2288 TIP4 BD1  LP0     -1.358200        0.0000           
    9153 A    2289 TIP4 O1   OW0      0.000000       15.9990           
    9154 A    2289 TIP4 H1   HW0      0.679100        1.0080           
    9155 A    2289 TIP4 H2   HW0      0.679100        1.0080           
    9156 A    2289 TIP4 BD1  LP0     -1.358200        0.0000           
    9157 A    2290 TIP4 O1   OW0      0.000000       15.9990           
    9158 A    2290 TIP4 H1   HW0      0.679100        1.0080           
    9159 A    2290 TIP4 H2   HW0      0.679100        1.0080           
    9160 A    2290 TIP4 BD1  LP0     -1.358200        0.0000           
    9161 A    2291 TIP4 O1   OW0      0.000000       15.9990           
    9162 A    2291 TIP4 H1   HW0      0.679100        1.0080           
    9163 A    2291 TIP4 H2   HW0      0.679100        1.0080           
    9164 A    2291 TIP4 BD1  LP0     -1.358200        0.0000           
    9165 A    2292 TIP4 O1   OW0      0.000000       15.9990           
    9166 A    2292 TIP4 H1   HW0      0.679100        1.0080           
    9167 A    2292 TIP4 H2   HW0      0.679100        1.0080           
    9168 A    2292 TIP4 BD1  LP0     -1.358200        0.0000           
    9169 A    2293 TIP4 O1   OW0      0.000000       15.9990           
    9170 A    2293 TIP4 H1   HW0      0.679100        1.0080           
    9171 A    2293 TIP4 H2   HW0      0.679100        1.0080           
    9172 A    2293 TIP4 BD1  LP0     -1.358200        0.0000           
    9173 A    2294 TIP4 O1   OW0      0.000000       15.9990           
    9174 A    2294 TIP4 H1   HW0      0.679100        1.0080           
    9175 A    2294 TIP4 H2   HW0      0.679100        1.0080           
    9176 A    2294 TIP4 BD1  LP0     -1.358200        0.0000           
    9177 A    2295 TIP4 O1   OW0      0.000000       15.9990           
    9178 A    2295 TIP4 H1   HW0      0.679100        1.0080           
    9179 A    2295 TIP4 H2   HW0      0.679100        1.0080           
    9180 A    2295 TIP4 BD1  LP0     -1.358200        0.0000           
    9181 A    2296 TIP4 O1   OW0      0.000000       15.9990           
    9182 A    2296 TIP4 H1   HW0      0.679100        1.0080           
    9183 A    2296 TIP4 H2   HW0      0.679100        1.0080           
    9184 A    2296 TIP4 BD1  LP0     -1.358200        0.0000           
    9185 A    2297 TIP4 O1   OW0      0.000000       15.9990           
    9186 A    2297 TIP4 H1   HW0      0.679100        1.0080           
    9187 A    2297 TIP4 H2   HW0      0.679100        1.0080           
    9188 A    2297 TIP4 BD1  LP0     -1.358200        0.0000           
    9189 A    2298 TIP4 O1   OW0      0.000000       15.9990           
    9190 A    2298 TIP4 H1   HW0      0.679100        1.0080           
    9191 A    2298 TIP4 H2   HW0      0.679100        1.0080           
    9192 A    2298 TIP4 BD1  LP0     -1.358200        0.0000           
    9193 A    2299 TIP4 O1   OW0      0.000000       15.9990           
    9194 A    2299 TIP4 H1   HW0      0.679100        1.0080           
    9195 A    2299 TIP4 H2   HW0      0.679100        1.0080           
    9196 A    2299 TIP4 BD1  LP0     -1.358200        0.0000           
    9197 A    2300 TIP4 O1   OW0      0.000000       15.9990           
    9198 A    2300 TIP4 H1   HW0      0.679100        1.0080           
    9199 A    2300 TIP4 H2   HW0      0.679100        1.0080           
    9200 A    2300 TIP4 BD1  LP0     -1.358200        0.0000           
    9201 A    2301 TIP4 O1   OW0      0.000000       15.9990           
    9202 A    2301 TIP4 H1   HW0      0.679100        1.0080           
    9203 A    2301 TIP4 H2   HW0      0.679100        1.0080           
    9204 A    2301 TIP4 BD1  LP0     -1.358200        0.0000           
    9205 A    2302 TIP4 O1   OW0      0.000000       15.9990           
    9206 A    2302 TIP4 H1   HW0      0.679100        1.0080           
    9207 A    2302 TIP4 H2   HW0      0.679100        1.0080           
    9208 A    2302 TIP4 BD1  LP0     -1.358200        0.0000           
    9209 A    2303 TIP4 O1   OW0      0.000000       15.9990           
    9210 A    2303 TIP4 H1   HW0      0.679100        1.0080           
    9211 A    2303 TIP4 H2   HW0      0.679100        1.0080           
    9212 A    2303 TIP4 BD1  LP0     -1.358200        0.0000           
    9213 A    2304 TIP4 O1   OW0      0.000000       15.9990           
    9214 A    2304 TIP4 H1   HW0      0.679100        1.0080           
    9215 A    2304 TIP4 H2   HW0      0.679100        1.0080           
    9216 A    2304 TIP4 BD1  LP0     -1.358200        0.0000           
    9217 A    2305 TIP4 O1   OW0      0.000000       15.9990           
    9218 A    2305 TIP4 H1   HW0      0.679100        1.0080           
    9219 A    2305 TIP4 H2   HW0      0.679100        1.0080           
    9220 A    2305 TIP4 BD1  LP0     -1.358200        0.0000           
    9221 A    2306 TIP4 O1   OW0      0.000000       15.9990           
    9222 A    2306 TIP4 H1   HW0      0.679100        1.0080           
    9223 A    2306 TIP4 H2   HW0      0.679100        1.0080           
    9224 A    2306 TIP4 BD1  LP0     -1.358200        0.0000           
    9225 A    2307 TIP4 O1   OW0      0.000000       15.9990           
    9226 A    2307 TIP4 H1   HW0      0.679100        1.0080           
    9227 A    2307 TIP4 H2   HW0      0.679100        1.0080           
    9228 A    2307 TIP4 BD1  LP0     -1.358200        0.0000           
    9229 A    2308 TIP4 O1   OW0      0.000000       15.9990           
    9230 A    2308 TIP4 H1   HW0      0.679100        1.0080           
    9231 A    2308 TIP4 H2   HW0      0.679100        1.0080           
    9232 A    2308 TIP4 BD1  LP0     -1.358200        0.0000           
    9233 A    2309 TIP4 O1   OW0      0.000000       15.9990           
    9234 A    2309 TIP4 H1   HW0      0.679100        1.0080           
    9235 A    2309 TIP4 H2   HW0      0.679100        1.0080           
    9236 A    2309 TIP4 BD1  LP0     -1.358200        0.0000           
    9237 A    2310 TIP4 O1   OW0      0.000000       15.9990           
    9238 A    2310 TIP4 H1   HW0      0.679100        1.0080           
    9239 A    2310 TIP4 H2   HW0      0.679100        1.0080           
    9240 A    2310 TIP4 BD1  LP0     -1.358200        0.0000           
    9241 A    2311 TIP4 O1   OW0      0.000000       15.9990           
    9242 A    2311 TIP4 H1   HW0      0.679100        1.0080           
    9243 A    2311 TIP4 H2   HW0      0.679100        1.0080           
    9244 A    2311 TIP4 BD1  LP0     -1.358200        0.0000           
    9245 A    2312 TIP4 O1   OW0      0.000000       15.9990           
    9246 A    2312 TIP4 H1   HW0      0.679100        1.0080           
    9247 A    2312 TIP4 H2   HW0      0.679100        1.0080           
    9248 A    2312 TIP4 BD1  LP0     -1.358200        0.0000           
    9249 A    2313 TIP4 O1   OW0      0.000000       15.9990           
    9250 A    2313 TIP4 H1   HW0      0.679100        1.0080           
    9251 A    2313 TIP4 H2   HW0      0.679100        1.0080           
    9252 A    2313 TIP4 BD1  LP0     -1.358200        0.0000           
    9253 A    2314 TIP4 O1   OW0      0.000000       15.9990           
    9254 A    2314 TIP4 H1   HW0      0.679100        1.0080           
    9255 A    2314 TIP4 H2   HW0      0.679100        1.0080           
    9256 A    2314 TIP4 BD1  LP0     -1.358200        0.0000           
    9257 A    2315 TIP4 O1   OW0      0.000000       15.9990           
    9258 A    2315 TIP4 H1   HW0      0.679100        1.0080           
    9259 A    2315 TIP4 H2   HW0      0.679100        1.0080           
    9260 A    2315 TIP4 BD1  LP0     -1.358200        0.0000           
    9261 A    2316 TIP4 O1   OW0      0.000000       15.9990           
    9262 A    2316 TIP4 H1   HW0      0.679100        1.0080           
    9263 A    2316 TIP4 H2   HW0      0.679100        1.0080           
    9264 A    2316 TIP4 BD1  LP0     -1.358200        0.0000           
    9265 A    2317 TIP4 O1   OW0      0.000000       15.9990           
    9266 A    2317 TIP4 H1   HW0      0.679100        1.0080           
    9267 A    2317 TIP4 H2   HW0      0.679100        1.0080           
    9268 A    2317 TIP4 BD1  LP0     -1.358200        0.0000           
    9269 A    2318 TIP4 O1   OW0      0.000000       15.9990           
    9270 A    2318 TIP4 H1   HW0      0.679100        1.0080           
    9271 A    2318 TIP4 H2   HW0      0.679100        1.0080           
    9272 A    2318 TIP4 BD1  LP0     -1.358200        0.0000           
    9273 A    2319 TIP4 O1   OW0      0.000000       15.9990           
    9274 A    2319 TIP4 H1   HW0      0.679100        1.0080           
    9275 A    2319 TIP4 H2   HW0      0.679100        1.0080           
    9276 A    2319 TIP4 BD1  LP0     -1.358200        0.0000           
    9277 A    2320 TIP4 O1   OW0      0.000000       15.9990           
    9278 A    2320 TIP4 H1   HW0      0.679100        1.0080           
    9279 A    2320 TIP4 H2   HW0      0.679100        1.0080           
    9280 A    2320 TIP4 BD1  LP0     -1.358200        0.0000           
    9281 A    2321 TIP4 O1   OW0      0.000000       15.9990           
    9282 A    2321 TIP4 H1   HW0      0.679100        1.0080           
    9283 A    2321 TIP4 H2   HW0      0.679100        1.0080           
    9284 A    2321 TIP4 BD1  LP0     -1.358200        0.0000           
    9285 A    2322 TIP4 O1   OW0      0.000000       15.9990           
    9286 A    2322 TIP4 H1   HW0      0.679100        1.0080           
    9287 A    2322 TIP4 H2   HW0      0.679100        1.0080           
    9288 A    2322 TIP4 BD1  LP0     -1.358200        0.0000           
    9289 A    2323 TIP4 O1   OW0      0.000000       15.9990           
    9290 A    2323 TIP4 H1   HW0      0.679100        1.0080           
    9291 A    2323 TIP4 H2   HW0      0.679100        1.0080           
    9292 A    2323 TIP4 BD1  LP0     -1.358200        0.0000           
    9293 A    2324 TIP4 O1   OW0      0.000000       15.9990           
    9294 A    2324 TIP4 H1   HW0      0.679100        1.0080           
    9295 A    2324 TIP4 H2   HW0      0.679100        1.0080           
    9296 A    2324 TIP4 BD1  LP0     -1.358200        0.0000           
    9297 A    2325 TIP4 O1   OW0      0.000000       15.9990           
    9298 A    2325 TIP4 H1   HW0      0.679100        1.0080           
    9299 A    2325 TIP4 H2   HW0      0.679100        1.0080           
    9300 A    2325 TIP4 BD1  LP0     -1.358200        0.0000           
    9301 A    2326 TIP4 O1   OW0      0.000000       15.9990           
    9302 A    2326 TIP4 H1   HW0      0.679100        1.0080           
    9303 A    2326 TIP4 H2   HW0      0.679100        1.0080           
    9304 A    2326 TIP4 BD1  LP0     -1.358200        0.0000           
    9305 A    2327 TIP4 O1   OW0      0.000000       15.9990           
    9306 A    2327 TIP4 H1   HW0      0.679100        1.0080           
    9307 A    2327 TIP4 H2   HW0      0.679100        1.0080           
    9308 A    2327 TIP4 BD1  LP0     -1.358200        0.0000           
    9309 A    2328 TIP4 O1   OW0      0.000000       15.9990           
    9310 A    2328 TIP4 H1   HW0      0.679100        1.0080           
    9311 A    2328 TIP4 H2   HW0      0.679100        1.0080           
    9312 A    2328 TIP4 BD1  LP0     -1.358200        0.0000           
    9313 A    2329 TIP4 O1   OW0      0.000000       15.9990           
    9314 A    2329 TIP4 H1   HW0      0.679100        1.0080           
    9315 A    2329 TIP4 H2   HW0      0.679100        1.0080           
    9316 A    2329 TIP4 BD1  LP0     -1.358200        0.0000           
    9317 A    2330 TIP4 O1   OW0      0.000000       15.9990           
    9318 A    2330 TIP4 H1   HW0      0.679100        1.0080           
    9319 A    2330 TIP4 H2   HW0      0.679100        1.0080           
    9320 A    2330 TIP4 BD1  LP0     -1.358200        0.0000           
    9321 A    2331 TIP4 O1   OW0      0.000000       15.9990           
    9322 A    2331 TIP4 H1   HW0      0.679100        1.0080           
    9323 A    2331 TIP4 H2   HW0      0.679100        1.0080           
    9324 A    2331 TIP4 BD1  LP0     -1.358200        0.0000           
    9325 A    2332 TIP4 O1   OW0      0.000000       15.9990           
    9326 A    2332 TIP4 H1   HW0      0.679100        1.0080           
    9327 A    2332 TIP4 H2   HW0      0.679100        1.0080           
    9328 A    2332 TIP4 BD1  LP0     -1.358200        0.0000           
    9329 A    2333 TIP4 O1   OW0      0.000000       15.9990           
    9330 A    2333 TIP4 H1   HW0      0.679100        1.0080           
    9331 A    2333 TIP4 H2   HW0      0.679100        1.0080           
    9332 A    2333 TIP4 BD1  LP0     -1.358200        0.0000           
    9333 A    2334 TIP4 O1   OW0      0.000000       15.9990           
    9334 A    2334 TIP4 H1   HW0      0.679100        1.0080           
    9335 A    2334 TIP4 H2   HW0      0.679100        1.0080           
    9336 A    2334 TIP4 BD1  LP0     -1.358200        0.0000           
    9337 A    2335 TIP4 O1   OW0      0.000000       15.9990           
    9338 A    2335 TIP4 H1   HW0      0.679100        1.0080           
    9339 A    2335 TIP4 H2   HW0      0.679100        1.0080           
    9340 A    2335 TIP4 BD1  LP0     -1.358200        0.0000           
    9341 A    2336 TIP4 O1   OW0      0.000000       15.9990           
    9342 A    2336 TIP4 H1   HW0      0.679100        1.0080           
    9343 A    2336 TIP4 H2   HW0      0.679100        1.0080           
    9344 A    2336 TIP4 BD1  LP0     -1.358200        0.0000           
    9345 A    2337 TIP4 O1   OW0      0.000000       15.9990           
    9346 A    2337 TIP4 H1   HW0      0.679100        1.0080           
    9347 A    2337 TIP4 H2   HW0      0.679100        1.0080           
    9348 A    2337 TIP4 BD1  LP0     -1.358200        0.0000           
    9349 A    2338 TIP4 O1   OW0      0.000000       15.9990           
    9350 A    2338 TIP4 H1   HW0      0.679100        1.0080           
    9351 A    2338 TIP4 H2   HW0      0.679100        1.0080           
    9352 A    2338 TIP4 BD1  LP0     -1.358200        0.0000           
    9353 A    2339 TIP4 O1   OW0      0.000000       15.9990           
    9354 A    2339 TIP4 H1   HW0      0.679100        1.0080           
    9355 A    2339 TIP4 H2   HW0      0.679100        1.0080           
    9356 A    2339 TIP4 BD1  LP0     -1.358200        0.0000           
    9357 A    2340 TIP4 O1   OW0      0.000000       15.9990           
    9358 A    2340 TIP4 H1   HW0      0.679100        1.0080           
    9359 A    2340 TIP4 H2   HW0      0.679100        1.0080           
    9360 A    2340 TIP4 BD1  LP0     -1.358200        0.0000           
    9361 A    2341 TIP4 O1   OW0      0.000000       15.9990           
    9362 A    2341 TIP4 H1   HW0      0.679100        1.0080           
    9363 A    2341 TIP4 H2   HW0      0.679100        1.0080           
    9364 A    2341 TIP4 BD1  LP0     -1.358200        0.0000           
    9365 A    2342 TIP4 O1   OW0      0.000000       15.9990           
    9366 A    2342 TIP4 H1   HW0      0.679100        1.0080           
    9367 A    2342 TIP4 H2   HW0      0.679100        1.0080           
    9368 A    2342 TIP4 BD1  LP0     -1.358200        0.0000           
    9369 A    2343 TIP4 O1   OW0      0.000000       15.9990           
    9370 A    2343 TIP4 H1   HW0      0.679100        1.0080           
    9371 A    2343 TIP4 H2   HW0      0.679100        1.0080           
    9372 A    2343 TIP4 BD1  LP0     -1.358200        0.0000           
    9373 A    2344 TIP4 O1   OW0      0.000000       15.9990           
    9374 A    2344 TIP4 H1   HW0      0.679100        1.0080           
    9375 A    2344 TIP4 H2   HW0      0.679100        1.0080           
    9376 A    2344 TIP4 BD1  LP0     -1.358200        0.0000           
    9377 A    2345 TIP4 O1   OW0      0.000000       15.9990           
    9378 A    2345 TIP4 H1   HW0      0.679100        1.0080           
    9379 A    2345 TIP4 H2   HW0      0.679100        1.0080           
    9380 A    2345 TIP4 BD1  LP0     -1.358200        0.0000           
    9381 A    2346 TIP4 O1   OW0      0.000000       15.9990           
    9382 A    2346 TIP4 H1   HW0      0.679100        1.0080           
    9383 A    2346 TIP4 H2   HW0      0.679100        1.0080           
    9384 A    2346 TIP4 BD1  LP0     -1.358200        0.0000           
    9385 A    2347 TIP4 O1   OW0      0.000000       15.9990           
    9386 A    2347 TIP4 H1   HW0      0.679100        1.0080           
    9387 A    2347 TIP4 H2   HW0      0.679100        1.0080           
    9388 A    2347 TIP4 BD1  LP0     -1.358200        0.0000           
    9389 A    2348 TIP4 O1   OW0      0.000000       15.9990           
    9390 A    2348 TIP4 H1   HW0      0.679100        1.0080           
    9391 A    2348 TIP4 H2   HW0      0.679100        1.0080           
    9392 A    2348 TIP4 BD1  LP0     -1.358200        0.0000           
    9393 A    2349 TIP4 O1   OW0      0.000000       15.9990           
    9394 A    2349 TIP4 H1   HW0      0.679100        1.0080           
    9395 A    2349 TIP4 H2   HW0      0.679100        1.0080           
    9396 A    2349 TIP4 BD1  LP0     -1.358200        0.0000           
    9397 A    2350 TIP4 O1   OW0      0.000000       15.9990           
    9398 A    2350 TIP4 H1   HW0      0.679100        1.0080           
    9399 A    2350 TIP4 H2   HW0      0.679100        1.0080           
    9400 A    2350 TIP4 BD1  LP0     -1.358200        0.0000           
    9401 A    2351 TIP4 O1   OW0      0.000000       15.9990           
    9402 A    2351 TIP4 H1   HW0      0.679100        1.0080           
    9403 A    2351 TIP4 H2   HW0      0.679100        1.0080           
    9404 A    2351 TIP4 BD1  LP0     -1.358200        0.0000           
    9405 A    2352 TIP4 O1   OW0      0.000000       15.9990           
    9406 A    2352 TIP4 H1   HW0      0.679100        1.0080           
    9407 A    2352 TIP4 H2   HW0      0.679100        1.0080           
    9408 A    2352 TIP4 BD1  LP0     -1.358200        0.0000           
    9409 A    2353 TIP4 O1   OW0      0.000000       15.9990           
    9410 A    2353 TIP4 H1   HW0      0.679100        1.0080           
    9411 A    2353 TIP4 H2   HW0      0.679100        1.0080           
    9412 A    2353 TIP4 BD1  LP0     -1.358200        0.0000           
    9413 A    2354 TIP4 O1   OW0      0.000000       15.9990           
    9414 A    2354 TIP4 H1   HW0      0.679100        1.0080           
    9415 A    2354 TIP4 H2   HW0      0.679100        1.0080           
    9416 A    2354 TIP4 BD1  LP0     -1.358200        0.0000           
    9417 A    2355 TIP4 O1   OW0      0.000000       15.9990           
    9418 A    2355 TIP4 H1   HW0      0.679100        1.0080           
    9419 A    2355 TIP4 H2   HW0      0.679100        1.0080           
    9420 A    2355 TIP4 BD1  LP0     -1.358200        0.0000           
    9421 A    2356 TIP4 O1   OW0      0.000000       15.9990           
    9422 A    2356 TIP4 H1   HW0      0.679100        1.0080           
    9423 A    2356 TIP4 H2   HW0      0.679100        1.0080           
    9424 A    2356 TIP4 BD1  LP0     -1.358200        0.0000           
    9425 A    2357 TIP4 O1   OW0      0.000000       15.9990           
    9426 A    2357 TIP4 H1   HW0      0.679100        1.0080           
    9427 A    2357 TIP4 H2   HW0      0.679100        1.0080           
    9428 A    2357 TIP4 BD1  LP0     -1.358200        0.0000           
    9429 A    2358 TIP4 O1   OW0      0.000000       15.9990           
    9430 A    2358 TIP4 H1   HW0      0.679100        1.0080           
    9431 A    2358 TIP4 H2   HW0      0.679100        1.0080           
    9432 A    2358 TIP4 BD1  LP0     -1.358200        0.0000           
    9433 A    2359 TIP4 O1   OW0      0.000000       15.9990           
    9434 A    2359 TIP4 H1   HW0      0.679100        1.0080           
    9435 A    2359 TIP4 H2   HW0      0.679100        1.0080           
    9436 A    2359 TIP4 BD1  LP0     -1.358200        0.0000           
    9437 A    2360 TIP4 O1   OW0      0.000000       15.9990           
    9438 A    2360 TIP4 H1   HW0      0.679100        1.0080           
    9439 A    2360 TIP4 H2   HW0      0.679100        1.0080           
    9440 A    2360 TIP4 BD1  LP0     -1.358200        0.0000           
    9441 A    2361 TIP4 O1   OW0      0.000000       15.9990           
    9442 A    2361 TIP4 H1   HW0      0.679100        1.0080           
    9443 A    2361 TIP4 H2   HW0      0.679100        1.0080           
    9444 A    2361 TIP4 BD1  LP0     -1.358200        0.0000           
    9445 A    2362 TIP4 O1   OW0      0.000000       15.9990           
    9446 A    2362 TIP4 H1   HW0      0.679100        1.0080           
    9447 A    2362 TIP4 H2   HW0      0.679100        1.0080           
    9448 A    2362 TIP4 BD1  LP0     -1.358200        0.0000           
    9449 A    2363 TIP4 O1   OW0      0.000000       15.9990           
    9450 A    2363 TIP4 H1   HW0      0.679100        1.0080           
    9451 A    2363 TIP4 H2   HW0      0.679100        1.0080           
    9452 A    2363 TIP4 BD1  LP0     -1.358200        0.0000           
    9453 A    2364 TIP4 O1   OW0      0.000000       15.9990           
    9454 A    2364 TIP4 H1   HW0      0.679100        1.0080           
    9455 A    2364 TIP4 H2   HW0      0.679100        1.0080           
    9456 A    2364 TIP4 BD1  LP0     -1.358200        0.0000           
    9457 A    2365 TIP4 O1   OW0      0.000000       15.9990           
    9458 A    2365 TIP4 H1   HW0      0.679100        1.0080           
    9459 A    2365 TIP4 H2   HW0      0.679100        1.0080           
    9460 A    2365 TIP4 BD1  LP0     -1.358200        0.0000           
    9461 A    2366 TIP4 O1   OW0      0.000000       15.9990           
    9462 A    2366 TIP4 H1   HW0      0.679100        1.0080           
    9463 A    2366 TIP4 H2   HW0      0.679100        1.0080           
    9464 A    2366 TIP4 BD1  LP0     -1.358200        0.0000           
    9465 A    2367 TIP4 O1   OW0      0.000000       15.9990           
    9466 A    2367 TIP4 H1   HW0      0.679100        1.0080           
    9467 A    2367 TIP4 H2   HW0      0.679100        1.0080           
    9468 A    2367 TIP4 BD1  LP0     -1.358200        0.0000           
    9469 A    2368 TIP4 O1   OW0      0.000000       15.9990           
    9470 A    2368 TIP4 H1   HW0      0.679100        1.0080           
    9471 A    2368 TIP4 H2   HW0      0.679100        1.0080           
    9472 A    2368 TIP4 BD1  LP0     -1.358200        0.0000           
    9473 A    2369 TIP4 O1   OW0      0.000000       15.9990           
    9474 A    2369 TIP4 H1   HW0      0.679100        1.0080           
    9475 A    2369 TIP4 H2   HW0      0.679100        1.0080           
    9476 A    2369 TIP4 BD1  LP0     -1.358200        0.0000           
    9477 A    2370 TIP4 O1   OW0      0.000000       15.9990           
    9478 A    2370 TIP4 H1   HW0      0.679100        1.0080           
    9479 A    2370 TIP4 H2   HW0      0.679100        1.0080           
    9480 A    2370 TIP4 BD1  LP0     -1.358200        0.0000           
    9481 A    2371 TIP4 O1   OW0      0.000000       15.9990           
    9482 A    2371 TIP4 H1   HW0      0.679100        1.0080           
    9483 A    2371 TIP4 H2   HW0      0.679100        1.0080           
    9484 A    2371 TIP4 BD1  LP0     -1.358200        0.0000           
    9485 A    2372 TIP4 O1   OW0      0.000000       15.9990           
    9486 A    2372 TIP4 H1   HW0      0.679100        1.0080           
    9487 A    2372 TIP4 H2   HW0      0.679100        1.0080           
    9488 A    2372 TIP4 BD1  LP0     -1.358200        0.0000           
    9489 A    2373 TIP4 O1   OW0      0.000000       15.9990           
    9490 A    2373 TIP4 H1   HW0      0.679100        1.0080           
    9491 A    2373 TIP4 H2   HW0      0.679100        1.0080           
    9492 A    2373 TIP4 BD1  LP0     -1.358200        0.0000           
    9493 A    2374 TIP4 O1   OW0      0.000000       15.9990           
    9494 A    2374 TIP4 H1   HW0      0.679100        1.0080           
    9495 A    2374 TIP4 H2   HW0      0.679100        1.0080           
    9496 A    2374 TIP4 BD1  LP0     -1.358200        0.0000           
    9497 A    2375 TIP4 O1   OW0      0.000000       15.9990           
    9498 A    2375 TIP4 H1   HW0      0.679100        1.0080           
    9499 A    2375 TIP4 H2   HW0      0.679100        1.0080           
    9500 A    2375 TIP4 BD1  LP0     -1.358200        0.0000           
    9501 A    2376 TIP4 O1   OW0      0.000000       15.9990           
    9502 A    2376 TIP4 H1   HW0      0.679100        1.0080           
    9503 A    2376 TIP4 H2   HW0      0.679100        1.0080           
    9504 A    2376 TIP4 BD1  LP0     -1.358200        0.0000           
    9505 A    2377 TIP4 O1   OW0      0.000000       15.9990           
    9506 A    2377 TIP4 H1   HW0      0.679100        1.0080           
    9507 A    2377 TIP4 H2   HW0      0.679100        1.0080           
    9508 A    2377 TIP4 BD1  LP0     -1.358200        0.0000           
    9509 A    2378 TIP4 O1   OW0      0.000000       15.9990           
    9510 A    2378 TIP4 H1   HW0      0.679100        1.0080           
    9511 A    2378 TIP4 H2   HW0      0.679100        1.0080           
    9512 A    2378 TIP4 BD1  LP0     -1.358200        0.0000           
    9513 A    2379 TIP4 O1   OW0      0.000000       15.9990           
    9514 A    2379 TIP4 H1   HW0      0.679100        1.0080           
    9515 A    2379 TIP4 H2   HW0      0.679100        1.0080           
    9516 A    2379 TIP4 BD1  LP0     -1.358200        0.0000           
    9517 A    2380 TIP4 O1   OW0      0.000000       15.9990           
    9518 A    2380 TIP4 H1   HW0      0.679100        1.0080           
    9519 A    2380 TIP4 H2   HW0      0.679100        1.0080           
    9520 A    2380 TIP4 BD1  LP0     -1.358200        0.0000           
    9521 A    2381 TIP4 O1   OW0      0.000000       15.9990           
    9522 A    2381 TIP4 H1   HW0      0.679100        1.0080           
    9523 A    2381 TIP4 H2   HW0      0.679100        1.0080           
    9524 A    2381 TIP4 BD1  LP0     -1.358200        0.0000           
    9525 A    2382 TIP4 O1   OW0      0.000000       15.9990           
    9526 A    2382 TIP4 H1   HW0      0.679100        1.0080           
    9527 A    2382 TIP4 H2   HW0      0.679100        1.0080           
    9528 A    2382 TIP4 BD1  LP0     -1.358200        0.0000           
    9529 A    2383 TIP4 O1   OW0      0.000000       15.9990           
    9530 A    2383 TIP4 H1   HW0      0.679100        1.0080           
    9531 A    2383 TIP4 H2   HW0      0.679100        1.0080           
    9532 A    2383 TIP4 BD1  LP0     -1.358200        0.0000           
    9533 A    2384 TIP4 O1   OW0      0.000000       15.9990           
    9534 A    2384 TIP4 H1   HW0      0.679100        1.0080           
    9535 A    2384 TIP4 H2   HW0      0.679100        1.0080           
    9536 A    2384 TIP4 BD1  LP0     -1.358200        0.0000           
    9537 A    2385 TIP4 O1   OW0      0.000000       15.9990           
    9538 A    2385 TIP4 H1   HW0      0.679100        1.0080           
    9539 A    2385 TIP4 H2   HW0      0.679100        1.0080           
    9540 A    2385 TIP4 BD1  LP0     -1.358200        0.0000           
    9541 A    2386 TIP4 O1   OW0      0.000000       15.9990           
    9542 A    2386 TIP4 H1   HW0      0.679100        1.0080           
    9543 A    2386 TIP4 H2   HW0      0.679100        1.0080           
    9544 A    2386 TIP4 BD1  LP0     -1.358200        0.0000           
    9545 A    2387 TIP4 O1   OW0      0.000000       15.9990           
    9546 A    2387 TIP4 H1   HW0      0.679100        1.0080           
    9547 A    2387 TIP4 H2   HW0      0.679100        1.0080           
    9548 A    2387 TIP4 BD1  LP0     -1.358200        0.0000           
    9549 A    2388 TIP4 O1   OW0      0.000000       15.9990           
    9550 A    2388 TIP4 H1   HW0      0.679100        1.0080           
    9551 A    2388 TIP4 H2   HW0      0.679100        1.0080           
    9552 A    2388 TIP4 BD1  LP0     -1.358200        0.0000           
    9553 A    2389 TIP4 O1   OW0      0.000000       15.9990           
    9554 A    2389 TIP4 H1   HW0      0.679100        1.0080           
    9555 A    2389 TIP4 H2   HW0      0.679100        1.0080           
    9556 A    2389 TIP4 BD1  LP0     -1.358200        0.0000           
    9557 A    2390 TIP4 O1   OW0      0.000000       15.9990           
    9558 A    2390 TIP4 H1   HW0      0.679100        1.0080           
    9559 A    2390 TIP4 H2   HW0      0.679100        1.0080           
    9560 A    2390 TIP4 BD1  LP0     -1.358200        0.0000           
    9561 A    2391 TIP4 O1   OW0      0.000000       15.9990           
    9562 A    2391 TIP4 H1   HW0      0.679100        1.0080           
    9563 A    2391 TIP4 H2   HW0      0.679100        1.0080           
    9564 A    2391 TIP4 BD1  LP0     -1.358200        0.0000           
    9565 A    2392 TIP4 O1   OW0      0.000000       15.9990           
    9566 A    2392 TIP4 H1   HW0      0.679100        1.0080           
    9567 A    2392 TIP4 H2   HW0      0.679100        1.0080           
    9568 A    2392 TIP4 BD1  LP0     -1.358200        0.0000           
    9569 A    2393 TIP4 O1   OW0      0.000000       15.9990           
    9570 A    2393 TIP4 H1   HW0      0.679100        1.0080           
    9571 A    2393 TIP4 H2   HW0      0.679100        1.0080           
    9572 A    2393 TIP4 BD1  LP0     -1.358200        0.0000           
    9573 A    2394 TIP4 O1   OW0      0.000000       15.9990           
    9574 A    2394 TIP4 H1   HW0      0.679100        1.0080           
    9575 A    2394 TIP4 H2   HW0      0.679100        1.0080           
    9576 A    2394 TIP4 BD1  LP0     -1.358200        0.0000           
    9577 A    2395 TIP4 O1   OW0      0.000000       15.9990           
    9578 A    2395 TIP4 H1   HW0      0.679100        1.0080           
    9579 A    2395 TIP4 H2   HW0      0.679100        1.0080           
    9580 A    2395 TIP4 BD1  LP0     -1.358200        0.0000           
    9581 A    2396 TIP4 O1   OW0      0.000000       15.9990           
    9582 A    2396 TIP4 H1   HW0      0.679100        1.0080           
    9583 A    2396 TIP4 H2   HW0      0.679100        1.0080           
    9584 A    2396 TIP4 BD1  LP0     -1.358200        0.0000           
    9585 A    2397 TIP4 O1   OW0      0.000000       15.9990           
    9586 A    2397 TIP4 H1   HW0      0.679100        1.0080           
    9587 A    2397 TIP4 H2   HW0      0.679100        1.0080           
    9588 A    2397 TIP4 BD1  LP0     -1.358200        0.0000           
    9589 A    2398 TIP4 O1   OW0      0.000000       15.9990           
    9590 A    2398 TIP4 H1   HW0      0.679100        1.0080           
    9591 A    2398 TIP4 H2   HW0      0.679100        1.0080           
    9592 A    2398 TIP4 BD1  LP0     -1.358200        0.0000           
    9593 A    2399 TIP4 O1   OW0      0.000000       15.9990           
    9594 A    2399 TIP4 H1   HW0      0.679100        1.0080           
    9595 A    2399 TIP4 H2   HW0      0.679100        1.0080           
    9596 A    2399 TIP4 BD1  LP0     -1.358200        0.0000           
    9597 A    2400 TIP4 O1   OW0      0.000000       15.9990           
    9598 A    2400 TIP4 H1   HW0      0.679100        1.0080           
    9599 A    2400 TIP4 H2   HW0      0.679100        1.0080           
    9600 A    2400 TIP4 BD1  LP0     -1.358200        0.0000           
    9601 A    2401 TIP4 O1   OW0      0.000000       15.9990           
    9602 A    2401 TIP4 H1   HW0      0.679100        1.0080           
    9603 A    2401 TIP4 H2   HW0      0.679100        1.0080           
    9604 A    2401 TIP4 BD1  LP0     -1.358200        0.0000           
    9605 A    2402 TIP4 O1   OW0      0.000000       15.9990           
    9606 A    2402 TIP4 H1   HW0      0.679100        1.0080           
    9607 A    2402 TIP4 H2   HW0      0.679100        1.0080           
    9608 A    2402 TIP4 BD1  LP0     -1.358200        0.0000           
    9609 A    2403 TIP4 O1   OW0      0.000000       15.9990           
    9610 A    2403 TIP4 H1   HW0      0.679100        1.0080           
    9611 A    2403 TIP4 H2   HW0      0.679100        1.0080           
    9612 A    2403 TIP4 BD1  LP0     -1.358200        0.0000           
    9613 A    2404 TIP4 O1   OW0      0.000000       15.9990           
    9614 A    2404 TIP4 H1   HW0      0.679100        1.0080           
    9615 A    2404 TIP4 H2   HW0      0.679100        1.0080           
    9616 A    2404 TIP4 BD1  LP0     -1.358200        0.0000           
    9617 A    2405 TIP4 O1   OW0      0.000000       15.9990           
    9618 A    2405 TIP4 H1   HW0      0.679100        1.0080           
    9619 A    2405 TIP4 H2   HW0      0.679100        1.0080           
    9620 A    2405 TIP4 BD1  LP0     -1.358200        0.0000           
    9621 A    2406 TIP4 O1   OW0      0.000000       15.9990           
    9622 A    2406 TIP4 H1   HW0      0.679100        1.0080           
    9623 A    2406 TIP4 H2   HW0      0.679100        1.0080           
    9624 A    2406 TIP4 BD1  LP0     -1.358200        0.0000           
    9625 A    2407 TIP4 O1   OW0      0.000000       15.9990           
    9626 A    2407 TIP4 H1   HW0      0.679100        1.0080           
    9627 A    2407 TIP4 H2   HW0      0.679100        1.0080           
    9628 A    2407 TIP4 BD1  LP0     -1.358200        0.0000           
    9629 A    2408 TIP4 O1   OW0      0.000000       15.9990           
    9630 A    2408 TIP4 H1   HW0      0.679100        1.0080           
    9631 A    2408 TIP4 H2   HW0      0.679100        1.0080           
    9632 A    2408 TIP4 BD1  LP0     -1.358200        0.0000           
    9633 A    2409 TIP4 O1   OW0      0.000000       15.9990           
    9634 A    2409 TIP4 H1   HW0      0.679100        1.0080           
    9635 A    2409 TIP4 H2   HW0      0.679100        1.0080           
    9636 A    2409 TIP4 BD1  LP0     -1.358200        0.0000           
    9637 A    2410 TIP4 O1   OW0      0.000000       15.9990           
    9638 A    2410 TIP4 H1   HW0      0.679100        1.0080           
    9639 A    2410 TIP4 H2   HW0      0.679100        1.0080           
    9640 A    2410 TIP4 BD1  LP0     -1.358200        0.0000           
    9641 A    2411 TIP4 O1   OW0      0.000000       15.9990           
    9642 A    2411 TIP4 H1   HW0      0.679100        1.0080           
    9643 A    2411 TIP4 H2   HW0      0.679100        1.0080           
    9644 A    2411 TIP4 BD1  LP0     -1.358200        0.0000           
    9645 A    2412 TIP4 O1   OW0      0.000000       15.9990           
    9646 A    2412 TIP4 H1   HW0      0.679100        1.0080           
    9647 A    2412 TIP4 H2   HW0      0.679100        1.0080           
    9648 A    2412 TIP4 BD1  LP0     -1.358200        0.0000           
    9649 A    2413 TIP4 O1   OW0      0.000000       15.9990           
    9650 A    2413 TIP4 H1   HW0      0.679100        1.0080           
    9651 A    2413 TIP4 H2   HW0      0.679100        1.0080           
    9652 A    2413 TIP4 BD1  LP0     -1.358200        0.0000           
    9653 A    2414 TIP4 O1   OW0      0.000000       15.9990           
    9654 A    2414 TIP4 H1   HW0      0.679100        1.0080           
    9655 A    2414 TIP4 H2   HW0      0.679100        1.0080           
    9656 A    2414 TIP4 BD1  LP0     -1.358200        0.0000           
    9657 A    2415 TIP4 O1   OW0      0.000000       15.9990           
    9658 A    2415 TIP4 H1   HW0      0.679100        1.0080           
    9659 A    2415 TIP4 H2   HW0      0.679100        1.0080           
    9660 A    2415 TIP4 BD1  LP0     -1.358200        0.0000           
    9661 A    2416 TIP4 O1   OW0      0.000000       15.9990           
    9662 A    2416 TIP4 H1   HW0      0.679100        1.0080           
    9663 A    2416 TIP4 H2   HW0      0.679100        1.0080           
    9664 A    2416 TIP4 BD1  LP0     -1.358200        0.0000           
    9665 A    2417 TIP4 O1   OW0      0.000000       15.9990           
    9666 A    2417 TIP4 H1   HW0      0.679100        1.0080           
    9667 A    2417 TIP4 H2   HW0      0.679100        1.0080           
    9668 A    2417 TIP4 BD1  LP0     -1.358200        0.0000           
    9669 A    2418 TIP4 O1   OW0      0.000000       15.9990           
    9670 A    2418 TIP4 H1   HW0      0.679100        1.0080           
    9671 A    2418 TIP4 H2   HW0      0.679100        1.0080           
    9672 A    2418 TIP4 BD1  LP0     -1.358200        0.0000           
    9673 A    2419 TIP4 O1   OW0      0.000000       15.9990           
    9674 A    2419 TIP4 H1   HW0      0.679100        1.0080           
    9675 A    2419 TIP4 H2   HW0      0.679100        1.0080           
    9676 A    2419 TIP4 BD1  LP0     -1.358200        0.0000           
    9677 A    2420 TIP4 O1   OW0      0.000000       15.9990           
    9678 A    2420 TIP4 H1   HW0      0.679100        1.0080           
    9679 A    2420 TIP4 H2   HW0      0.679100        1.0080           
    9680 A    2420 TIP4 BD1  LP0     -1.358200        0.0000           
    9681 A    2421 TIP4 O1   OW0      0.000000       15.9990           
    9682 A    2421 TIP4 H1   HW0      0.679100        1.0080           
    9683 A    2421 TIP4 H2   HW0      0.679100        1.0080           
    9684 A    2421 TIP4 BD1  LP0     -1.358200        0.0000           
    9685 A    2422 TIP4 O1   OW0      0.000000       15.9990           
    9686 A    2422 TIP4 H1   HW0      0.679100        1.0080           
    9687 A    2422 TIP4 H2   HW0      0.679100        1.0080           
    9688 A    2422 TIP4 BD1  LP0     -1.358200        0.0000           
    9689 A    2423 TIP4 O1   OW0      0.000000       15.9990           
    9690 A    2423 TIP4 H1   HW0      0.679100        1.0080           
    9691 A    2423 TIP4 H2   HW0      0.679100        1.0080           
    9692 A    2423 TIP4 BD1  LP0     -1.358200        0.0000           
    9693 A    2424 TIP4 O1   OW0      0.000000       15.9990           
    9694 A    2424 TIP4 H1   HW0      0.679100        1.0080           
    9695 A    2424 TIP4 H2   HW0      0.679100        1.0080           
    9696 A    2424 TIP4 BD1  LP0     -1.358200        0.0000           
    9697 A    2425 TIP4 O1   OW0      0.000000       15.9990           
    9698 A    2425 TIP4 H1   HW0      0.679100        1.0080           
    9699 A    2425 TIP4 H2   HW0      0.679100        1.0080           
    9700 A    2425 TIP4 BD1  LP0     -1.358200        0.0000           
    9701 A    2426 TIP4 O1   OW0      0.000000       15.9990           
    9702 A    2426 TIP4 H1   HW0      0.679100        1.0080           
    9703 A    2426 TIP4 H2   HW0      0.679100        1.0080           
    9704 A    2426 TIP4 BD1  LP0     -1.358200        0.0000           
    9705 A    2427 TIP4 O1   OW0      0.000000       15.9990           
    9706 A    2427 TIP4 H1   HW0      0.679100        1.0080           
    9707 A    2427 TIP4 H2   HW0      0.679100        1.0080           
    9708 A    2427 TIP4 BD1  LP0     -1.358200        0.0000           
    9709 A    2428 TIP4 O1   OW0      0.000000       15.9990           
    9710 A    2428 TIP4 H1   HW0      0.679100        1.0080           
    9711 A    2428 TIP4 H2   HW0      0.679100        1.0080           
    9712 A    2428 TIP4 BD1  LP0     -1.358200        0.0000           
    9713 A    2429 TIP4 O1   OW0      0.000000       15.9990           
    9714 A    2429 TIP4 H1   HW0      0.679100        1.0080           
    9715 A    2429 TIP4 H2   HW0      0.679100        1.0080           
    9716 A    2429 TIP4 BD1  LP0     -1.358200        0.0000           
    9717 A    2430 TIP4 O1   OW0      0.000000       15.9990           
    9718 A    2430 TIP4 H1   HW0      0.679100        1.0080           
    9719 A    2430 TIP4 H2   HW0      0.679100        1.0080           
    9720 A    2430 TIP4 BD1  LP0     -1.358200        0.0000           
    9721 A    2431 TIP4 O1   OW0      0.000000       15.9990           
    9722 A    2431 TIP4 H1   HW0      0.679100        1.0080           
    9723 A    2431 TIP4 H2   HW0      0.679100        1.0080           
    9724 A    2431 TIP4 BD1  LP0     -1.358200        0.0000           
    9725 A    2432 TIP4 O1   OW0      0.000000       15.9990           
    9726 A    2432 TIP4 H1   HW0      0.679100        1.0080           
    9727 A    2432 TIP4 H2   HW0      0.679100        1.0080           
    9728 A    2432 TIP4 BD1  LP0     -1.358200        0.0000           
    9729 A    2433 TIP4 O1   OW0      0.000000       15.9990           
    9730 A    2433 TIP4 H1   HW0      0.679100        1.0080           
    9731 A    2433 TIP4 H2   HW0      0.679100        1.0080           
    9732 A    2433 TIP4 BD1  LP0     -1.358200        0.0000           
    9733 A    2434 TIP4 O1   OW0      0.000000       15.9990           
    9734 A    2434 TIP4 H1   HW0      0.679100        1.0080           
    9735 A    2434 TIP4 H2   HW0      0.679100        1.0080           
    9736 A    2434 TIP4 BD1  LP0     -1.358200        0.0000           
    9737 A    2435 TIP4 O1   OW0      0.000000       15.9990           
    9738 A    2435 TIP4 H1   HW0      0.679100        1.0080           
    9739 A    2435 TIP4 H2   HW0      0.679100        1.0080           
    9740 A    2435 TIP4 BD1  LP0     -1.358200        0.0000           
    9741 A    2436 TIP4 O1   OW0      0.000000       15.9990           
    9742 A    2436 TIP4 H1   HW0      0.679100        1.0080           
    9743 A    2436 TIP4 H2   HW0      0.679100        1.0080           
    9744 A    2436 TIP4 BD1  LP0     -1.358200        0.0000           
    9745 A    2437 TIP4 O1   OW0      0.000000       15.9990           
    9746 A    2437 TIP4 H1   HW0      0.679100        1.0080           
    9747 A    2437 TIP4 H2   HW0      0.679100        1.0080           
    9748 A    2437 TIP4 BD1  LP0     -1.358200        0.0000           
    9749 A    2438 TIP4 O1   OW0      0.000000       15.9990           
    9750 A    2438 TIP4 H1   HW0      0.679100        1.0080           
    9751 A    2438 TIP4 H2   HW0      0.679100        1.0080           
    9752 A    2438 TIP4 BD1  LP0     -1.358200        0.0000           
    9753 A    2439 TIP4 O1   OW0      0.000000       15.9990           
    9754 A    2439 TIP4 H1   HW0      0.679100        1.0080           
    9755 A    2439 TIP4 H2   HW0      0.679100        1.0080           
    9756 A    2439 TIP4 BD1  LP0     -1.358200        0.0000           
    9757 A    2440 TIP4 O1   OW0      0.000000       15.9990           
    9758 A    2440 TIP4 H1   HW0      0.679100        1.0080           
    9759 A    2440 TIP4 H2   HW0      0.679100        1.0080           
    9760 A    2440 TIP4 BD1  LP0     -1.358200        0.0000           
    9761 A    2441 TIP4 O1   OW0      0.000000       15.9990           
    9762 A    2441 TIP4 H1   HW0      0.679100        1.0080           
    9763 A    2441 TIP4 H2   HW0      0.679100        1.0080           
    9764 A    2441 TIP4 BD1  LP0     -1.358200        0.0000           
    9765 A    2442 TIP4 O1   OW0      0.000000       15.9990           
    9766 A    2442 TIP4 H1   HW0      0.679100        1.0080           
    9767 A    2442 TIP4 H2   HW0      0.679100        1.0080           
    9768 A    2442 TIP4 BD1  LP0     -1.358200        0.0000           
    9769 A    2443 TIP4 O1   OW0      0.000000       15.9990           
    9770 A    2443 TIP4 H1   HW0      0.679100        1.0080           
    9771 A    2443 TIP4 H2   HW0      0.679100        1.0080           
    9772 A    2443 TIP4 BD1  LP0     -1.358200        0.0000           
    9773 A    2444 TIP4 O1   OW0      0.000000       15.9990           
    9774 A    2444 TIP4 H1   HW0      0.679100        1.0080           
    9775 A    2444 TIP4 H2   HW0      0.679100        1.0080           
    9776 A    2444 TIP4 BD1  LP0     -1.358200        0.0000           
    9777 A    2445 TIP4 O1   OW0      0.000000       15.9990           
    9778 A    2445 TIP4 H1   HW0      0.679100        1.0080           
    9779 A    2445 TIP4 H2   HW0      0.679100        1.0080           
    9780 A    2445 TIP4 BD1  LP0     -1.358200        0.0000           
    9781 A    2446 TIP4 O1   OW0      0.000000       15.9990           
    9782 A    2446 TIP4 H1   HW0      0.679100        1.0080           
    9783 A    2446 TIP4 H2   HW0      0.679100        1.0080           
    9784 A    2446 TIP4 BD1  LP0     -1.358200        0.0000           
    9785 A    2447 TIP4 O1   OW0      0.000000       15.9990           
    9786 A    2447 TIP4 H1   HW0      0.679100        1.0080           
    9787 A    2447 TIP4 H2   HW0      0.679100        1.0080           
    9788 A    2447 TIP4 BD1  LP0     -1.358200        0.0000           
    9789 A    2448 TIP4 O1   OW0      0.000000       15.9990           
    9790 A    2448 TIP4 H1   HW0      0.679100        1.0080           
    9791 A    2448 TIP4 H2   HW0      0.679100        1.0080           
    9792 A    2448 TIP4 BD1  LP0     -1.358200        0.0000           
    9793 A    2449 TIP4 O1   OW0      0.000000       15.9990           
    9794 A    2449 TIP4 H1   HW0      0.679100        1.0080           
    9795 A    2449 TIP4 H2   HW0      0.679100        1.0080           
    9796 A    2449 TIP4 BD1  LP0     -1.358200        0.0000           
    9797 A    2450 TIP4 O1   OW0      0.000000       15.9990           
    9798 A    2450 TIP4 H1   HW0      0.679100        1.0080           
    9799 A    2450 TIP4 H2   HW0      0.679100        1.0080           
    9800 A    2450 TIP4 BD1  LP0     -1.358200        0.0000           
    9801 A    2451 TIP4 O1   OW0      0.000000       15.9990           
    9802 A    2451 TIP4 H1   HW0      0.679100        1.0080           
    9803 A    2451 TIP4 H2   HW0      0.679100        1.0080           
    9804 A    2451 TIP4 BD1  LP0     -1.358200        0.0000           
    9805 A    2452 TIP4 O1   OW0      0.000000       15.9990           
    9806 A    2452 TIP4 H1   HW0      0.679100        1.0080           
    9807 A    2452 TIP4 H2   HW0      0.679100        1.0080           
    9808 A    2452 TIP4 BD1  LP0     -1.358200        0.0000           
    9809 A    2453 TIP4 O1   OW0      0.000000       15.9990           
    9810 A    2453 TIP4 H1   HW0      0.679100        1.0080           
    9811 A    2453 TIP4 H2   HW0      0.679100        1.0080           
    9812 A    2453 TIP4 BD1  LP0     -1.358200        0.0000           
    9813 A    2454 TIP4 O1   OW0      0.000000       15.9990           
    9814 A    2454 TIP4 H1   HW0      0.679100        1.0080           
    9815 A    2454 TIP4 H2   HW0      0.679100        1.0080           
    9816 A    2454 TIP4 BD1  LP0     -1.358200        0.0000           
    9817 A    2455 TIP4 O1   OW0      0.000000       15.9990           
    9818 A    2455 TIP4 H1   HW0      0.679100        1.0080           
    9819 A    2455 TIP4 H2   HW0      0.679100        1.0080           
    9820 A    2455 TIP4 BD1  LP0     -1.358200        0.0000           
    9821 A    2456 TIP4 O1   OW0      0.000000       15.9990           
    9822 A    2456 TIP4 H1   HW0      0.679100        1.0080           
    9823 A    2456 TIP4 H2   HW0      0.679100        1.0080           
    9824 A    2456 TIP4 BD1  LP0     -1.358200        0.0000           
    9825 A    2457 TIP4 O1   OW0      0.000000       15.9990           
    9826 A    2457 TIP4 H1   HW0      0.679100        1.0080           
    9827 A    2457 TIP4 H2   HW0      0.679100        1.0080           
    9828 A    2457 TIP4 BD1  LP0     -1.358200        0.0000           
    9829 A    2458 TIP4 O1   OW0      0.000000       15.9990           
    9830 A    2458 TIP4 H1   HW0      0.679100        1.0080           
    9831 A    2458 TIP4 H2   HW0      0.679100        1.0080           
    9832 A    2458 TIP4 BD1  LP0     -1.358200        0.0000           
    9833 A    2459 TIP4 O1   OW0      0.000000       15.9990           
    9834 A    2459 TIP4 H1   HW0      0.679100        1.0080           
    9835 A    2459 TIP4 H2   HW0      0.679100        1.0080           
    9836 A    2459 TIP4 BD1  LP0     -1.358200        0.0000           
    9837 A    2460 TIP4 O1   OW0      0.000000       15.9990           
    9838 A    2460 TIP4 H1   HW0      0.679100        1.0080           
    9839 A    2460 TIP4 H2   HW0      0.679100        1.0080           
    9840 A    2460 TIP4 BD1  LP0     -1.358200        0.0000           
    9841 A    2461 TIP4 O1   OW0      0.000000       15.9990           
    9842 A    2461 TIP4 H1   HW0      0.679100        1.0080           
    9843 A    2461 TIP4 H2   HW0      0.679100        1.0080           
    9844 A    2461 TIP4 BD1  LP0     -1.358200        0.0000           
    9845 A    2462 TIP4 O1   OW0      0.000000       15.9990           
    9846 A    2462 TIP4 H1   HW0      0.679100        1.0080           
    9847 A    2462 TIP4 H2   HW0      0.679100        1.0080           
    9848 A    2462 TIP4 BD1  LP0     -1.358200        0.0000           
    9849 A    2463 TIP4 O1   OW0      0.000000       15.9990           
    9850 A    2463 TIP4 H1   HW0      0.679100        1.0080           
    9851 A    2463 TIP4 H2   HW0      0.679100        1.0080           
    9852 A    2463 TIP4 BD1  LP0     -1.358200        0.0000           
    9853 A    2464 TIP4 O1   OW0      0.000000       15.9990           
    9854 A    2464 TIP4 H1   HW0      0.679100        1.0080           
    9855 A    2464 TIP4 H2   HW0      0.679100        1.0080           
    9856 A    2464 TIP4 BD1  LP0     -1.358200        0.0000           
    9857 A    2465 TIP4 O1   OW0      0.000000       15.9990           
    9858 A    2465 TIP4 H1   HW0      0.679100        1.0080           
    9859 A    2465 TIP4 H2   HW0      0.679100        1.0080           
    9860 A    2465 TIP4 BD1  LP0     -1.358200        0.0000           
    9861 A    2466 TIP4 O1   OW0      0.000000       15.9990           
    9862 A    2466 TIP4 H1   HW0      0.679100        1.0080           
    9863 A    2466 TIP4 H2   HW0      0.679100        1.0080           
    9864 A    2466 TIP4 BD1  LP0     -1.358200        0.0000           
    9865 A    2467 TIP4 O1   OW0      0.000000       15.9990           
    9866 A    2467 TIP4 H1   HW0      0.679100        1.0080           
    9867 A    2467 TIP4 H2   HW0      0.679100        1.0080           
    9868 A    2467 TIP4 BD1  LP0     -1.358200        0.0000           
    9869 A    2468 TIP4 O1   OW0      0.000000       15.9990           
    9870 A    2468 TIP4 H1   HW0      0.679100        1.0080           
    9871 A    2468 TIP4 H2   HW0      0.679100        1.0080           
    9872 A    2468 TIP4 BD1  LP0     -1.358200        0.0000           
    9873 A    2469 TIP4 O1   OW0      0.000000       15.9990           
    9874 A    2469 TIP4 H1   HW0      0.679100        1.0080           
    9875 A    2469 TIP4 H2   HW0      0.679100        1.0080           
    9876 A    2469 TIP4 BD1  LP0     -1.358200        0.0000           
    9877 A    2470 TIP4 O1   OW0      0.000000       15.9990           
    9878 A    2470 TIP4 H1   HW0      0.679100        1.0080           
    9879 A    2470 TIP4 H2   HW0      0.679100        1.0080           
    9880 A    2470 TIP4 BD1  LP0     -1.358200        0.0000           
    9881 A    2471 TIP4 O1   OW0      0.000000       15.9990           
    9882 A    2471 TIP4 H1   HW0      0.679100        1.0080           
    9883 A    2471 TIP4 H2   HW0      0.679100        1.0080           
    9884 A    2471 TIP4 BD1  LP0     -1.358200        0.0000           
    9885 A    2472 TIP4 O1   OW0      0.000000       15.9990           
    9886 A    2472 TIP4 H1   HW0      0.679100        1.0080           
    9887 A    2472 TIP4 H2   HW0      0.679100        1.0080           
    9888 A    2472 TIP4 BD1  LP0     -1.358200        0.0000           
    9889 A    2473 TIP4 O1   OW0      0.000000       15.9990           
    9890 A    2473 TIP4 H1   HW0      0.679100        1.0080           
    9891 A    2473 TIP4 H2   HW0      0.679100        1.0080           
    9892 A    2473 TIP4 BD1  LP0     -1.358200        0.0000           
    9893 A    2474 TIP4 O1   OW0      0.000000       15.9990           
    9894 A    2474 TIP4 H1   HW0      0.679100        1.0080           
    9895 A    2474 TIP4 H2   HW0      0.679100        1.0080           
    9896 A    2474 TIP4 BD1  LP0     -1.358200        0.0000           
    9897 A    2475 TIP4 O1   OW0      0.000000       15.9990           
    9898 A    2475 TIP4 H1   HW0      0.679100        1.0080           
    9899 A    2475 TIP4 H2   HW0      0.679100        1.0080           
    9900 A    2475 TIP4 BD1  LP0     -1.358200        0.0000           
    9901 A    2476 TIP4 O1   OW0      0.000000       15.9990           
    9902 A    2476 TIP4 H1   HW0      0.679100        1.0080           
    9903 A    2476 TIP4 H2   HW0      0.679100        1.0080           
    9904 A    2476 TIP4 BD1  LP0     -1.358200        0.0000           
    9905 A    2477 TIP4 O1   OW0      0.000000       15.9990           
    9906 A    2477 TIP4 H1   HW0      0.679100        1.0080           
    9907 A    2477 TIP4 H2   HW0      0.679100        1.0080           
    9908 A    2477 TIP4 BD1  LP0     -1.358200        0.0000           
    9909 A    2478 TIP4 O1   OW0      0.000000       15.9990           
    9910 A    2478 TIP4 H1   HW0      0.679100        1.0080           
    9911 A    2478 TIP4 H2   HW0      0.679100        1.0080           
    9912 A    2478 TIP4 BD1  LP0     -1.358200        0.0000           
    9913 A    2479 TIP4 O1   OW0      0.000000       15.9990           
    9914 A    2479 TIP4 H1   HW0      0.679100        1.0080           
    9915 A    2479 TIP4 H2   HW0      0.679100        1.0080           
    9916 A    2479 TIP4 BD1  LP0     -1.358200        0.0000           
    9917 A    2480 TIP4 O1   OW0      0.000000       15.9990           
    9918 A    2480 TIP4 H1   HW0      0.679100        1.0080           
    9919 A    2480 TIP4 H2   HW0      0.679100        1.0080           
    9920 A    2480 TIP4 BD1  LP0     -1.358200        0.0000           
    9921 A    2481 TIP4 O1   OW0      0.000000       15.9990           
    9922 A    2481 TIP4 H1   HW0      0.679100        1.0080           
    9923 A    2481 TIP4 H2   HW0      0.679100        1.0080           
    9924 A    2481 TIP4 BD1  LP0     -1.358200        0.0000           
    9925 A    2482 TIP4 O1   OW0      0.000000       15.9990           
    9926 A    2482 TIP4 H1   HW0      0.679100        1.0080           
    9927 A    2482 TIP4 H2   HW0      0.679100        1.0080           
    9928 A    2482 TIP4 BD1  LP0     -1.358200        0.0000           
    9929 A    2483 TIP4 O1   OW0      0.000000       15.9990           
    9930 A    2483 TIP4 H1   HW0      0.679100        1.0080           
    9931 A    2483 TIP4 H2   HW0      0.679100        1.0080           
    9932 A    2483 TIP4 BD1  LP0     -1.358200        0.0000           
    9933 A    2484 TIP4 O1   OW0      0.000000       15.9990           
    9934 A    2484 TIP4 H1   HW0      0.679100        1.0080           
    9935 A    2484 TIP4 H2   HW0      0.679100        1.0080           
    9936 A    2484 TIP4 BD1  LP0     -1.358200        0.0000           
    9937 A    2485 TIP4 O1   OW0      0.000000       15.9990           
    9938 A    2485 TIP4 H1   HW0      0.679100        1.0080           
    9939 A    2485 TIP4 H2   HW0      0.679100        1.0080           
    9940 A    2485 TIP4 BD1  LP0     -1.358200        0.0000           
    9941 A    2486 TIP4 O1   OW0      0.000000       15.9990           
    9942 A    2486 TIP4 H1   HW0      0.679100        1.0080           
    9943 A    2486 TIP4 H2   HW0      0.679100        1.0080           
    9944 A    2486 TIP4 BD1  LP0     -1.358200        0.0000           
    9945 A    2487 TIP4 O1   OW0      0.000000       15.9990           
    9946 A    2487 TIP4 H1   HW0      0.679100        1.0080           
    9947 A    2487 TIP4 H2   HW0      0.679100        1.0080           
    9948 A    2487 TIP4 BD1  LP0     -1.358200        0.0000           
    9949 A    2488 TIP4 O1   OW0      0.000000       15.9990           
    9950 A    2488 TIP4 H1   HW0      0.679100        1.0080           
    9951 A    2488 TIP4 H2   HW0      0.679100        1.0080           
    9952 A    2488 TIP4 BD1  LP0     -1.358200        0.0000           
    9953 A    2489 TIP4 O1   OW0      0.000000       15.9990           
    9954 A    2489 TIP4 H1   HW0      0.679100        1.0080           
    9955 A    2489 TIP4 H2   HW0      0.679100        1.0080           
    9956 A    2489 TIP4 BD1  LP0     -1.358200        0.0000           
    9957 A    2490 TIP4 O1   OW0      0.000000       15.9990           
    9958 A    2490 TIP4 H1   HW0      0.679100        1.0080           
    9959 A    2490 TIP4 H2   HW0      0.679100        1.0080           
    9960 A    2490 TIP4 BD1  LP0     -1.358200        0.0000           
    9961 A    2491 TIP4 O1   OW0      0.000000       15.9990           
    9962 A    2491 TIP4 H1   HW0      0.679100        1.0080           
    9963 A    2491 TIP4 H2   HW0      0.679100        1.0080           
    9964 A    2491 TIP4 BD1  LP0     -1.358200        0.0000           
    9965 A    2492 TIP4 O1   OW0      0.000000       15.9990           
    9966 A    2492 TIP4 H1   HW0      0.679100        1.0080           
    9967 A    2492 TIP4 H2   HW0      0.679100        1.0080           
    9968 A    2492 TIP4 BD1  LP0     -1.358200        0.0000           
    9969 A    2493 TIP4 O1   OW0      0.000000       15.9990           
    9970 A    2493 TIP4 H1   HW0      0.679100        1.0080           
    9971 A    2493 TIP4 H2   HW0      0.679100        1.0080           
    9972 A    2493 TIP4 BD1  LP0     -1.358200        0.0000           
    9973 A    2494 TIP4 O1   OW0      0.000000       15.9990           
    9974 A    2494 TIP4 H1   HW0      0.679100        1.0080           
    9975 A    2494 TIP4 H2   HW0      0.679100        1.0080           
    9976 A    2494 TIP4 BD1  LP0     -1.358200        0.0000           
    9977 A    2495 TIP4 O1   OW0      0.000000       15.9990           
    9978 A    2495 TIP4 H1   HW0      0.679100        1.0080           
    9979 A    2495 TIP4 H2   HW0      0.679100        1.0080           
    9980 A    2495 TIP4 BD1  LP0     -1.358200        0.0000           
    9981 A    2496 TIP4 O1   OW0      0.000000       15.9990           
    9982 A    2496 TIP4 H1   HW0      0.679100        1.0080           
    9983 A    2496 TIP4 H2   HW0      0.679100        1.0080           
    9984 A    2496 TIP4 BD1  LP0     -1.358200        0.0000           
    9985 A    2497 TIP4 O1   OW0      0.000000       15.9990           
    9986 A    2497 TIP4 H1   HW0      0.679100        1.0080           
    9987 A    2497 TIP4 H2   HW0      0.679100        1.0080           
    9988 A    2497 TIP4 BD1  LP0     -1.358200        0.0000           
    9989 A    2498 TIP4 O1   OW0      0.000000       15.9990           
    9990 A    2498 TIP4 H1   HW0      0.679100        1.0080           
    9991 A    2498 TIP4 H2   HW0      0.679100        1.0080           
    9992 A    2498 TIP4 BD1  LP0     -1.358200        0.0000           
    9993 A    2499 TIP4 O1   OW0      0.000000       15.9990           
    9994 A    2499 TIP4 H1   HW0      0.679100        1.0080           
    9995 A    2499 TIP4 H2   HW0      0.679100        1.0080           
    9996 A    2499 TIP4 BD1  LP0     -1.358200        0.0000           
    9997 A    2500 TIP4 O1   OW0      0.000000       15.9990           
    9998 A    2500 TIP4 H1   HW0      0.679100        1.0080           
    9999 A    2500 TIP4 H2   HW0      0.679100        1.0080           
   10000 A    2500 TIP4 BD1  LP0     -1.358200        0.0000           
   10001 A    2501 TIP4 O1   OW0      0.000000       15.9990           
   10002 A    2501 TIP4 H1   HW0      0.679100        1.0080           
   10003 A    2501 TIP4 H2   HW0      0.679100        1.0080           
   10004 A    2501 TIP4 BD1  LP0     -1.358200        0.0000           
   10005 A    2502 TIP4 O1   OW0      0.000000       15.9990           
   10006 A    2502 TIP4 H1   HW0      0.679100        1.0080           
   10007 A    2502 TIP4 H2   HW0      0.679100        1.0080           
   10008 A    2502 TIP4 BD1  LP0     -1.358200        0.0000           
   10009 A    2503 TIP4 O1   OW0      0.000000       15.9990           
   10010 A    2503 TIP4 H1   HW0      0.679100        1.0080           
   10011 A    2503 TIP4 H2   HW0      0.679100        1.0080           
   10012 A    2503 TIP4 BD1  LP0     -1.358200        0.0000           
   10013 A    2504 TIP4 O1   OW0      0.000000       15.9990           
   10014 A    2504 TIP4 H1   HW0      0.679100        1.0080           
   10015 A    2504 TIP4 H2   HW0      0.679100        1.0080           
   10016 A    2504 TIP4 BD1  LP0     -1.358200        0.0000           
   10017 A    2505 TIP4 O1   OW0      0.000000       15.9990           
   10018 A    2505 TIP4 H1   HW0      0.679100        1.0080           
   10019 A    2505 TIP4 H2   HW0      0.679100        1.0080           
   10020 A    2505 TIP4 BD1  LP0     -1.358200        0.0000           
   10021 A    2506 TIP4 O1   OW0      0.000000       15.9990           
   10022 A    2506 TIP4 H1   HW0      0.679100        1.0080           
   10023 A    2506 TIP4 H2   HW0      0.679100        1.0080           
   10024 A    2506 TIP4 BD1  LP0     -1.358200        0.0000           
   10025 A    2507 TIP4 O1   OW0      0.000000       15.9990           
   10026 A    2507 TIP4 H1   HW0      0.679100        1.0080           
   10027 A    2507 TIP4 H2   HW0      0.679100        1.0080           
   10028 A    2507 TIP4 BD1  LP0     -1.358200        0.0000           
   10029 A    2508 TIP4 O1   OW0      0.000000       15.9990           
   10030 A    2508 TIP4 H1   HW0      0.679100        1.0080           
   10031 A    2508 TIP4 H2   HW0      0.679100        1.0080           
   10032 A    2508 TIP4 BD1  LP0     -1.358200        0.0000           
   10033 A    2509 TIP4 O1   OW0      0.000000       15.9990           
   10034 A    2509 TIP4 H1   HW0      0.679100        1.0080           
   10035 A    2509 TIP4 H2   HW0      0.679100        1.0080           
   10036 A    2509 TIP4 BD1  LP0     -1.358200        0.0000           
   10037 A    2510 TIP4 O1   OW0      0.000000       15.9990           
   10038 A    2510 TIP4 H1   HW0      0.679100        1.0080           
   10039 A    2510 TIP4 H2   HW0      0.679100        1.0080           
   10040 A    2510 TIP4 BD1  LP0     -1.358200        0.0000           
   10041 A    2511 TIP4 O1   OW0      0.000000       15.9990           
   10042 A    2511 TIP4 H1   HW0      0.679100        1.0080           
   10043 A    2511 TIP4 H2   HW0      0.679100        1.0080           
   10044 A    2511 TIP4 BD1  LP0     -1.358200        0.0000           
   10045 A    2512 TIP4 O1   OW0      0.000000       15.9990           
   10046 A    2512 TIP4 H1   HW0      0.679100        1.0080           
   10047 A    2512 TIP4 H2   HW0      0.679100        1.0080           
   10048 A    2512 TIP4 BD1  LP0     -1.358200        0.0000           
   10049 A    2513 TIP4 O1   OW0      0.000000       15.9990           
   10050 A    2513 TIP4 H1   HW0      0.679100        1.0080           
   10051 A    2513 TIP4 H2   HW0      0.679100        1.0080           
   10052 A    2513 TIP4 BD1  LP0     -1.358200        0.0000           
   10053 A    2514 TIP4 O1   OW0      0.000000       15.9990           
   10054 A    2514 TIP4 H1   HW0      0.679100        1.0080           
   10055 A    2514 TIP4 H2   HW0      0.679100        1.0080           
   10056 A    2514 TIP4 BD1  LP0     -1.358200        0.0000           
   10057 A    2515 TIP4 O1   OW0      0.000000       15.9990           
   10058 A    2515 TIP4 H1   HW0      0.679100        1.0080           
   10059 A    2515 TIP4 H2   HW0      0.679100        1.0080           
   10060 A    2515 TIP4 BD1  LP0     -1.358200        0.0000           
   10061 A    2516 TIP4 O1   OW0      0.000000       15.9990           
   10062 A    2516 TIP4 H1   HW0      0.679100        1.0080           
   10063 A    2516 TIP4 H2   HW0      0.679100        1.0080           
   10064 A    2516 TIP4 BD1  LP0     -1.358200        0.0000           
   10065 A    2517 TIP4 O1   OW0      0.000000       15.9990           
   10066 A    2517 TIP4 H1   HW0      0.679100        1.0080           
   10067 A    2517 TIP4 H2   HW0      0.679100        1.0080           
   10068 A    2517 TIP4 BD1  LP0     -1.358200        0.0000           
   10069 A    2518 TIP4 O1   OW0      0.000000       15.9990           
   10070 A    2518 TIP4 H1   HW0      0.679100        1.0080           
   10071 A    2518 TIP4 H2   HW0      0.679100        1.0080           
   10072 A    2518 TIP4 BD1  LP0     -1.358200        0.0000           
   10073 A    2519 TIP4 O1   OW0      0.000000       15.9990           
   10074 A    2519 TIP4 H1   HW0      0.679100        1.0080           
   10075 A    2519 TIP4 H2   HW0      0.679100        1.0080           
   10076 A    2519 TIP4 BD1  LP0     -1.358200        0.0000           
   10077 A    2520 TIP4 O1   OW0      0.000000       15.9990           
   10078 A    2520 TIP4 H1   HW0      0.679100        1.0080           
   10079 A    2520 TIP4 H2   HW0      0.679100        1.0080           
   10080 A    2520 TIP4 BD1  LP0     -1.358200        0.0000           
   10081 A    2521 TIP4 O1   OW0      0.000000       15.9990           
   10082 A    2521 TIP4 H1   HW0      0.679100        1.0080           
   10083 A    2521 TIP4 H2   HW0      0.679100        1.0080           
   10084 A    2521 TIP4 BD1  LP0     -1.358200        0.0000           
   10085 A    2522 TIP4 O1   OW0      0.000000       15.9990           
   10086 A    2522 TIP4 H1   HW0      0.679100        1.0080           
   10087 A    2522 TIP4 H2   HW0      0.679100        1.0080           
   10088 A    2522 TIP4 BD1  LP0     -1.358200        0.0000           
   10089 A    2523 TIP4 O1   OW0      0.000000       15.9990           
   10090 A    2523 TIP4 H1   HW0      0.679100        1.0080           
   10091 A    2523 TIP4 H2   HW0      0.679100        1.0080           
   10092 A    2523 TIP4 BD1  LP0     -1.358200        0.0000           
   10093 A    2524 TIP4 O1   OW0      0.000000       15.9990           
   10094 A    2524 TIP4 H1   HW0      0.679100        1.0080           
   10095 A    2524 TIP4 H2   HW0      0.679100        1.0080           
   10096 A    2524 TIP4 BD1  LP0     -1.358200        0.0000           
   10097 A    2525 TIP4 O1   OW0      0.000000       15.9990           
   10098 A    2525 TIP4 H1   HW0      0.679100        1.0080           
   10099 A    2525 TIP4 H2   HW0      0.679100        1.0080           
   10100 A    2525 TIP4 BD1  LP0     -1.358200        0.0000           
   10101 A    2526 TIP4 O1   OW0      0.000000       15.9990           
   10102 A    2526 TIP4 H1   HW0      0.679100        1.0080           
   10103 A    2526 TIP4 H2   HW0      0.679100        1.0080           
   10104 A    2526 TIP4 BD1  LP0     -1.358200        0.0000           
   10105 A    2527 TIP4 O1   OW0      0.000000       15.9990           
   10106 A    2527 TIP4 H1   HW0      0.679100        1.0080           
   10107 A    2527 TIP4 H2   HW0      0.679100        1.0080           
   10108 A    2527 TIP4 BD1  LP0     -1.358200        0.0000           
   10109 A    2528 TIP4 O1   OW0      0.000000       15.9990           
   10110 A    2528 TIP4 H1   HW0      0.679100        1.0080           
   10111 A    2528 TIP4 H2   HW0      0.679100        1.0080           
   10112 A    2528 TIP4 BD1  LP0     -1.358200        0.0000           
   10113 A    2529 TIP4 O1   OW0      0.000000       15.9990           
   10114 A    2529 TIP4 H1   HW0      0.679100        1.0080           
   10115 A    2529 TIP4 H2   HW0      0.679100        1.0080           
   10116 A    2529 TIP4 BD1  LP0     -1.358200        0.0000           
   10117 A    2530 TIP4 O1   OW0      0.000000       15.9990           
   10118 A    2530 TIP4 H1   HW0      0.679100        1.0080           
   10119 A    2530 TIP4 H2   HW0      0.679100        1.0080           
   10120 A    2530 TIP4 BD1  LP0     -1.358200        0.0000           
   10121 A    2531 TIP4 O1   OW0      0.000000       15.9990           
   10122 A    2531 TIP4 H1   HW0      0.679100        1.0080           
   10123 A    2531 TIP4 H2   HW0      0.679100        1.0080           
   10124 A    2531 TIP4 BD1  LP0     -1.358200        0.0000           
   10125 A    2532 TIP4 O1   OW0      0.000000       15.9990           
   10126 A    2532 TIP4 H1   HW0      0.679100        1.0080           
   10127 A    2532 TIP4 H2   HW0      0.679100        1.0080           
   10128 A    2532 TIP4 BD1  LP0     -1.358200        0.0000           
   10129 A    2533 TIP4 O1   OW0      0.000000       15.9990           
   10130 A    2533 TIP4 H1   HW0      0.679100        1.0080           
   10131 A    2533 TIP4 H2   HW0      0.679100        1.0080           
   10132 A    2533 TIP4 BD1  LP0     -1.358200        0.0000           
   10133 A    2534 TIP4 O1   OW0      0.000000       15.9990           
   10134 A    2534 TIP4 H1   HW0      0.679100        1.0080           
   10135 A    2534 TIP4 H2   HW0      0.679100        1.0080           
   10136 A    2534 TIP4 BD1  LP0     -1.358200        0.0000           
   10137 A    2535 TIP4 O1   OW0      0.000000       15.9990           
   10138 A    2535 TIP4 H1   HW0      0.679100        1.0080           
   10139 A    2535 TIP4 H2   HW0      0.679100        1.0080           
   10140 A    2535 TIP4 BD1  LP0     -1.358200        0.0000           
   10141 A    2536 TIP4 O1   OW0      0.000000       15.9990           
   10142 A    2536 TIP4 H1   HW0      0.679100        1.0080           
   10143 A    2536 TIP4 H2   HW0      0.679100        1.0080           
   10144 A    2536 TIP4 BD1  LP0     -1.358200        0.0000           
   10145 A    2537 TIP4 O1   OW0      0.000000       15.9990           
   10146 A    2537 TIP4 H1   HW0      0.679100        1.0080           
   10147 A    2537 TIP4 H2   HW0      0.679100        1.0080           
   10148 A    2537 TIP4 BD1  LP0     -1.358200        0.0000           
   10149 A    2538 TIP4 O1   OW0      0.000000       15.9990           
   10150 A    2538 TIP4 H1   HW0      0.679100        1.0080           
   10151 A    2538 TIP4 H2   HW0      0.679100        1.0080           
   10152 A    2538 TIP4 BD1  LP0     -1.358200        0.0000           
   10153 A    2539 TIP4 O1   OW0      0.000000       15.9990           
   10154 A    2539 TIP4 H1   HW0      0.679100        1.0080           
   10155 A    2539 TIP4 H2   HW0      0.679100        1.0080           
   10156 A    2539 TIP4 BD1  LP0     -1.358200        0.0000           
   10157 A    2540 TIP4 O1   OW0      0.000000       15.9990           
   10158 A    2540 TIP4 H1   HW0      0.679100        1.0080           
   10159 A    2540 TIP4 H2   HW0      0.679100        1.0080           
   10160 A    2540 TIP4 BD1  LP0     -1.358200        0.0000           
   10161 A    2541 TIP4 O1   OW0      0.000000       15.9990           
   10162 A    2541 TIP4 H1   HW0      0.679100        1.0080           
   10163 A    2541 TIP4 H2   HW0      0.679100        1.0080           
   10164 A    2541 TIP4 BD1  LP0     -1.358200        0.0000           
   10165 A    2542 TIP4 O1   OW0      0.000000       15.9990           
   10166 A    2542 TIP4 H1   HW0      0.679100        1.0080           
   10167 A    2542 TIP4 H2   HW0      0.679100        1.0080           
   10168 A    2542 TIP4 BD1  LP0     -1.358200        0.0000           
   10169 A    2543 TIP4 O1   OW0      0.000000       15.9990           
   10170 A    2543 TIP4 H1   HW0      0.679100        1.0080           
   10171 A    2543 TIP4 H2   HW0      0.679100        1.0080           
   10172 A    2543 TIP4 BD1  LP0     -1.358200        0.0000           
   10173 A    2544 TIP4 O1   OW0      0.000000       15.9990           
   10174 A    2544 TIP4 H1   HW0      0.679100        1.0080           
   10175 A    2544 TIP4 H2   HW0      0.679100        1.0080           
   10176 A    2544 TIP4 BD1  LP0     -1.358200        0.0000           
   10177 A    2545 TIP4 O1   OW0      0.000000       15.9990           
   10178 A    2545 TIP4 H1   HW0      0.679100        1.0080           
   10179 A    2545 TIP4 H2   HW0      0.679100        1.0080           
   10180 A    2545 TIP4 BD1  LP0     -1.358200        0.0000           
   10181 A    2546 TIP4 O1   OW0      0.000000       15.9990           
   10182 A    2546 TIP4 H1   HW0      0.679100        1.0080           
   10183 A    2546 TIP4 H2   HW0      0.679100        1.0080           
   10184 A    2546 TIP4 BD1  LP0     -1.358200        0.0000           
   10185 A    2547 TIP4 O1   OW0      0.000000       15.9990           
   10186 A    2547 TIP4 H1   HW0      0.679100        1.0080           
   10187 A    2547 TIP4 H2   HW0      0.679100        1.0080           
   10188 A    2547 TIP4 BD1  LP0     -1.358200        0.0000           
   10189 A    2548 TIP4 O1   OW0      0.000000       15.9990           
   10190 A    2548 TIP4 H1   HW0      0.679100        1.0080           
   10191 A    2548 TIP4 H2   HW0      0.679100        1.0080           
   10192 A    2548 TIP4 BD1  LP0     -1.358200        0.0000           
   10193 A    2549 TIP4 O1   OW0      0.000000       15.9990           
   10194 A    2549 TIP4 H1   HW0      0.679100        1.0080           
   10195 A    2549 TIP4 H2   HW0      0.679100        1.0080           
   10196 A    2549 TIP4 BD1  LP0     -1.358200        0.0000           
   10197 A    2550 TIP4 O1   OW0      0.000000       15.9990           
   10198 A    2550 TIP4 H1   HW0      0.679100        1.0080           
   10199 A    2550 TIP4 H2   HW0      0.679100        1.0080           
   10200 A    2550 TIP4 BD1  LP0     -1.358200        0.0000           
   10201 A    2551 TIP4 O1   OW0      0.000000       15.9990           
   10202 A    2551 TIP4 H1   HW0      0.679100        1.0080           
   10203 A    2551 TIP4 H2   HW0      0.679100        1.0080           
   10204 A    2551 TIP4 BD1  LP0     -1.358200        0.0000           
   10205 A    2552 TIP4 O1   OW0      0.000000       15.9990           
   10206 A    2552 TIP4 H1   HW0      0.679100        1.0080           
   10207 A    2552 TIP4 H2   HW0      0.679100        1.0080           
   10208 A    2552 TIP4 BD1  LP0     -1.358200        0.0000           
   10209 A    2553 TIP4 O1   OW0      0.000000       15.9990           
   10210 A    2553 TIP4 H1   HW0      0.679100        1.0080           
   10211 A    2553 TIP4 H2   HW0      0.679100        1.0080           
   10212 A    2553 TIP4 BD1  LP0     -1.358200        0.0000           
   10213 A    2554 TIP4 O1   OW0      0.000000       15.9990           
   10214 A    2554 TIP4 H1   HW0      0.679100        1.0080           
   10215 A    2554 TIP4 H2   HW0      0.679100        1.0080           
   10216 A    2554 TIP4 BD1  LP0     -1.358200        0.0000           
   10217 A    2555 TIP4 O1   OW0      0.000000       15.9990           
   10218 A    2555 TIP4 H1   HW0      0.679100        1.0080           
   10219 A    2555 TIP4 H2   HW0      0.679100        1.0080           
   10220 A    2555 TIP4 BD1  LP0     -1.358200        0.0000           
   10221 A    2556 TIP4 O1   OW0      0.000000       15.9990           
   10222 A    2556 TIP4 H1   HW0      0.679100        1.0080           
   10223 A    2556 TIP4 H2   HW0      0.679100        1.0080           
   10224 A    2556 TIP4 BD1  LP0     -1.358200        0.0000           
   10225 A    2557 TIP4 O1   OW0      0.000000       15.9990           
   10226 A    2557 TIP4 H1   HW0      0.679100        1.0080           
   10227 A    2557 TIP4 H2   HW0      0.679100        1.0080           
   10228 A    2557 TIP4 BD1  LP0     -1.358200        0.0000           
   10229 A    2558 TIP4 O1   OW0      0.000000       15.9990           
   10230 A    2558 TIP4 H1   HW0      0.679100        1.0080           
   10231 A    2558 TIP4 H2   HW0      0.679100        1.0080           
   10232 A    2558 TIP4 BD1  LP0     -1.358200        0.0000           
   10233 A    2559 TIP4 O1   OW0      0.000000       15.9990           
   10234 A    2559 TIP4 H1   HW0      0.679100        1.0080           
   10235 A    2559 TIP4 H2   HW0      0.679100        1.0080           
   10236 A    2559 TIP4 BD1  LP0     -1.358200        0.0000           
   10237 A    2560 TIP4 O1   OW0      0.000000       15.9990           
   10238 A    2560 TIP4 H1   HW0      0.679100        1.0080           
   10239 A    2560 TIP4 H2   HW0      0.679100        1.0080           
   10240 A    2560 TIP4 BD1  LP0     -1.358200        0.0000           
   10241 A    2561 TIP4 O1   OW0      0.000000       15.9990           
   10242 A    2561 TIP4 H1   HW0      0.679100        1.0080           
   10243 A    2561 TIP4 H2   HW0      0.679100        1.0080           
   10244 A    2561 TIP4 BD1  LP0     -1.358200        0.0000           
   10245 A    2562 TIP4 O1   OW0      0.000000       15.9990           
   10246 A    2562 TIP4 H1   HW0      0.679100        1.0080           
   10247 A    2562 TIP4 H2   HW0      0.679100        1.0080           
   10248 A    2562 TIP4 BD1  LP0     -1.358200        0.0000           
   10249 A    2563 TIP4 O1   OW0      0.000000       15.9990           
   10250 A    2563 TIP4 H1   HW0      0.679100        1.0080           
   10251 A    2563 TIP4 H2   HW0      0.679100        1.0080           
   10252 A    2563 TIP4 BD1  LP0     -1.358200        0.0000           
   10253 A    2564 TIP4 O1   OW0      0.000000       15.9990           
   10254 A    2564 TIP4 H1   HW0      0.679100        1.0080           
   10255 A    2564 TIP4 H2   HW0      0.679100        1.0080           
   10256 A    2564 TIP4 BD1  LP0     -1.358200        0.0000           
   10257 A    2565 TIP4 O1   OW0      0.000000       15.9990           
   10258 A    2565 TIP4 H1   HW0      0.679100        1.0080           
   10259 A    2565 TIP4 H2   HW0      0.679100        1.0080           
   10260 A    2565 TIP4 BD1  LP0     -1.358200        0.0000           
   10261 A    2566 TIP4 O1   OW0      0.000000       15.9990           
   10262 A    2566 TIP4 H1   HW0      0.679100        1.0080           
   10263 A    2566 TIP4 H2   HW0      0.679100        1.0080           
   10264 A    2566 TIP4 BD1  LP0     -1.358200        0.0000           
   10265 A    2567 TIP4 O1   OW0      0.000000       15.9990           
   10266 A    2567 TIP4 H1   HW0      0.679100        1.0080           
   10267 A    2567 TIP4 H2   HW0      0.679100        1.0080           
   10268 A    2567 TIP4 BD1  LP0     -1.358200        0.0000           
   10269 A    2568 TIP4 O1   OW0      0.000000       15.9990           
   10270 A    2568 TIP4 H1   HW0      0.679100        1.0080           
   10271 A    2568 TIP4 H2   HW0      0.679100        1.0080           
   10272 A    2568 TIP4 BD1  LP0     -1.358200        0.0000           
   10273 A    2569 TIP4 O1   OW0      0.000000       15.9990           
   10274 A    2569 TIP4 H1   HW0      0.679100        1.0080           
   10275 A    2569 TIP4 H2   HW0      0.679100        1.0080           
   10276 A    2569 TIP4 BD1  LP0     -1.358200        0.0000           
   10277 A    2570 TIP4 O1   OW0      0.000000       15.9990           
   10278 A    2570 TIP4 H1   HW0      0.679100        1.0080           
   10279 A    2570 TIP4 H2   HW0      0.679100        1.0080           
   10280 A    2570 TIP4 BD1  LP0     -1.358200        0.0000           
   10281 A    2571 TIP4 O1   OW0      0.000000       15.9990           
   10282 A    2571 TIP4 H1   HW0      0.679100        1.0080           
   10283 A    2571 TIP4 H2   HW0      0.679100        1.0080           
   10284 A    2571 TIP4 BD1  LP0     -1.358200        0.0000           
   10285 A    2572 TIP4 O1   OW0      0.000000       15.9990           
   10286 A    2572 TIP4 H1   HW0      0.679100        1.0080           
   10287 A    2572 TIP4 H2   HW0      0.679100        1.0080           
   10288 A    2572 TIP4 BD1  LP0     -1.358200        0.0000           
   10289 A    2573 TIP4 O1   OW0      0.000000       15.9990           
   10290 A    2573 TIP4 H1   HW0      0.679100        1.0080           
   10291 A    2573 TIP4 H2   HW0      0.679100        1.0080           
   10292 A    2573 TIP4 BD1  LP0     -1.358200        0.0000           
   10293 A    2574 TIP4 O1   OW0      0.000000       15.9990           
   10294 A    2574 TIP4 H1   HW0      0.679100        1.0080           
   10295 A    2574 TIP4 H2   HW0      0.679100        1.0080           
   10296 A    2574 TIP4 BD1  LP0     -1.358200        0.0000           
   10297 A    2575 TIP4 O1   OW0      0.000000       15.9990           
   10298 A    2575 TIP4 H1   HW0      0.679100        1.0080           
   10299 A    2575 TIP4 H2   HW0      0.679100        1.0080           
   10300 A    2575 TIP4 BD1  LP0     -1.358200        0.0000           
   10301 A    2576 TIP4 O1   OW0      0.000000       15.9990           
   10302 A    2576 TIP4 H1   HW0      0.679100        1.0080           
   10303 A    2576 TIP4 H2   HW0      0.679100        1.0080           
   10304 A    2576 TIP4 BD1  LP0     -1.358200        0.0000           
   10305 A    2577 TIP4 O1   OW0      0.000000       15.9990           
   10306 A    2577 TIP4 H1   HW0      0.679100        1.0080           
   10307 A    2577 TIP4 H2   HW0      0.679100        1.0080           
   10308 A    2577 TIP4 BD1  LP0     -1.358200        0.0000           
   10309 A    2578 TIP4 O1   OW0      0.000000       15.9990           
   10310 A    2578 TIP4 H1   HW0      0.679100        1.0080           
   10311 A    2578 TIP4 H2   HW0      0.679100        1.0080           
   10312 A    2578 TIP4 BD1  LP0     -1.358200        0.0000           
   10313 A    2579 TIP4 O1   OW0      0.000000       15.9990           
   10314 A    2579 TIP4 H1   HW0      0.679100        1.0080           
   10315 A    2579 TIP4 H2   HW0      0.679100        1.0080           
   10316 A    2579 TIP4 BD1  LP0     -1.358200        0.0000           
   10317 A    2580 TIP4 O1   OW0      0.000000       15.9990           
   10318 A    2580 TIP4 H1   HW0      0.679100        1.0080           
   10319 A    2580 TIP4 H2   HW0      0.679100        1.0080           
   10320 A    2580 TIP4 BD1  LP0     -1.358200        0.0000           
   10321 A    2581 TIP4 O1   OW0      0.000000       15.9990           
   10322 A    2581 TIP4 H1   HW0      0.679100        1.0080           
   10323 A    2581 TIP4 H2   HW0      0.679100        1.0080           
   10324 A    2581 TIP4 BD1  LP0     -1.358200        0.0000           
   10325 A    2582 TIP4 O1   OW0      0.000000       15.9990           
   10326 A    2582 TIP4 H1   HW0      0.679100        1.0080           
   10327 A    2582 TIP4 H2   HW0      0.679100        1.0080           
   10328 A    2582 TIP4 BD1  LP0     -1.358200        0.0000           
   10329 A    2583 TIP4 O1   OW0      0.000000       15.9990           
   10330 A    2583 TIP4 H1   HW0      0.679100        1.0080           
   10331 A    2583 TIP4 H2   HW0      0.679100        1.0080           
   10332 A    2583 TIP4 BD1  LP0     -1.358200        0.0000           
   10333 A    2584 TIP4 O1   OW0      0.000000       15.9990           
   10334 A    2584 TIP4 H1   HW0      0.679100        1.0080           
   10335 A    2584 TIP4 H2   HW0      0.679100        1.0080           
   10336 A    2584 TIP4 BD1  LP0     -1.358200        0.0000           
   10337 A    2585 TIP4 O1   OW0      0.000000       15.9990           
   10338 A    2585 TIP4 H1   HW0      0.679100        1.0080           
   10339 A    2585 TIP4 H2   HW0      0.679100        1.0080           
   10340 A    2585 TIP4 BD1  LP0     -1.358200        0.0000           
   10341 A    2586 TIP4 O1   OW0      0.000000       15.9990           
   10342 A    2586 TIP4 H1   HW0      0.679100        1.0080           
   10343 A    2586 TIP4 H2   HW0      0.679100        1.0080           
   10344 A    2586 TIP4 BD1  LP0     -1.358200        0.0000           
   10345 A    2587 TIP4 O1   OW0      0.000000       15.9990           
   10346 A    2587 TIP4 H1   HW0      0.679100        1.0080           
   10347 A    2587 TIP4 H2   HW0      0.679100        1.0080           
   10348 A    2587 TIP4 BD1  LP0     -1.358200        0.0000           
   10349 A    2588 TIP4 O1   OW0      0.000000       15.9990           
   10350 A    2588 TIP4 H1   HW0      0.679100        1.0080           
   10351 A    2588 TIP4 H2   HW0      0.679100        1.0080           
   10352 A    2588 TIP4 BD1  LP0     -1.358200        0.0000           
   10353 A    2589 TIP4 O1   OW0      0.000000       15.9990           
   10354 A    2589 TIP4 H1   HW0      0.679100        1.0080           
   10355 A    2589 TIP4 H2   HW0      0.679100        1.0080           
   10356 A    2589 TIP4 BD1  LP0     -1.358200        0.0000           
   10357 A    2590 TIP4 O1   OW0      0.000000       15.9990           
   10358 A    2590 TIP4 H1   HW0      0.679100        1.0080           
   10359 A    2590 TIP4 H2   HW0      0.679100        1.0080           
   10360 A    2590 TIP4 BD1  LP0     -1.358200        0.0000           
   10361 A    2591 TIP4 O1   OW0      0.000000       15.9990           
   10362 A    2591 TIP4 H1   HW0      0.679100        1.0080           
   10363 A    2591 TIP4 H2   HW0      0.679100        1.0080           
   10364 A    2591 TIP4 BD1  LP0     -1.358200        0.0000           
   10365 A    2592 TIP4 O1   OW0      0.000000       15.9990           
   10366 A    2592 TIP4 H1   HW0      0.679100        1.0080           
   10367 A    2592 TIP4 H2   HW0      0.679100        1.0080           
   10368 A    2592 TIP4 BD1  LP0     -1.358200        0.0000           
   10369 A    2593 TIP4 O1   OW0      0.000000       15.9990           
   10370 A    2593 TIP4 H1   HW0      0.679100        1.0080           
   10371 A    2593 TIP4 H2   HW0      0.679100        1.0080           
   10372 A    2593 TIP4 BD1  LP0     -1.358200        0.0000           
   10373 A    2594 TIP4 O1   OW0      0.000000       15.9990           
   10374 A    2594 TIP4 H1   HW0      0.679100        1.0080           
   10375 A    2594 TIP4 H2   HW0      0.679100        1.0080           
   10376 A    2594 TIP4 BD1  LP0     -1.358200        0.0000           
   10377 A    2595 TIP4 O1   OW0      0.000000       15.9990           
   10378 A    2595 TIP4 H1   HW0      0.679100        1.0080           
   10379 A    2595 TIP4 H2   HW0      0.679100        1.0080           
   10380 A    2595 TIP4 BD1  LP0     -1.358200        0.0000           
   10381 A    2596 TIP4 O1   OW0      0.000000       15.9990           
   10382 A    2596 TIP4 H1   HW0      0.679100        1.0080           
   10383 A    2596 TIP4 H2   HW0      0.679100        1.0080           
   10384 A    2596 TIP4 BD1  LP0     -1.358200        0.0000           
   10385 A    2597 TIP4 O1   OW0      0.000000       15.9990           
   10386 A    2597 TIP4 H1   HW0      0.679100        1.0080           
   10387 A    2597 TIP4 H2   HW0      0.679100        1.0080           
   10388 A    2597 TIP4 BD1  LP0     -1.358200        0.0000           
   10389 A    2598 TIP4 O1   OW0      0.000000       15.9990           
   10390 A    2598 TIP4 H1   HW0      0.679100        1.0080           
   10391 A    2598 TIP4 H2   HW0      0.679100        1.0080           
   10392 A    2598 TIP4 BD1  LP0     -1.358200        0.0000           
   10393 A    2599 TIP4 O1   OW0      0.000000       15.9990           
   10394 A    2599 TIP4 H1   HW0      0.679100        1.0080           
   10395 A    2599 TIP4 H2   HW0      0.679100        1.0080           
   10396 A    2599 TIP4 BD1  LP0     -1.358200        0.0000           
   10397 A    2600 TIP4 O1   OW0      0.000000       15.9990           
   10398 A    2600 TIP4 H1   HW0      0.679100        1.0080           
   10399 A    2600 TIP4 H2   HW0      0.679100        1.0080           
   10400 A    2600 TIP4 BD1  LP0     -1.358200        0.0000           
   10401 A    2601 TIP4 O1   OW0      0.000000       15.9990           
   10402 A    2601 TIP4 H1   HW0      0.679100        1.0080           
   10403 A    2601 TIP4 H2   HW0      0.679100        1.0080           
   10404 A    2601 TIP4 BD1  LP0     -1.358200        0.0000           
   10405 A    2602 TIP4 O1   OW0      0.000000       15.9990           
   10406 A    2602 TIP4 H1   HW0      0.679100        1.0080           
   10407 A    2602 TIP4 H2   HW0      0.679100        1.0080           
   10408 A    2602 TIP4 BD1  LP0     -1.358200        0.0000           
   10409 A    2603 TIP4 O1   OW0      0.000000       15.9990           
   10410 A    2603 TIP4 H1   HW0      0.679100        1.0080           
   10411 A    2603 TIP4 H2   HW0      0.679100        1.0080           
   10412 A    2603 TIP4 BD1  LP0     -1.358200        0.0000           
   10413 A    2604 TIP4 O1   OW0      0.000000       15.9990           
   10414 A    2604 TIP4 H1   HW0      0.679100        1.0080           
   10415 A    2604 TIP4 H2   HW0      0.679100        1.0080           
   10416 A    2604 TIP4 BD1  LP0     -1.358200        0.0000           
   10417 A    2605 TIP4 O1   OW0      0.000000       15.9990           
   10418 A    2605 TIP4 H1   HW0      0.679100        1.0080           
   10419 A    2605 TIP4 H2   HW0      0.679100        1.0080           
   10420 A    2605 TIP4 BD1  LP0     -1.358200        0.0000           
   10421 A    2606 TIP4 O1   OW0      0.000000       15.9990           
   10422 A    2606 TIP4 H1   HW0      0.679100        1.0080           
   10423 A    2606 TIP4 H2   HW0      0.679100        1.0080           
   10424 A    2606 TIP4 BD1  LP0     -1.358200        0.0000           
   10425 A    2607 TIP4 O1   OW0      0.000000       15.9990           
   10426 A    2607 TIP4 H1   HW0      0.679100        1.0080           
   10427 A    2607 TIP4 H2   HW0      0.679100        1.0080           
   10428 A    2607 TIP4 BD1  LP0     -1.358200        0.0000           
   10429 A    2608 TIP4 O1   OW0      0.000000       15.9990           
   10430 A    2608 TIP4 H1   HW0      0.679100        1.0080           
   10431 A    2608 TIP4 H2   HW0      0.679100        1.0080           
   10432 A    2608 TIP4 BD1  LP0     -1.358200        0.0000           
   10433 A    2609 TIP4 O1   OW0      0.000000       15.9990           
   10434 A    2609 TIP4 H1   HW0      0.679100        1.0080           
   10435 A    2609 TIP4 H2   HW0      0.679100        1.0080           
   10436 A    2609 TIP4 BD1  LP0     -1.358200        0.0000           
   10437 A    2610 TIP4 O1   OW0      0.000000       15.9990           
   10438 A    2610 TIP4 H1   HW0      0.679100        1.0080           
   10439 A    2610 TIP4 H2   HW0      0.679100        1.0080           
   10440 A    2610 TIP4 BD1  LP0     -1.358200        0.0000           
   10441 A    2611 TIP4 O1   OW0      0.000000       15.9990           
   10442 A    2611 TIP4 H1   HW0      0.679100        1.0080           
   10443 A    2611 TIP4 H2   HW0      0.679100        1.0080           
   10444 A    2611 TIP4 BD1  LP0     -1.358200        0.0000           
   10445 A    2612 TIP4 O1   OW0      0.000000       15.9990           
   10446 A    2612 TIP4 H1   HW0      0.679100        1.0080           
   10447 A    2612 TIP4 H2   HW0      0.679100        1.0080           
   10448 A    2612 TIP4 BD1  LP0     -1.358200        0.0000           
   10449 A    2613 TIP4 O1   OW0      0.000000       15.9990           
   10450 A    2613 TIP4 H1   HW0      0.679100        1.0080           
   10451 A    2613 TIP4 H2   HW0      0.679100        1.0080           
   10452 A    2613 TIP4 BD1  LP0     -1.358200        0.0000           
   10453 A    2614 TIP4 O1   OW0      0.000000       15.9990           
   10454 A    2614 TIP4 H1   HW0      0.679100        1.0080           
   10455 A    2614 TIP4 H2   HW0      0.679100        1.0080           
   10456 A    2614 TIP4 BD1  LP0     -1.358200        0.0000           
   10457 A    2615 TIP4 O1   OW0      0.000000       15.9990           
   10458 A    2615 TIP4 H1   HW0      0.679100        1.0080           
   10459 A    2615 TIP4 H2   HW0      0.679100        1.0080           
   10460 A    2615 TIP4 BD1  LP0     -1.358200        0.0000           
   10461 A    2616 TIP4 O1   OW0      0.000000       15.9990           
   10462 A    2616 TIP4 H1   HW0      0.679100        1.0080           
   10463 A    2616 TIP4 H2   HW0      0.679100        1.0080           
   10464 A    2616 TIP4 BD1  LP0     -1.358200        0.0000           
   10465 A    2617 TIP4 O1   OW0      0.000000       15.9990           
   10466 A    2617 TIP4 H1   HW0      0.679100        1.0080           
   10467 A    2617 TIP4 H2   HW0      0.679100        1.0080           
   10468 A    2617 TIP4 BD1  LP0     -1.358200        0.0000           
   10469 A    2618 TIP4 O1   OW0      0.000000       15.9990           
   10470 A    2618 TIP4 H1   HW0      0.679100        1.0080           
   10471 A    2618 TIP4 H2   HW0      0.679100        1.0080           
   10472 A    2618 TIP4 BD1  LP0     -1.358200        0.0000           
   10473 A    2619 TIP4 O1   OW0      0.000000       15.9990           
   10474 A    2619 TIP4 H1   HW0      0.679100        1.0080           
   10475 A    2619 TIP4 H2   HW0      0.679100        1.0080           
   10476 A    2619 TIP4 BD1  LP0     -1.358200        0.0000           
   10477 A    2620 TIP4 O1   OW0      0.000000       15.9990           
   10478 A    2620 TIP4 H1   HW0      0.679100        1.0080           
   10479 A    2620 TIP4 H2   HW0      0.679100        1.0080           
   10480 A    2620 TIP4 BD1  LP0     -1.358200        0.0000           
   10481 A    2621 TIP4 O1   OW0      0.000000       15.9990           
   10482 A    2621 TIP4 H1   HW0      0.679100        1.0080           
   10483 A    2621 TIP4 H2   HW0      0.679100        1.0080           
   10484 A    2621 TIP4 BD1  LP0     -1.358200        0.0000           
   10485 A    2622 TIP4 O1   OW0      0.000000       15.9990           
   10486 A    2622 TIP4 H1   HW0      0.679100        1.0080           
   10487 A    2622 TIP4 H2   HW0      0.679100        1.0080           
   10488 A    2622 TIP4 BD1  LP0     -1.358200        0.0000           
   10489 A    2623 TIP4 O1   OW0      0.000000       15.9990           
   10490 A    2623 TIP4 H1   HW0      0.679100        1.0080           
   10491 A    2623 TIP4 H2   HW0      0.679100        1.0080           
   10492 A    2623 TIP4 BD1  LP0     -1.358200        0.0000           
   10493 A    2624 TIP4 O1   OW0      0.000000       15.9990           
   10494 A    2624 TIP4 H1   HW0      0.679100        1.0080           
   10495 A    2624 TIP4 H2   HW0      0.679100        1.0080           
   10496 A    2624 TIP4 BD1  LP0     -1.358200        0.0000           
   10497 A    2625 TIP4 O1   OW0      0.000000       15.9990           
   10498 A    2625 TIP4 H1   HW0      0.679100        1.0080           
   10499 A    2625 TIP4 H2   HW0      0.679100        1.0080           
   10500 A    2625 TIP4 BD1  LP0     -1.358200        0.0000           
   10501 A    2626 TIP4 O1   OW0      0.000000       15.9990           
   10502 A    2626 TIP4 H1   HW0      0.679100        1.0080           
   10503 A    2626 TIP4 H2   HW0      0.679100        1.0080           
   10504 A    2626 TIP4 BD1  LP0     -1.358200        0.0000           
   10505 A    2627 TIP4 O1   OW0      0.000000       15.9990           
   10506 A    2627 TIP4 H1   HW0      0.679100        1.0080           
   10507 A    2627 TIP4 H2   HW0      0.679100        1.0080           
   10508 A    2627 TIP4 BD1  LP0     -1.358200        0.0000           
   10509 A    2628 TIP4 O1   OW0      0.000000       15.9990           
   10510 A    2628 TIP4 H1   HW0      0.679100        1.0080           
   10511 A    2628 TIP4 H2   HW0      0.679100        1.0080           
   10512 A    2628 TIP4 BD1  LP0     -1.358200        0.0000           
   10513 A    2629 TIP4 O1   OW0      0.000000       15.9990           
   10514 A    2629 TIP4 H1   HW0      0.679100        1.0080           
   10515 A    2629 TIP4 H2   HW0      0.679100        1.0080           
   10516 A    2629 TIP4 BD1  LP0     -1.358200        0.0000           
   10517 A    2630 TIP4 O1   OW0      0.000000       15.9990           
   10518 A    2630 TIP4 H1   HW0      0.679100        1.0080           
   10519 A    2630 TIP4 H2   HW0      0.679100        1.0080           
   10520 A    2630 TIP4 BD1  LP0     -1.358200        0.0000           
   10521 A    2631 TIP4 O1   OW0      0.000000       15.9990           
   10522 A    2631 TIP4 H1   HW0      0.679100        1.0080           
   10523 A    2631 TIP4 H2   HW0      0.679100        1.0080           
   10524 A    2631 TIP4 BD1  LP0     -1.358200        0.0000           
   10525 A    2632 TIP4 O1   OW0      0.000000       15.9990           
   10526 A    2632 TIP4 H1   HW0      0.679100        1.0080           
   10527 A    2632 TIP4 H2   HW0      0.679100        1.0080           
   10528 A    2632 TIP4 BD1  LP0     -1.358200        0.0000           
   10529 A    2633 TIP4 O1   OW0      0.000000       15.9990           
   10530 A    2633 TIP4 H1   HW0      0.679100        1.0080           
   10531 A    2633 TIP4 H2   HW0      0.679100        1.0080           
   10532 A    2633 TIP4 BD1  LP0     -1.358200        0.0000           
   10533 A    2634 TIP4 O1   OW0      0.000000       15.9990           
   10534 A    2634 TIP4 H1   HW0      0.679100        1.0080           
   10535 A    2634 TIP4 H2   HW0      0.679100        1.0080           
   10536 A    2634 TIP4 BD1  LP0     -1.358200        0.0000           
   10537 A    2635 TIP4 O1   OW0      0.000000       15.9990           
   10538 A    2635 TIP4 H1   HW0      0.679100        1.0080           
   10539 A    2635 TIP4 H2   HW0      0.679100        1.0080           
   10540 A    2635 TIP4 BD1  LP0     -1.358200        0.0000           
   10541 A    2636 TIP4 O1   OW0      0.000000       15.9990           
   10542 A    2636 TIP4 H1   HW0      0.679100        1.0080           
   10543 A    2636 TIP4 H2   HW0      0.679100        1.0080           
   10544 A    2636 TIP4 BD1  LP0     -1.358200        0.0000           
   10545 A    2637 TIP4 O1   OW0      0.000000       15.9990           
   10546 A    2637 TIP4 H1   HW0      0.679100        1.0080           
   10547 A    2637 TIP4 H2   HW0      0.679100        1.0080           
   10548 A    2637 TIP4 BD1  LP0     -1.358200        0.0000           
   10549 A    2638 TIP4 O1   OW0      0.000000       15.9990           
   10550 A    2638 TIP4 H1   HW0      0.679100        1.0080           
   10551 A    2638 TIP4 H2   HW0      0.679100        1.0080           
   10552 A    2638 TIP4 BD1  LP0     -1.358200        0.0000           
   10553 A    2639 TIP4 O1   OW0      0.000000       15.9990           
   10554 A    2639 TIP4 H1   HW0      0.679100        1.0080           
   10555 A    2639 TIP4 H2   HW0      0.679100        1.0080           
   10556 A    2639 TIP4 BD1  LP0     -1.358200        0.0000           
   10557 A    2640 TIP4 O1   OW0      0.000000       15.9990           
   10558 A    2640 TIP4 H1   HW0      0.679100        1.0080           
   10559 A    2640 TIP4 H2   HW0      0.679100        1.0080           
   10560 A    2640 TIP4 BD1  LP0     -1.358200        0.0000           
   10561 A    2641 TIP4 O1   OW0      0.000000       15.9990           
   10562 A    2641 TIP4 H1   HW0      0.679100        1.0080           
   10563 A    2641 TIP4 H2   HW0      0.679100        1.0080           
   10564 A    2641 TIP4 BD1  LP0     -1.358200        0.0000           
   10565 A    2642 TIP4 O1   OW0      0.000000       15.9990           
   10566 A    2642 TIP4 H1   HW0      0.679100        1.0080           
   10567 A    2642 TIP4 H2   HW0      0.679100        1.0080           
   10568 A    2642 TIP4 BD1  LP0     -1.358200        0.0000           
   10569 A    2643 TIP4 O1   OW0      0.000000       15.9990           
   10570 A    2643 TIP4 H1   HW0      0.679100        1.0080           
   10571 A    2643 TIP4 H2   HW0      0.679100        1.0080           
   10572 A    2643 TIP4 BD1  LP0     -1.358200        0.0000           
   10573 A    2644 TIP4 O1   OW0      0.000000       15.9990           
   10574 A    2644 TIP4 H1   HW0      0.679100        1.0080           
   10575 A    2644 TIP4 H2   HW0      0.679100        1.0080           
   10576 A    2644 TIP4 BD1  LP0     -1.358200        0.0000           
   10577 A    2645 TIP4 O1   OW0      0.000000       15.9990           
   10578 A    2645 TIP4 H1   HW0      0.679100        1.0080           
   10579 A    2645 TIP4 H2   HW0      0.679100        1.0080           
   10580 A    2645 TIP4 BD1  LP0     -1.358200        0.0000           
   10581 A    2646 TIP4 O1   OW0      0.000000       15.9990           
   10582 A    2646 TIP4 H1   HW0      0.679100        1.0080           
   10583 A    2646 TIP4 H2   HW0      0.679100        1.0080           
   10584 A    2646 TIP4 BD1  LP0     -1.358200        0.0000           
   10585 A    2647 TIP4 O1   OW0      0.000000       15.9990           
   10586 A    2647 TIP4 H1   HW0      0.679100        1.0080           
   10587 A    2647 TIP4 H2   HW0      0.679100        1.0080           
   10588 A    2647 TIP4 BD1  LP0     -1.358200        0.0000           
   10589 A    2648 TIP4 O1   OW0      0.000000       15.9990           
   10590 A    2648 TIP4 H1   HW0      0.679100        1.0080           
   10591 A    2648 TIP4 H2   HW0      0.679100        1.0080           
   10592 A    2648 TIP4 BD1  LP0     -1.358200        0.0000           
   10593 A    2649 TIP4 O1   OW0      0.000000       15.9990           
   10594 A    2649 TIP4 H1   HW0      0.679100        1.0080           
   10595 A    2649 TIP4 H2   HW0      0.679100        1.0080           
   10596 A    2649 TIP4 BD1  LP0     -1.358200        0.0000           
   10597 A    2650 TIP4 O1   OW0      0.000000       15.9990           
   10598 A    2650 TIP4 H1   HW0      0.679100        1.0080           
   10599 A    2650 TIP4 H2   HW0      0.679100        1.0080           
   10600 A    2650 TIP4 BD1  LP0     -1.358200        0.0000           
   10601 A    2651 TIP4 O1   OW0      0.000000       15.9990           
   10602 A    2651 TIP4 H1   HW0      0.679100        1.0080           
   10603 A    2651 TIP4 H2   HW0      0.679100        1.0080           
   10604 A    2651 TIP4 BD1  LP0     -1.358200        0.0000           
   10605 A    2652 TIP4 O1   OW0      0.000000       15.9990           
   10606 A    2652 TIP4 H1   HW0      0.679100        1.0080           
   10607 A    2652 TIP4 H2   HW0      0.679100        1.0080           
   10608 A    2652 TIP4 BD1  LP0     -1.358200        0.0000           
   10609 A    2653 TIP4 O1   OW0      0.000000       15.9990           
   10610 A    2653 TIP4 H1   HW0      0.679100        1.0080           
   10611 A    2653 TIP4 H2   HW0      0.679100        1.0080           
   10612 A    2653 TIP4 BD1  LP0     -1.358200        0.0000           
   10613 A    2654 TIP4 O1   OW0      0.000000       15.9990           
   10614 A    2654 TIP4 H1   HW0      0.679100        1.0080           
   10615 A    2654 TIP4 H2   HW0      0.679100        1.0080           
   10616 A    2654 TIP4 BD1  LP0     -1.358200        0.0000           
   10617 A    2655 TIP4 O1   OW0      0.000000       15.9990           
   10618 A    2655 TIP4 H1   HW0      0.679100        1.0080           
   10619 A    2655 TIP4 H2   HW0      0.679100        1.0080           
   10620 A    2655 TIP4 BD1  LP0     -1.358200        0.0000           
   10621 A    2656 TIP4 O1   OW0      0.000000       15.9990           
   10622 A    2656 TIP4 H1   HW0      0.679100        1.0080           
   10623 A    2656 TIP4 H2   HW0      0.679100        1.0080           
   10624 A    2656 TIP4 BD1  LP0     -1.358200        0.0000           
   10625 A    2657 TIP4 O1   OW0      0.000000       15.9990           
   10626 A    2657 TIP4 H1   HW0      0.679100        1.0080           
   10627 A    2657 TIP4 H2   HW0      0.679100        1.0080           
   10628 A    2657 TIP4 BD1  LP0     -1.358200        0.0000           
   10629 A    2658 TIP4 O1   OW0      0.000000       15.9990           
   10630 A    2658 TIP4 H1   HW0      0.679100        1.0080           
   10631 A    2658 TIP4 H2   HW0      0.679100        1.0080           
   10632 A    2658 TIP4 BD1  LP0     -1.358200        0.0000           
   10633 A    2659 TIP4 O1   OW0      0.000000       15.9990           
   10634 A    2659 TIP4 H1   HW0      0.679100        1.0080           
   10635 A    2659 TIP4 H2   HW0      0.679100        1.0080           
   10636 A    2659 TIP4 BD1  LP0     -1.358200        0.0000           
   10637 A    2660 TIP4 O1   OW0      0.000000       15.9990           
   10638 A    2660 TIP4 H1   HW0      0.679100        1.0080           
   10639 A    2660 TIP4 H2   HW0      0.679100        1.0080           
   10640 A    2660 TIP4 BD1  LP0     -1.358200        0.0000           
   10641 A    2661 TIP4 O1   OW0      0.000000       15.9990           
   10642 A    2661 TIP4 H1   HW0      0.679100        1.0080           
   10643 A    2661 TIP4 H2   HW0      0.679100        1.0080           
   10644 A    2661 TIP4 BD1  LP0     -1.358200        0.0000           
   10645 A    2662 TIP4 O1   OW0      0.000000       15.9990           
   10646 A    2662 TIP4 H1   HW0      0.679100        1.0080           
   10647 A    2662 TIP4 H2   HW0      0.679100        1.0080           
   10648 A    2662 TIP4 BD1  LP0     -1.358200        0.0000           
   10649 A    2663 TIP4 O1   OW0      0.000000       15.9990           
   10650 A    2663 TIP4 H1   HW0      0.679100        1.0080           
   10651 A    2663 TIP4 H2   HW0      0.679100        1.0080           
   10652 A    2663 TIP4 BD1  LP0     -1.358200        0.0000           
   10653 A    2664 TIP4 O1   OW0      0.000000       15.9990           
   10654 A    2664 TIP4 H1   HW0      0.679100        1.0080           
   10655 A    2664 TIP4 H2   HW0      0.679100        1.0080           
   10656 A    2664 TIP4 BD1  LP0     -1.358200        0.0000           
   10657 A    2665 TIP4 O1   OW0      0.000000       15.9990           
   10658 A    2665 TIP4 H1   HW0      0.679100        1.0080           
   10659 A    2665 TIP4 H2   HW0      0.679100        1.0080           
   10660 A    2665 TIP4 BD1  LP0     -1.358200        0.0000           
   10661 A    2666 TIP4 O1   OW0      0.000000       15.9990           
   10662 A    2666 TIP4 H1   HW0      0.679100        1.0080           
   10663 A    2666 TIP4 H2   HW0      0.679100        1.0080           
   10664 A    2666 TIP4 BD1  LP0     -1.358200        0.0000           
   10665 A    2667 TIP4 O1   OW0      0.000000       15.9990           
   10666 A    2667 TIP4 H1   HW0      0.679100        1.0080           
   10667 A    2667 TIP4 H2   HW0      0.679100        1.0080           
   10668 A    2667 TIP4 BD1  LP0     -1.358200        0.0000           
   10669 A    2668 TIP4 O1   OW0      0.000000       15.9990           
   10670 A    2668 TIP4 H1   HW0      0.679100        1.0080           
   10671 A    2668 TIP4 H2   HW0      0.679100        1.0080           
   10672 A    2668 TIP4 BD1  LP0     -1.358200        0.0000           
   10673 A    2669 TIP4 O1   OW0      0.000000       15.9990           
   10674 A    2669 TIP4 H1   HW0      0.679100        1.0080           
   10675 A    2669 TIP4 H2   HW0      0.679100        1.0080           
   10676 A    2669 TIP4 BD1  LP0     -1.358200        0.0000           
   10677 A    2670 TIP4 O1   OW0      0.000000       15.9990           
   10678 A    2670 TIP4 H1   HW0      0.679100        1.0080           
   10679 A    2670 TIP4 H2   HW0      0.679100        1.0080           
   10680 A    2670 TIP4 BD1  LP0     -1.358200        0.0000           
   10681 A    2671 TIP4 O1   OW0      0.000000       15.9990           
   10682 A    2671 TIP4 H1   HW0      0.679100        1.0080           
   10683 A    2671 TIP4 H2   HW0      0.679100        1.0080           
   10684 A    2671 TIP4 BD1  LP0     -1.358200        0.0000           
   10685 A    2672 TIP4 O1   OW0      0.000000       15.9990           
   10686 A    2672 TIP4 H1   HW0      0.679100        1.0080           
   10687 A    2672 TIP4 H2   HW0      0.679100        1.0080           
   10688 A    2672 TIP4 BD1  LP0     -1.358200        0.0000           
   10689 A    2673 TIP4 O1   OW0      0.000000       15.9990           
   10690 A    2673 TIP4 H1   HW0      0.679100        1.0080           
   10691 A    2673 TIP4 H2   HW0      0.679100        1.0080           
   10692 A    2673 TIP4 BD1  LP0     -1.358200        0.0000           
   10693 A    2674 TIP4 O1   OW0      0.000000       15.9990           
   10694 A    2674 TIP4 H1   HW0      0.679100        1.0080           
   10695 A    2674 TIP4 H2   HW0      0.679100        1.0080           
   10696 A    2674 TIP4 BD1  LP0     -1.358200        0.0000           
   10697 A    2675 TIP4 O1   OW0      0.000000       15.9990           
   10698 A    2675 TIP4 H1   HW0      0.679100        1.0080           
   10699 A    2675 TIP4 H2   HW0      0.679100        1.0080           
   10700 A    2675 TIP4 BD1  LP0     -1.358200        0.0000           
   10701 A    2676 TIP4 O1   OW0      0.000000       15.9990           
   10702 A    2676 TIP4 H1   HW0      0.679100        1.0080           
   10703 A    2676 TIP4 H2   HW0      0.679100        1.0080           
   10704 A    2676 TIP4 BD1  LP0     -1.358200        0.0000           
   10705 A    2677 TIP4 O1   OW0      0.000000       15.9990           
   10706 A    2677 TIP4 H1   HW0      0.679100        1.0080           
   10707 A    2677 TIP4 H2   HW0      0.679100        1.0080           
   10708 A    2677 TIP4 BD1  LP0     -1.358200        0.0000           
   10709 A    2678 TIP4 O1   OW0      0.000000       15.9990           
   10710 A    2678 TIP4 H1   HW0      0.679100        1.0080           
   10711 A    2678 TIP4 H2   HW0      0.679100        1.0080           
   10712 A    2678 TIP4 BD1  LP0     -1.358200        0.0000           
   10713 A    2679 TIP4 O1   OW0      0.000000       15.9990           
   10714 A    2679 TIP4 H1   HW0      0.679100        1.0080           
   10715 A    2679 TIP4 H2   HW0      0.679100        1.0080           
   10716 A    2679 TIP4 BD1  LP0     -1.358200        0.0000           
   10717 A    2680 TIP4 O1   OW0      0.000000       15.9990           
   10718 A    2680 TIP4 H1   HW0      0.679100        1.0080           
   10719 A    2680 TIP4 H2   HW0      0.679100        1.0080           
   10720 A    2680 TIP4 BD1  LP0     -1.358200        0.0000           
   10721 A    2681 TIP4 O1   OW0      0.000000       15.9990           
   10722 A    2681 TIP4 H1   HW0      0.679100        1.0080           
   10723 A    2681 TIP4 H2   HW0      0.679100        1.0080           
   10724 A    2681 TIP4 BD1  LP0     -1.358200        0.0000           
   10725 A    2682 TIP4 O1   OW0      0.000000       15.9990           
   10726 A    2682 TIP4 H1   HW0      0.679100        1.0080           
   10727 A    2682 TIP4 H2   HW0      0.679100        1.0080           
   10728 A    2682 TIP4 BD1  LP0     -1.358200        0.0000           
   10729 A    2683 TIP4 O1   OW0      0.000000       15.9990           
   10730 A    2683 TIP4 H1   HW0      0.679100        1.0080           
   10731 A    2683 TIP4 H2   HW0      0.679100        1.0080           
   10732 A    2683 TIP4 BD1  LP0     -1.358200        0.0000           
   10733 A    2684 TIP4 O1   OW0      0.000000       15.9990           
   10734 A    2684 TIP4 H1   HW0      0.679100        1.0080           
   10735 A    2684 TIP4 H2   HW0      0.679100        1.0080           
   10736 A    2684 TIP4 BD1  LP0     -1.358200        0.0000           
   10737 A    2685 TIP4 O1   OW0      0.000000       15.9990           
   10738 A    2685 TIP4 H1   HW0      0.679100        1.0080           
   10739 A    2685 TIP4 H2   HW0      0.679100        1.0080           
   10740 A    2685 TIP4 BD1  LP0     -1.358200        0.0000           
   10741 A    2686 TIP4 O1   OW0      0.000000       15.9990           
   10742 A    2686 TIP4 H1   HW0      0.679100        1.0080           
   10743 A    2686 TIP4 H2   HW0      0.679100        1.0080           
   10744 A    2686 TIP4 BD1  LP0     -1.358200        0.0000           
   10745 A    2687 TIP4 O1   OW0      0.000000       15.9990           
   10746 A    2687 TIP4 H1   HW0      0.679100        1.0080           
   10747 A    2687 TIP4 H2   HW0      0.679100        1.0080           
   10748 A    2687 TIP4 BD1  LP0     -1.358200        0.0000           
   10749 A    2688 TIP4 O1   OW0      0.000000       15.9990           
   10750 A    2688 TIP4 H1   HW0      0.679100        1.0080           
   10751 A    2688 TIP4 H2   HW0      0.679100        1.0080           
   10752 A    2688 TIP4 BD1  LP0     -1.358200        0.0000           
   10753 A    2689 TIP4 O1   OW0      0.000000       15.9990           
   10754 A    2689 TIP4 H1   HW0      0.679100        1.0080           
   10755 A    2689 TIP4 H2   HW0      0.679100        1.0080           
   10756 A    2689 TIP4 BD1  LP0     -1.358200        0.0000           
   10757 A    2690 TIP4 O1   OW0      0.000000       15.9990           
   10758 A    2690 TIP4 H1   HW0      0.679100        1.0080           
   10759 A    2690 TIP4 H2   HW0      0.679100        1.0080           
   10760 A    2690 TIP4 BD1  LP0     -1.358200        0.0000           
   10761 A    2691 TIP4 O1   OW0      0.000000       15.9990           
   10762 A    2691 TIP4 H1   HW0      0.679100        1.0080           
   10763 A    2691 TIP4 H2   HW0      0.679100        1.0080           
   10764 A    2691 TIP4 BD1  LP0     -1.358200        0.0000           
   10765 A    2692 TIP4 O1   OW0      0.000000       15.9990           
   10766 A    2692 TIP4 H1   HW0      0.679100        1.0080           
   10767 A    2692 TIP4 H2   HW0      0.679100        1.0080           
   10768 A    2692 TIP4 BD1  LP0     -1.358200        0.0000           
   10769 A    2693 TIP4 O1   OW0      0.000000       15.9990           
   10770 A    2693 TIP4 H1   HW0      0.679100        1.0080           
   10771 A    2693 TIP4 H2   HW0      0.679100        1.0080           
   10772 A    2693 TIP4 BD1  LP0     -1.358200        0.0000           
   10773 A    2694 TIP4 O1   OW0      0.000000       15.9990           
   10774 A    2694 TIP4 H1   HW0      0.679100        1.0080           
   10775 A    2694 TIP4 H2   HW0      0.679100        1.0080           
   10776 A    2694 TIP4 BD1  LP0     -1.358200        0.0000           
   10777 A    2695 TIP4 O1   OW0      0.000000       15.9990           
   10778 A    2695 TIP4 H1   HW0      0.679100        1.0080           
   10779 A    2695 TIP4 H2   HW0      0.679100        1.0080           
   10780 A    2695 TIP4 BD1  LP0     -1.358200        0.0000           
   10781 A    2696 TIP4 O1   OW0      0.000000       15.9990           
   10782 A    2696 TIP4 H1   HW0      0.679100        1.0080           
   10783 A    2696 TIP4 H2   HW0      0.679100        1.0080           
   10784 A    2696 TIP4 BD1  LP0     -1.358200        0.0000           
   10785 A    2697 TIP4 O1   OW0      0.000000       15.9990           
   10786 A    2697 TIP4 H1   HW0      0.679100        1.0080           
   10787 A    2697 TIP4 H2   HW0      0.679100        1.0080           
   10788 A    2697 TIP4 BD1  LP0     -1.358200        0.0000           
   10789 A    2698 TIP4 O1   OW0      0.000000       15.9990           
   10790 A    2698 TIP4 H1   HW0      0.679100        1.0080           
   10791 A    2698 TIP4 H2   HW0      0.679100        1.0080           
   10792 A    2698 TIP4 BD1  LP0     -1.358200        0.0000           
   10793 A    2699 TIP4 O1   OW0      0.000000       15.9990           
   10794 A    2699 TIP4 H1   HW0      0.679100        1.0080           
   10795 A    2699 TIP4 H2   HW0      0.679100        1.0080           
   10796 A    2699 TIP4 BD1  LP0     -1.358200        0.0000           
   10797 A    2700 TIP4 O1   OW0      0.000000       15.9990           
   10798 A    2700 TIP4 H1   HW0      0.679100        1.0080           
   10799 A    2700 TIP4 H2   HW0      0.679100        1.0080           
   10800 A    2700 TIP4 BD1  LP0     -1.358200        0.0000           
   10801 A    2701 TIP4 O1   OW0      0.000000       15.9990           
   10802 A    2701 TIP4 H1   HW0      0.679100        1.0080           
   10803 A    2701 TIP4 H2   HW0      0.679100        1.0080           
   10804 A    2701 TIP4 BD1  LP0     -1.358200        0.0000           
   10805 A    2702 TIP4 O1   OW0      0.000000       15.9990           
   10806 A    2702 TIP4 H1   HW0      0.679100        1.0080           
   10807 A    2702 TIP4 H2   HW0      0.679100        1.0080           
   10808 A    2702 TIP4 BD1  LP0     -1.358200        0.0000           
   10809 A    2703 TIP4 O1   OW0      0.000000       15.9990           
   10810 A    2703 TIP4 H1   HW0      0.679100        1.0080           
   10811 A    2703 TIP4 H2   HW0      0.679100        1.0080           
   10812 A    2703 TIP4 BD1  LP0     -1.358200        0.0000           
   10813 A    2704 TIP4 O1   OW0      0.000000       15.9990           
   10814 A    2704 TIP4 H1   HW0      0.679100        1.0080           
   10815 A    2704 TIP4 H2   HW0      0.679100        1.0080           
   10816 A    2704 TIP4 BD1  LP0     -1.358200        0.0000           
   10817 A    2705 TIP4 O1   OW0      0.000000       15.9990           
   10818 A    2705 TIP4 H1   HW0      0.679100        1.0080           
   10819 A    2705 TIP4 H2   HW0      0.679100        1.0080           
   10820 A    2705 TIP4 BD1  LP0     -1.358200        0.0000           
   10821 A    2706 TIP4 O1   OW0      0.000000       15.9990           
   10822 A    2706 TIP4 H1   HW0      0.679100        1.0080           
   10823 A    2706 TIP4 H2   HW0      0.679100        1.0080           
   10824 A    2706 TIP4 BD1  LP0     -1.358200        0.0000           
   10825 A    2707 TIP4 O1   OW0      0.000000       15.9990           
   10826 A    2707 TIP4 H1   HW0      0.679100        1.0080           
   10827 A    2707 TIP4 H2   HW0      0.679100        1.0080           
   10828 A    2707 TIP4 BD1  LP0     -1.358200        0.0000           
   10829 A    2708 TIP4 O1   OW0      0.000000       15.9990           
   10830 A    2708 TIP4 H1   HW0      0.679100        1.0080           
   10831 A    2708 TIP4 H2   HW0      0.679100        1.0080           
   10832 A    2708 TIP4 BD1  LP0     -1.358200        0.0000           
   10833 A    2709 TIP4 O1   OW0      0.000000       15.9990           
   10834 A    2709 TIP4 H1   HW0      0.679100        1.0080           
   10835 A    2709 TIP4 H2   HW0      0.679100        1.0080           
   10836 A    2709 TIP4 BD1  LP0     -1.358200        0.0000           
   10837 A    2710 TIP4 O1   OW0      0.000000       15.9990           
   10838 A    2710 TIP4 H1   HW0      0.679100        1.0080           
   10839 A    2710 TIP4 H2   HW0      0.679100        1.0080           
   10840 A    2710 TIP4 BD1  LP0     -1.358200        0.0000           
   10841 A    2711 TIP4 O1   OW0      0.000000       15.9990           
   10842 A    2711 TIP4 H1   HW0      0.679100        1.0080           
   10843 A    2711 TIP4 H2   HW0      0.679100        1.0080           
   10844 A    2711 TIP4 BD1  LP0     -1.358200        0.0000           
   10845 A    2712 TIP4 O1   OW0      0.000000       15.9990           
   10846 A    2712 TIP4 H1   HW0      0.679100        1.0080           
   10847 A    2712 TIP4 H2   HW0      0.679100        1.0080           
   10848 A    2712 TIP4 BD1  LP0     -1.358200        0.0000           
   10849 A    2713 TIP4 O1   OW0      0.000000       15.9990           
   10850 A    2713 TIP4 H1   HW0      0.679100        1.0080           
   10851 A    2713 TIP4 H2   HW0      0.679100        1.0080           
   10852 A    2713 TIP4 BD1  LP0     -1.358200        0.0000           
   10853 A    2714 TIP4 O1   OW0      0.000000       15.9990           
   10854 A    2714 TIP4 H1   HW0      0.679100        1.0080           
   10855 A    2714 TIP4 H2   HW0      0.679100        1.0080           
   10856 A    2714 TIP4 BD1  LP0     -1.358200        0.0000           
   10857 A    2715 TIP4 O1   OW0      0.000000       15.9990           
   10858 A    2715 TIP4 H1   HW0      0.679100        1.0080           
   10859 A    2715 TIP4 H2   HW0      0.679100        1.0080           
   10860 A    2715 TIP4 BD1  LP0     -1.358200        0.0000           
   10861 A    2716 TIP4 O1   OW0      0.000000       15.9990           
   10862 A    2716 TIP4 H1   HW0      0.679100        1.0080           
   10863 A    2716 TIP4 H2   HW0      0.679100        1.0080           
   10864 A    2716 TIP4 BD1  LP0     -1.358200        0.0000           
   10865 A    2717 TIP4 O1   OW0      0.000000       15.9990           
   10866 A    2717 TIP4 H1   HW0      0.679100        1.0080           
   10867 A    2717 TIP4 H2   HW0      0.679100        1.0080           
   10868 A    2717 TIP4 BD1  LP0     -1.358200        0.0000           
   10869 A    2718 TIP4 O1   OW0      0.000000       15.9990           
   10870 A    2718 TIP4 H1   HW0      0.679100        1.0080           
   10871 A    2718 TIP4 H2   HW0      0.679100        1.0080           
   10872 A    2718 TIP4 BD1  LP0     -1.358200        0.0000           
   10873 A    2719 TIP4 O1   OW0      0.000000       15.9990           
   10874 A    2719 TIP4 H1   HW0      0.679100        1.0080           
   10875 A    2719 TIP4 H2   HW0      0.679100        1.0080           
   10876 A    2719 TIP4 BD1  LP0     -1.358200        0.0000           
   10877 A    2720 TIP4 O1   OW0      0.000000       15.9990           
   10878 A    2720 TIP4 H1   HW0      0.679100        1.0080           
   10879 A    2720 TIP4 H2   HW0      0.679100        1.0080           
   10880 A    2720 TIP4 BD1  LP0     -1.358200        0.0000           
   10881 A    2721 TIP4 O1   OW0      0.000000       15.9990           
   10882 A    2721 TIP4 H1   HW0      0.679100        1.0080           
   10883 A    2721 TIP4 H2   HW0      0.679100        1.0080           
   10884 A    2721 TIP4 BD1  LP0     -1.358200        0.0000           
   10885 A    2722 TIP4 O1   OW0      0.000000       15.9990           
   10886 A    2722 TIP4 H1   HW0      0.679100        1.0080           
   10887 A    2722 TIP4 H2   HW0      0.679100        1.0080           
   10888 A    2722 TIP4 BD1  LP0     -1.358200        0.0000           
   10889 A    2723 TIP4 O1   OW0      0.000000       15.9990           
   10890 A    2723 TIP4 H1   HW0      0.679100        1.0080           
   10891 A    2723 TIP4 H2   HW0      0.679100        1.0080           
   10892 A    2723 TIP4 BD1  LP0     -1.358200        0.0000           
   10893 A    2724 TIP4 O1   OW0      0.000000       15.9990           
   10894 A    2724 TIP4 H1   HW0      0.679100        1.0080           
   10895 A    2724 TIP4 H2   HW0      0.679100        1.0080           
   10896 A    2724 TIP4 BD1  LP0     -1.358200        0.0000           
   10897 A    2725 TIP4 O1   OW0      0.000000       15.9990           
   10898 A    2725 TIP4 H1   HW0      0.679100        1.0080           
   10899 A    2725 TIP4 H2   HW0      0.679100        1.0080           
   10900 A    2725 TIP4 BD1  LP0     -1.358200        0.0000           
   10901 A    2726 TIP4 O1   OW0      0.000000       15.9990           
   10902 A    2726 TIP4 H1   HW0      0.679100        1.0080           
   10903 A    2726 TIP4 H2   HW0      0.679100        1.0080           
   10904 A    2726 TIP4 BD1  LP0     -1.358200        0.0000           
   10905 A    2727 TIP4 O1   OW0      0.000000       15.9990           
   10906 A    2727 TIP4 H1   HW0      0.679100        1.0080           
   10907 A    2727 TIP4 H2   HW0      0.679100        1.0080           
   10908 A    2727 TIP4 BD1  LP0     -1.358200        0.0000           
   10909 A    2728 TIP4 O1   OW0      0.000000       15.9990           
   10910 A    2728 TIP4 H1   HW0      0.679100        1.0080           
   10911 A    2728 TIP4 H2   HW0      0.679100        1.0080           
   10912 A    2728 TIP4 BD1  LP0     -1.358200        0.0000           
   10913 A    2729 TIP4 O1   OW0      0.000000       15.9990           
   10914 A    2729 TIP4 H1   HW0      0.679100        1.0080           
   10915 A    2729 TIP4 H2   HW0      0.679100        1.0080           
   10916 A    2729 TIP4 BD1  LP0     -1.358200        0.0000           
   10917 A    2730 TIP4 O1   OW0      0.000000       15.9990           
   10918 A    2730 TIP4 H1   HW0      0.679100        1.0080           
   10919 A    2730 TIP4 H2   HW0      0.679100        1.0080           
   10920 A    2730 TIP4 BD1  LP0     -1.358200        0.0000           
   10921 A    2731 TIP4 O1   OW0      0.000000       15.9990           
   10922 A    2731 TIP4 H1   HW0      0.679100        1.0080           
   10923 A    2731 TIP4 H2   HW0      0.679100        1.0080           
   10924 A    2731 TIP4 BD1  LP0     -1.358200        0.0000           
   10925 A    2732 TIP4 O1   OW0      0.000000       15.9990           
   10926 A    2732 TIP4 H1   HW0      0.679100        1.0080           
   10927 A    2732 TIP4 H2   HW0      0.679100        1.0080           
   10928 A    2732 TIP4 BD1  LP0     -1.358200        0.0000           
   10929 A    2733 TIP4 O1   OW0      0.000000       15.9990           
   10930 A    2733 TIP4 H1   HW0      0.679100        1.0080           
   10931 A    2733 TIP4 H2   HW0      0.679100        1.0080           
   10932 A    2733 TIP4 BD1  LP0     -1.358200        0.0000           
   10933 A    2734 TIP4 O1   OW0      0.000000       15.9990           
   10934 A    2734 TIP4 H1   HW0      0.679100        1.0080           
   10935 A    2734 TIP4 H2   HW0      0.679100        1.0080           
   10936 A    2734 TIP4 BD1  LP0     -1.358200        0.0000           
   10937 A    2735 TIP4 O1   OW0      0.000000       15.9990           
   10938 A    2735 TIP4 H1   HW0      0.679100        1.0080           
   10939 A    2735 TIP4 H2   HW0      0.679100        1.0080           
   10940 A    2735 TIP4 BD1  LP0     -1.358200        0.0000           
   10941 A    2736 TIP4 O1   OW0      0.000000       15.9990           
   10942 A    2736 TIP4 H1   HW0      0.679100        1.0080           
   10943 A    2736 TIP4 H2   HW0      0.679100        1.0080           
   10944 A    2736 TIP4 BD1  LP0     -1.358200        0.0000           
   10945 A    2737 TIP4 O1   OW0      0.000000       15.9990           
   10946 A    2737 TIP4 H1   HW0      0.679100        1.0080           
   10947 A    2737 TIP4 H2   HW0      0.679100        1.0080           
   10948 A    2737 TIP4 BD1  LP0     -1.358200        0.0000           
   10949 A    2738 TIP4 O1   OW0      0.000000       15.9990           
   10950 A    2738 TIP4 H1   HW0      0.679100        1.0080           
   10951 A    2738 TIP4 H2   HW0      0.679100        1.0080           
   10952 A    2738 TIP4 BD1  LP0     -1.358200        0.0000           
   10953 A    2739 TIP4 O1   OW0      0.000000       15.9990           
   10954 A    2739 TIP4 H1   HW0      0.679100        1.0080           
   10955 A    2739 TIP4 H2   HW0      0.679100        1.0080           
   10956 A    2739 TIP4 BD1  LP0     -1.358200        0.0000           
   10957 A    2740 TIP4 O1   OW0      0.000000       15.9990           
   10958 A    2740 TIP4 H1   HW0      0.679100        1.0080           
   10959 A    2740 TIP4 H2   HW0      0.679100        1.0080           
   10960 A    2740 TIP4 BD1  LP0     -1.358200        0.0000           
   10961 A    2741 TIP4 O1   OW0      0.000000       15.9990           
   10962 A    2741 TIP4 H1   HW0      0.679100        1.0080           
   10963 A    2741 TIP4 H2   HW0      0.679100        1.0080           
   10964 A    2741 TIP4 BD1  LP0     -1.358200        0.0000           
   10965 A    2742 TIP4 O1   OW0      0.000000       15.9990           
   10966 A    2742 TIP4 H1   HW0      0.679100        1.0080           
   10967 A    2742 TIP4 H2   HW0      0.679100        1.0080           
   10968 A    2742 TIP4 BD1  LP0     -1.358200        0.0000           
   10969 A    2743 TIP4 O1   OW0      0.000000       15.9990           
   10970 A    2743 TIP4 H1   HW0      0.679100        1.0080           
   10971 A    2743 TIP4 H2   HW0      0.679100        1.0080           
   10972 A    2743 TIP4 BD1  LP0     -1.358200        0.0000           
   10973 A    2744 TIP4 O1   OW0      0.000000       15.9990           
   10974 A    2744 TIP4 H1   HW0      0.679100        1.0080           
   10975 A    2744 TIP4 H2   HW0      0.679100        1.0080           
   10976 A    2744 TIP4 BD1  LP0     -1.358200        0.0000           
   10977 A    2745 TIP4 O1   OW0      0.000000       15.9990           
   10978 A    2745 TIP4 H1   HW0      0.679100        1.0080           
   10979 A    2745 TIP4 H2   HW0      0.679100        1.0080           
   10980 A    2745 TIP4 BD1  LP0     -1.358200        0.0000           
   10981 A    2746 TIP4 O1   OW0      0.000000       15.9990           
   10982 A    2746 TIP4 H1   HW0      0.679100        1.0080           
   10983 A    2746 TIP4 H2   HW0      0.679100        1.0080           
   10984 A    2746 TIP4 BD1  LP0     -1.358200        0.0000           
   10985 A    2747 TIP4 O1   OW0      0.000000       15.9990           
   10986 A    2747 TIP4 H1   HW0      0.679100        1.0080           
   10987 A    2747 TIP4 H2   HW0      0.679100        1.0080           
   10988 A    2747 TIP4 BD1  LP0     -1.358200        0.0000           
   10989 A    2748 TIP4 O1   OW0      0.000000       15.9990           
   10990 A    2748 TIP4 H1   HW0      0.679100        1.0080           
   10991 A    2748 TIP4 H2   HW0      0.679100        1.0080           
   10992 A    2748 TIP4 BD1  LP0     -1.358200        0.0000           
   10993 A    2749 TIP4 O1   OW0      0.000000       15.9990           
   10994 A    2749 TIP4 H1   HW0      0.679100        1.0080           
   10995 A    2749 TIP4 H2   HW0      0.679100        1.0080           
   10996 A    2749 TIP4 BD1  LP0     -1.358200        0.0000           
   10997 A    2750 TIP4 O1   OW0      0.000000       15.9990           
   10998 A    2750 TIP4 H1   HW0      0.679100        1.0080           
   10999 A    2750 TIP4 H2   HW0      0.679100        1.0080           
   11000 A    2750 TIP4 BD1  LP0     -1.358200        0.0000           
   11001 A    2751 TIP4 O1   OW0      0.000000       15.9990           
   11002 A    2751 TIP4 H1   HW0      0.679100        1.0080           
   11003 A    2751 TIP4 H2   HW0      0.679100        1.0080           
   11004 A    2751 TIP4 BD1  LP0     -1.358200        0.0000           
   11005 A    2752 TIP4 O1   OW0      0.000000       15.9990           
   11006 A    2752 TIP4 H1   HW0      0.679100        1.0080           
   11007 A    2752 TIP4 H2   HW0      0.679100        1.0080           
   11008 A    2752 TIP4 BD1  LP0     -1.358200        0.0000           
   11009 A    2753 TIP4 O1   OW0      0.000000       15.9990           
   11010 A    2753 TIP4 H1   HW0      0.679100        1.0080           
   11011 A    2753 TIP4 H2   HW0      0.679100        1.0080           
   11012 A    2753 TIP4 BD1  LP0     -1.358200        0.0000           
   11013 A    2754 TIP4 O1   OW0      0.000000       15.9990           
   11014 A    2754 TIP4 H1   HW0      0.679100        1.0080           
   11015 A    2754 TIP4 H2   HW0      0.679100        1.0080           
   11016 A    2754 TIP4 BD1  LP0     -1.358200        0.0000           
   11017 A    2755 TIP4 O1   OW0      0.000000       15.9990           
   11018 A    2755 TIP4 H1   HW0      0.679100        1.0080           
   11019 A    2755 TIP4 H2   HW0      0.679100        1.0080           
   11020 A    2755 TIP4 BD1  LP0     -1.358200        0.0000           
   11021 A    2756 TIP4 O1   OW0      0.000000       15.9990           
   11022 A    2756 TIP4 H1   HW0      0.679100        1.0080           
   11023 A    2756 TIP4 H2   HW0      0.679100        1.0080           
   11024 A    2756 TIP4 BD1  LP0     -1.358200        0.0000           
   11025 A    2757 TIP4 O1   OW0      0.000000       15.9990           
   11026 A    2757 TIP4 H1   HW0      0.679100        1.0080           
   11027 A    2757 TIP4 H2   HW0      0.679100        1.0080           
   11028 A    2757 TIP4 BD1  LP0     -1.358200        0.0000           
   11029 A    2758 TIP4 O1   OW0      0.000000       15.9990           
   11030 A    2758 TIP4 H1   HW0      0.679100        1.0080           
   11031 A    2758 TIP4 H2   HW0      0.679100        1.0080           
   11032 A    2758 TIP4 BD1  LP0     -1.358200        0.0000           
   11033 A    2759 TIP4 O1   OW0      0.000000       15.9990           
   11034 A    2759 TIP4 H1   HW0      0.679100        1.0080           
   11035 A    2759 TIP4 H2   HW0      0.679100        1.0080           
   11036 A    2759 TIP4 BD1  LP0     -1.358200        0.0000           
   11037 A    2760 TIP4 O1   OW0      0.000000       15.9990           
   11038 A    2760 TIP4 H1   HW0      0.679100        1.0080           
   11039 A    2760 TIP4 H2   HW0      0.679100        1.0080           
   11040 A    2760 TIP4 BD1  LP0     -1.358200        0.0000           
   11041 A    2761 TIP4 O1   OW0      0.000000       15.9990           
   11042 A    2761 TIP4 H1   HW0      0.679100        1.0080           
   11043 A    2761 TIP4 H2   HW0      0.679100        1.0080           
   11044 A    2761 TIP4 BD1  LP0     -1.358200        0.0000           
   11045 A    2762 TIP4 O1   OW0      0.000000       15.9990           
   11046 A    2762 TIP4 H1   HW0      0.679100        1.0080           
   11047 A    2762 TIP4 H2   HW0      0.679100        1.0080           
   11048 A    2762 TIP4 BD1  LP0     -1.358200        0.0000           
   11049 A    2763 TIP4 O1   OW0      0.000000       15.9990           
   11050 A    2763 TIP4 H1   HW0      0.679100        1.0080           
   11051 A    2763 TIP4 H2   HW0      0.679100        1.0080           
   11052 A    2763 TIP4 BD1  LP0     -1.358200        0.0000           
   11053 A    2764 TIP4 O1   OW0      0.000000       15.9990           
   11054 A    2764 TIP4 H1   HW0      0.679100        1.0080           
   11055 A    2764 TIP4 H2   HW0      0.679100        1.0080           
   11056 A    2764 TIP4 BD1  LP0     -1.358200        0.0000           
   11057 A    2765 TIP4 O1   OW0      0.000000       15.9990           
   11058 A    2765 TIP4 H1   HW0      0.679100        1.0080           
   11059 A    2765 TIP4 H2   HW0      0.679100        1.0080           
   11060 A    2765 TIP4 BD1  LP0     -1.358200        0.0000           
   11061 A    2766 TIP4 O1   OW0      0.000000       15.9990           
   11062 A    2766 TIP4 H1   HW0      0.679100        1.0080           
   11063 A    2766 TIP4 H2   HW0      0.679100        1.0080           
   11064 A    2766 TIP4 BD1  LP0     -1.358200        0.0000           
   11065 A    2767 TIP4 O1   OW0      0.000000       15.9990           
   11066 A    2767 TIP4 H1   HW0      0.679100        1.0080           
   11067 A    2767 TIP4 H2   HW0      0.679100        1.0080           
   11068 A    2767 TIP4 BD1  LP0     -1.358200        0.0000           
   11069 A    2768 TIP4 O1   OW0      0.000000       15.9990           
   11070 A    2768 TIP4 H1   HW0      0.679100        1.0080           
   11071 A    2768 TIP4 H2   HW0      0.679100        1.0080           
   11072 A    2768 TIP4 BD1  LP0     -1.358200        0.0000           
   11073 A    2769 TIP4 O1   OW0      0.000000       15.9990           
   11074 A    2769 TIP4 H1   HW0      0.679100        1.0080           
   11075 A    2769 TIP4 H2   HW0      0.679100        1.0080           
   11076 A    2769 TIP4 BD1  LP0     -1.358200        0.0000           
   11077 A    2770 TIP4 O1   OW0      0.000000       15.9990           
   11078 A    2770 TIP4 H1   HW0      0.679100        1.0080           
   11079 A    2770 TIP4 H2   HW0      0.679100        1.0080           
   11080 A    2770 TIP4 BD1  LP0     -1.358200        0.0000           
   11081 A    2771 TIP4 O1   OW0      0.000000       15.9990           
   11082 A    2771 TIP4 H1   HW0      0.679100        1.0080           
   11083 A    2771 TIP4 H2   HW0      0.679100        1.0080           
   11084 A    2771 TIP4 BD1  LP0     -1.358200        0.0000           
   11085 A    2772 TIP4 O1   OW0      0.000000       15.9990           
   11086 A    2772 TIP4 H1   HW0      0.679100        1.0080           
   11087 A    2772 TIP4 H2   HW0      0.679100        1.0080           
   11088 A    2772 TIP4 BD1  LP0     -1.358200        0.0000           
   11089 A    2773 TIP4 O1   OW0      0.000000       15.9990           
   11090 A    2773 TIP4 H1   HW0      0.679100        1.0080           
   11091 A    2773 TIP4 H2   HW0      0.679100        1.0080           
   11092 A    2773 TIP4 BD1  LP0     -1.358200        0.0000           
   11093 A    2774 TIP4 O1   OW0      0.000000       15.9990           
   11094 A    2774 TIP4 H1   HW0      0.679100        1.0080           
   11095 A    2774 TIP4 H2   HW0      0.679100        1.0080           
   11096 A    2774 TIP4 BD1  LP0     -1.358200        0.0000           
   11097 A    2775 TIP4 O1   OW0      0.000000       15.9990           
   11098 A    2775 TIP4 H1   HW0      0.679100        1.0080           
   11099 A    2775 TIP4 H2   HW0      0.679100        1.0080           
   11100 A    2775 TIP4 BD1  LP0     -1.358200        0.0000           
   11101 A    2776 TIP4 O1   OW0      0.000000       15.9990           
   11102 A    2776 TIP4 H1   HW0      0.679100        1.0080           
   11103 A    2776 TIP4 H2   HW0      0.679100        1.0080           
   11104 A    2776 TIP4 BD1  LP0     -1.358200        0.0000           
   11105 A    2777 TIP4 O1   OW0      0.000000       15.9990           
   11106 A    2777 TIP4 H1   HW0      0.679100        1.0080           
   11107 A    2777 TIP4 H2   HW0      0.679100        1.0080           
   11108 A    2777 TIP4 BD1  LP0     -1.358200        0.0000           
   11109 A    2778 TIP4 O1   OW0      0.000000       15.9990           
   11110 A    2778 TIP4 H1   HW0      0.679100        1.0080           
   11111 A    2778 TIP4 H2   HW0      0.679100        1.0080           
   11112 A    2778 TIP4 BD1  LP0     -1.358200        0.0000           
   11113 A    2779 TIP4 O1   OW0      0.000000       15.9990           
   11114 A    2779 TIP4 H1   HW0      0.679100        1.0080           
   11115 A    2779 TIP4 H2   HW0      0.679100        1.0080           
   11116 A    2779 TIP4 BD1  LP0     -1.358200        0.0000           
   11117 A    2780 TIP4 O1   OW0      0.000000       15.9990           
   11118 A    2780 TIP4 H1   HW0      0.679100        1.0080           
   11119 A    2780 TIP4 H2   HW0      0.679100        1.0080           
   11120 A    2780 TIP4 BD1  LP0     -1.358200        0.0000           
   11121 A    2781 TIP4 O1   OW0      0.000000       15.9990           
   11122 A    2781 TIP4 H1   HW0      0.679100        1.0080           
   11123 A    2781 TIP4 H2   HW0      0.679100        1.0080           
   11124 A    2781 TIP4 BD1  LP0     -1.358200        0.0000           
   11125 A    2782 TIP4 O1   OW0      0.000000       15.9990           
   11126 A    2782 TIP4 H1   HW0      0.679100        1.0080           
   11127 A    2782 TIP4 H2   HW0      0.679100        1.0080           
   11128 A    2782 TIP4 BD1  LP0     -1.358200        0.0000           
   11129 A    2783 TIP4 O1   OW0      0.000000       15.9990           
   11130 A    2783 TIP4 H1   HW0      0.679100        1.0080           
   11131 A    2783 TIP4 H2   HW0      0.679100        1.0080           
   11132 A    2783 TIP4 BD1  LP0     -1.358200        0.0000           
   11133 A    2784 TIP4 O1   OW0      0.000000       15.9990           
   11134 A    2784 TIP4 H1   HW0      0.679100        1.0080           
   11135 A    2784 TIP4 H2   HW0      0.679100        1.0080           
   11136 A    2784 TIP4 BD1  LP0     -1.358200        0.0000           
   11137 A    2785 TIP4 O1   OW0      0.000000       15.9990           
   11138 A    2785 TIP4 H1   HW0      0.679100        1.0080           
   11139 A    2785 TIP4 H2   HW0      0.679100        1.0080           
   11140 A    2785 TIP4 BD1  LP0     -1.358200        0.0000           
   11141 A    2786 TIP4 O1   OW0      0.000000       15.9990           
   11142 A    2786 TIP4 H1   HW0      0.679100        1.0080           
   11143 A    2786 TIP4 H2   HW0      0.679100        1.0080           
   11144 A    2786 TIP4 BD1  LP0     -1.358200        0.0000           
   11145 A    2787 TIP4 O1   OW0      0.000000       15.9990           
   11146 A    2787 TIP4 H1   HW0      0.679100        1.0080           
   11147 A    2787 TIP4 H2   HW0      0.679100        1.0080           
   11148 A    2787 TIP4 BD1  LP0     -1.358200        0.0000           
   11149 A    2788 TIP4 O1   OW0      0.000000       15.9990           
   11150 A    2788 TIP4 H1   HW0      0.679100        1.0080           
   11151 A    2788 TIP4 H2   HW0      0.679100        1.0080           
   11152 A    2788 TIP4 BD1  LP0     -1.358200        0.0000           
   11153 A    2789 TIP4 O1   OW0      0.000000       15.9990           
   11154 A    2789 TIP4 H1   HW0      0.679100        1.0080           
   11155 A    2789 TIP4 H2   HW0      0.679100        1.0080           
   11156 A    2789 TIP4 BD1  LP0     -1.358200        0.0000           
   11157 A    2790 TIP4 O1   OW0      0.000000       15.9990           
   11158 A    2790 TIP4 H1   HW0      0.679100        1.0080           
   11159 A    2790 TIP4 H2   HW0      0.679100        1.0080           
   11160 A    2790 TIP4 BD1  LP0     -1.358200        0.0000           
   11161 A    2791 TIP4 O1   OW0      0.000000       15.9990           
   11162 A    2791 TIP4 H1   HW0      0.679100        1.0080           
   11163 A    2791 TIP4 H2   HW0      0.679100        1.0080           
   11164 A    2791 TIP4 BD1  LP0     -1.358200        0.0000           
   11165 A    2792 TIP4 O1   OW0      0.000000       15.9990           
   11166 A    2792 TIP4 H1   HW0      0.679100        1.0080           
   11167 A    2792 TIP4 H2   HW0      0.679100        1.0080           
   11168 A    2792 TIP4 BD1  LP0     -1.358200        0.0000           
   11169 A    2793 TIP4 O1   OW0      0.000000       15.9990           
   11170 A    2793 TIP4 H1   HW0      0.679100        1.0080           
   11171 A    2793 TIP4 H2   HW0      0.679100        1.0080           
   11172 A    2793 TIP4 BD1  LP0     -1.358200        0.0000           
   11173 A    2794 TIP4 O1   OW0      0.000000       15.9990           
   11174 A    2794 TIP4 H1   HW0      0.679100        1.0080           
   11175 A    2794 TIP4 H2   HW0      0.679100        1.0080           
   11176 A    2794 TIP4 BD1  LP0     -1.358200        0.0000           
   11177 A    2795 TIP4 O1   OW0      0.000000       15.9990           
   11178 A    2795 TIP4 H1   HW0      0.679100        1.0080           
   11179 A    2795 TIP4 H2   HW0      0.679100        1.0080           
   11180 A    2795 TIP4 BD1  LP0     -1.358200        0.0000           
   11181 A    2796 TIP4 O1   OW0      0.000000       15.9990           
   11182 A    2796 TIP4 H1   HW0      0.679100        1.0080           
   11183 A    2796 TIP4 H2   HW0      0.679100        1.0080           
   11184 A    2796 TIP4 BD1  LP0     -1.358200        0.0000           
   11185 A    2797 TIP4 O1   OW0      0.000000       15.9990           
   11186 A    2797 TIP4 H1   HW0      0.679100        1.0080           
   11187 A    2797 TIP4 H2   HW0      0.679100        1.0080           
   11188 A    2797 TIP4 BD1  LP0     -1.358200        0.0000           
   11189 A    2798 TIP4 O1   OW0      0.000000       15.9990           
   11190 A    2798 TIP4 H1   HW0      0.679100        1.0080           
   11191 A    2798 TIP4 H2   HW0      0.679100        1.0080           
   11192 A    2798 TIP4 BD1  LP0     -1.358200        0.0000           
   11193 A    2799 TIP4 O1   OW0      0.000000       15.9990           
   11194 A    2799 TIP4 H1   HW0      0.679100        1.0080           
   11195 A    2799 TIP4 H2   HW0      0.679100        1.0080           
   11196 A    2799 TIP4 BD1  LP0     -1.358200        0.0000           
   11197 A    2800 TIP4 O1   OW0      0.000000       15.9990           
   11198 A    2800 TIP4 H1   HW0      0.679100        1.0080           
   11199 A    2800 TIP4 H2   HW0      0.679100        1.0080           
   11200 A    2800 TIP4 BD1  LP0     -1.358200        0.0000           
   11201 A    2801 TIP4 O1   OW0      0.000000       15.9990           
   11202 A    2801 TIP4 H1   HW0      0.679100        1.0080           
   11203 A    2801 TIP4 H2   HW0      0.679100        1.0080           
   11204 A    2801 TIP4 BD1  LP0     -1.358200        0.0000           
   11205 A    2802 TIP4 O1   OW0      0.000000       15.9990           
   11206 A    2802 TIP4 H1   HW0      0.679100        1.0080           
   11207 A    2802 TIP4 H2   HW0      0.679100        1.0080           
   11208 A    2802 TIP4 BD1  LP0     -1.358200        0.0000           
   11209 A    2803 TIP4 O1   OW0      0.000000       15.9990           
   11210 A    2803 TIP4 H1   HW0      0.679100        1.0080           
   11211 A    2803 TIP4 H2   HW0      0.679100        1.0080           
   11212 A    2803 TIP4 BD1  LP0     -1.358200        0.0000           
   11213 A    2804 TIP4 O1   OW0      0.000000       15.9990           
   11214 A    2804 TIP4 H1   HW0      0.679100        1.0080           
   11215 A    2804 TIP4 H2   HW0      0.679100        1.0080           
   11216 A    2804 TIP4 BD1  LP0     -1.358200        0.0000           
   11217 A    2805 TIP4 O1   OW0      0.000000       15.9990           
   11218 A    2805 TIP4 H1   HW0      0.679100        1.0080           
   11219 A    2805 TIP4 H2   HW0      0.679100        1.0080           
   11220 A    2805 TIP4 BD1  LP0     -1.358200        0.0000           
   11221 A    2806 TIP4 O1   OW0      0.000000       15.9990           
   11222 A    2806 TIP4 H1   HW0      0.679100        1.0080           
   11223 A    2806 TIP4 H2   HW0      0.679100        1.0080           
   11224 A    2806 TIP4 BD1  LP0     -1.358200        0.0000           
   11225 A    2807 TIP4 O1   OW0      0.000000       15.9990           
   11226 A    2807 TIP4 H1   HW0      0.679100        1.0080           
   11227 A    2807 TIP4 H2   HW0      0.679100        1.0080           
   11228 A    2807 TIP4 BD1  LP0     -1.358200        0.0000           
   11229 A    2808 TIP4 O1   OW0      0.000000       15.9990           
   11230 A    2808 TIP4 H1   HW0      0.679100        1.0080           
   11231 A    2808 TIP4 H2   HW0      0.679100        1.0080           
   11232 A    2808 TIP4 BD1  LP0     -1.358200        0.0000           
   11233 A    2809 TIP4 O1   OW0      0.000000       15.9990           
   11234 A    2809 TIP4 H1   HW0      0.679100        1.0080           
   11235 A    2809 TIP4 H2   HW0      0.679100        1.0080           
   11236 A    2809 TIP4 BD1  LP0     -1.358200        0.0000           
   11237 A    2810 TIP4 O1   OW0      0.000000       15.9990           
   11238 A    2810 TIP4 H1   HW0      0.679100        1.0080           
   11239 A    2810 TIP4 H2   HW0      0.679100        1.0080           
   11240 A    2810 TIP4 BD1  LP0     -1.358200        0.0000           
   11241 A    2811 TIP4 O1   OW0      0.000000       15.9990           
   11242 A    2811 TIP4 H1   HW0      0.679100        1.0080           
   11243 A    2811 TIP4 H2   HW0      0.679100        1.0080           
   11244 A    2811 TIP4 BD1  LP0     -1.358200        0.0000           
   11245 A    2812 TIP4 O1   OW0      0.000000       15.9990           
   11246 A    2812 TIP4 H1   HW0      0.679100        1.0080           
   11247 A    2812 TIP4 H2   HW0      0.679100        1.0080           
   11248 A    2812 TIP4 BD1  LP0     -1.358200        0.0000           
   11249 A    2813 TIP4 O1   OW0      0.000000       15.9990           
   11250 A    2813 TIP4 H1   HW0      0.679100        1.0080           
   11251 A    2813 TIP4 H2   HW0      0.679100        1.0080           
   11252 A    2813 TIP4 BD1  LP0     -1.358200        0.0000           
   11253 A    2814 TIP4 O1   OW0      0.000000       15.9990           
   11254 A    2814 TIP4 H1   HW0      0.679100        1.0080           
   11255 A    2814 TIP4 H2   HW0      0.679100        1.0080           
   11256 A    2814 TIP4 BD1  LP0     -1.358200        0.0000           
   11257 A    2815 TIP4 O1   OW0      0.000000       15.9990           
   11258 A    2815 TIP4 H1   HW0      0.679100        1.0080           
   11259 A    2815 TIP4 H2   HW0      0.679100        1.0080           
   11260 A    2815 TIP4 BD1  LP0     -1.358200        0.0000           
   11261 A    2816 TIP4 O1   OW0      0.000000       15.9990           
   11262 A    2816 TIP4 H1   HW0      0.679100        1.0080           
   11263 A    2816 TIP4 H2   HW0      0.679100        1.0080           
   11264 A    2816 TIP4 BD1  LP0     -1.358200        0.0000           
   11265 A    2817 TIP4 O1   OW0      0.000000       15.9990           
   11266 A    2817 TIP4 H1   HW0      0.679100        1.0080           
   11267 A    2817 TIP4 H2   HW0      0.679100        1.0080           
   11268 A    2817 TIP4 BD1  LP0     -1.358200        0.0000           
   11269 A    2818 TIP4 O1   OW0      0.000000       15.9990           
   11270 A    2818 TIP4 H1   HW0      0.679100        1.0080           
   11271 A    2818 TIP4 H2   HW0      0.679100        1.0080           
   11272 A    2818 TIP4 BD1  LP0     -1.358200        0.0000           
   11273 A    2819 TIP4 O1   OW0      0.000000       15.9990           
   11274 A    2819 TIP4 H1   HW0      0.679100        1.0080           
   11275 A    2819 TIP4 H2   HW0      0.679100        1.0080           
   11276 A    2819 TIP4 BD1  LP0     -1.358200        0.0000           
   11277 A    2820 TIP4 O1   OW0      0.000000       15.9990           
   11278 A    2820 TIP4 H1   HW0      0.679100        1.0080           
   11279 A    2820 TIP4 H2   HW0      0.679100        1.0080           
   11280 A    2820 TIP4 BD1  LP0     -1.358200        0.0000           
   11281 A    2821 TIP4 O1   OW0      0.000000       15.9990           
   11282 A    2821 TIP4 H1   HW0      0.679100        1.0080           
   11283 A    2821 TIP4 H2   HW0      0.679100        1.0080           
   11284 A    2821 TIP4 BD1  LP0     -1.358200        0.0000           
   11285 A    2822 TIP4 O1   OW0      0.000000       15.9990           
   11286 A    2822 TIP4 H1   HW0      0.679100        1.0080           
   11287 A    2822 TIP4 H2   HW0      0.679100        1.0080           
   11288 A    2822 TIP4 BD1  LP0     -1.358200        0.0000           
   11289 A    2823 TIP4 O1   OW0      0.000000       15.9990           
   11290 A    2823 TIP4 H1   HW0      0.679100        1.0080           
   11291 A    2823 TIP4 H2   HW0      0.679100        1.0080           
   11292 A    2823 TIP4 BD1  LP0     -1.358200        0.0000           
   11293 A    2824 TIP4 O1   OW0      0.000000       15.9990           
   11294 A    2824 TIP4 H1   HW0      0.679100        1.0080           
   11295 A    2824 TIP4 H2   HW0      0.679100        1.0080           
   11296 A    2824 TIP4 BD1  LP0     -1.358200        0.0000           
   11297 A    2825 TIP4 O1   OW0      0.000000       15.9990           
   11298 A    2825 TIP4 H1   HW0      0.679100        1.0080           
   11299 A    2825 TIP4 H2   HW0      0.679100        1.0080           
   11300 A    2825 TIP4 BD1  LP0     -1.358200        0.0000           
   11301 A    2826 TIP4 O1   OW0      0.000000       15.9990           
   11302 A    2826 TIP4 H1   HW0      0.679100        1.0080           
   11303 A    2826 TIP4 H2   HW0      0.679100        1.0080           
   11304 A    2826 TIP4 BD1  LP0     -1.358200        0.0000           
   11305 A    2827 TIP4 O1   OW0      0.000000       15.9990           
   11306 A    2827 TIP4 H1   HW0      0.679100        1.0080           
   11307 A    2827 TIP4 H2   HW0      0.679100        1.0080           
   11308 A    2827 TIP4 BD1  LP0     -1.358200        0.0000           
   11309 A    2828 TIP4 O1   OW0      0.000000       15.9990           
   11310 A    2828 TIP4 H1   HW0      0.679100        1.0080           
   11311 A    2828 TIP4 H2   HW0      0.679100        1.0080           
   11312 A    2828 TIP4 BD1  LP0     -1.358200        0.0000           
   11313 A    2829 TIP4 O1   OW0      0.000000       15.9990           
   11314 A    2829 TIP4 H1   HW0      0.679100        1.0080           
   11315 A    2829 TIP4 H2   HW0      0.679100        1.0080           
   11316 A    2829 TIP4 BD1  LP0     -1.358200        0.0000           
   11317 A    2830 TIP4 O1   OW0      0.000000       15.9990           
   11318 A    2830 TIP4 H1   HW0      0.679100        1.0080           
   11319 A    2830 TIP4 H2   HW0      0.679100        1.0080           
   11320 A    2830 TIP4 BD1  LP0     -1.358200        0.0000           
   11321 A    2831 TIP4 O1   OW0      0.000000       15.9990           
   11322 A    2831 TIP4 H1   HW0      0.679100        1.0080           
   11323 A    2831 TIP4 H2   HW0      0.679100        1.0080           
   11324 A    2831 TIP4 BD1  LP0     -1.358200        0.0000           
   11325 A    2832 TIP4 O1   OW0      0.000000       15.9990           
   11326 A    2832 TIP4 H1   HW0      0.679100        1.0080           
   11327 A    2832 TIP4 H2   HW0      0.679100        1.0080           
   11328 A    2832 TIP4 BD1  LP0     -1.358200        0.0000           
   11329 A    2833 TIP4 O1   OW0      0.000000       15.9990           
   11330 A    2833 TIP4 H1   HW0      0.679100        1.0080           
   11331 A    2833 TIP4 H2   HW0      0.679100        1.0080           
   11332 A    2833 TIP4 BD1  LP0     -1.358200        0.0000           
   11333 A    2834 TIP4 O1   OW0      0.000000       15.9990           
   11334 A    2834 TIP4 H1   HW0      0.679100        1.0080           
   11335 A    2834 TIP4 H2   HW0      0.679100        1.0080           
   11336 A    2834 TIP4 BD1  LP0     -1.358200        0.0000           
   11337 A    2835 TIP4 O1   OW0      0.000000       15.9990           
   11338 A    2835 TIP4 H1   HW0      0.679100        1.0080           
   11339 A    2835 TIP4 H2   HW0      0.679100        1.0080           
   11340 A    2835 TIP4 BD1  LP0     -1.358200        0.0000           
   11341 A    2836 TIP4 O1   OW0      0.000000       15.9990           
   11342 A    2836 TIP4 H1   HW0      0.679100        1.0080           
   11343 A    2836 TIP4 H2   HW0      0.679100        1.0080           
   11344 A    2836 TIP4 BD1  LP0     -1.358200        0.0000           
   11345 A    2837 TIP4 O1   OW0      0.000000       15.9990           
   11346 A    2837 TIP4 H1   HW0      0.679100        1.0080           
   11347 A    2837 TIP4 H2   HW0      0.679100        1.0080           
   11348 A    2837 TIP4 BD1  LP0     -1.358200        0.0000           
   11349 A    2838 TIP4 O1   OW0      0.000000       15.9990           
   11350 A    2838 TIP4 H1   HW0      0.679100        1.0080           
   11351 A    2838 TIP4 H2   HW0      0.679100        1.0080           
   11352 A    2838 TIP4 BD1  LP0     -1.358200        0.0000           
   11353 A    2839 TIP4 O1   OW0      0.000000       15.9990           
   11354 A    2839 TIP4 H1   HW0      0.679100        1.0080           
   11355 A    2839 TIP4 H2   HW0      0.679100        1.0080           
   11356 A    2839 TIP4 BD1  LP0     -1.358200        0.0000           
   11357 A    2840 TIP4 O1   OW0      0.000000       15.9990           
   11358 A    2840 TIP4 H1   HW0      0.679100        1.0080           
   11359 A    2840 TIP4 H2   HW0      0.679100        1.0080           
   11360 A    2840 TIP4 BD1  LP0     -1.358200        0.0000           
   11361 A    2841 TIP4 O1   OW0      0.000000       15.9990           
   11362 A    2841 TIP4 H1   HW0      0.679100        1.0080           
   11363 A    2841 TIP4 H2   HW0      0.679100        1.0080           
   11364 A    2841 TIP4 BD1  LP0     -1.358200        0.0000           
   11365 A    2842 TIP4 O1   OW0      0.000000       15.9990           
   11366 A    2842 TIP4 H1   HW0      0.679100        1.0080           
   11367 A    2842 TIP4 H2   HW0      0.679100        1.0080           
   11368 A    2842 TIP4 BD1  LP0     -1.358200        0.0000           
   11369 A    2843 TIP4 O1   OW0      0.000000       15.9990           
   11370 A    2843 TIP4 H1   HW0      0.679100        1.0080           
   11371 A    2843 TIP4 H2   HW0      0.679100        1.0080           
   11372 A    2843 TIP4 BD1  LP0     -1.358200        0.0000           
   11373 A    2844 TIP4 O1   OW0      0.000000       15.9990           
   11374 A    2844 TIP4 H1   HW0      0.679100        1.0080           
   11375 A    2844 TIP4 H2   HW0      0.679100        1.0080           
   11376 A    2844 TIP4 BD1  LP0     -1.358200        0.0000           
   11377 A    2845 TIP4 O1   OW0      0.000000       15.9990           
   11378 A    2845 TIP4 H1   HW0      0.679100        1.0080           
   11379 A    2845 TIP4 H2   HW0      0.679100        1.0080           
   11380 A    2845 TIP4 BD1  LP0     -1.358200        0.0000           
   11381 A    2846 TIP4 O1   OW0      0.000000       15.9990           
   11382 A    2846 TIP4 H1   HW0      0.679100        1.0080           
   11383 A    2846 TIP4 H2   HW0      0.679100        1.0080           
   11384 A    2846 TIP4 BD1  LP0     -1.358200        0.0000           
   11385 A    2847 TIP4 O1   OW0      0.000000       15.9990           
   11386 A    2847 TIP4 H1   HW0      0.679100        1.0080           
   11387 A    2847 TIP4 H2   HW0      0.679100        1.0080           
   11388 A    2847 TIP4 BD1  LP0     -1.358200        0.0000           
   11389 A    2848 TIP4 O1   OW0      0.000000       15.9990           
   11390 A    2848 TIP4 H1   HW0      0.679100        1.0080           
   11391 A    2848 TIP4 H2   HW0      0.679100        1.0080           
   11392 A    2848 TIP4 BD1  LP0     -1.358200        0.0000           
   11393 A    2849 TIP4 O1   OW0      0.000000       15.9990           
   11394 A    2849 TIP4 H1   HW0      0.679100        1.0080           
   11395 A    2849 TIP4 H2   HW0      0.679100        1.0080           
   11396 A    2849 TIP4 BD1  LP0     -1.358200        0.0000           
   11397 A    2850 TIP4 O1   OW0      0.000000       15.9990           
   11398 A    2850 TIP4 H1   HW0      0.679100        1.0080           
   11399 A    2850 TIP4 H2   HW0      0.679100        1.0080           
   11400 A    2850 TIP4 BD1  LP0     -1.358200        0.0000           
   11401 A    2851 TIP4 O1   OW0      0.000000       15.9990           
   11402 A    2851 TIP4 H1   HW0      0.679100        1.0080           
   11403 A    2851 TIP4 H2   HW0      0.679100        1.0080           
   11404 A    2851 TIP4 BD1  LP0     -1.358200        0.0000           
   11405 A    2852 TIP4 O1   OW0      0.000000       15.9990           
   11406 A    2852 TIP4 H1   HW0      0.679100        1.0080           
   11407 A    2852 TIP4 H2   HW0      0.679100        1.0080           
   11408 A    2852 TIP4 BD1  LP0     -1.358200        0.0000           
   11409 A    2853 TIP4 O1   OW0      0.000000       15.9990           
   11410 A    2853 TIP4 H1   HW0      0.679100        1.0080           
   11411 A    2853 TIP4 H2   HW0      0.679100        1.0080           
   11412 A    2853 TIP4 BD1  LP0     -1.358200        0.0000           
   11413 A    2854 TIP4 O1   OW0      0.000000       15.9990           
   11414 A    2854 TIP4 H1   HW0      0.679100        1.0080           
   11415 A    2854 TIP4 H2   HW0      0.679100        1.0080           
   11416 A    2854 TIP4 BD1  LP0     -1.358200        0.0000           
   11417 A    2855 TIP4 O1   OW0      0.000000       15.9990           
   11418 A    2855 TIP4 H1   HW0      0.679100        1.0080           
   11419 A    2855 TIP4 H2   HW0      0.679100        1.0080           
   11420 A    2855 TIP4 BD1  LP0     -1.358200        0.0000           
   11421 A    2856 TIP4 O1   OW0      0.000000       15.9990           
   11422 A    2856 TIP4 H1   HW0      0.679100        1.0080           
   11423 A    2856 TIP4 H2   HW0      0.679100        1.0080           
   11424 A    2856 TIP4 BD1  LP0     -1.358200        0.0000           
   11425 A    2857 TIP4 O1   OW0      0.000000       15.9990           
   11426 A    2857 TIP4 H1   HW0      0.679100        1.0080           
   11427 A    2857 TIP4 H2   HW0      0.679100        1.0080           
   11428 A    2857 TIP4 BD1  LP0     -1.358200        0.0000           
   11429 A    2858 TIP4 O1   OW0      0.000000       15.9990           
   11430 A    2858 TIP4 H1   HW0      0.679100        1.0080           
   11431 A    2858 TIP4 H2   HW0      0.679100        1.0080           
   11432 A    2858 TIP4 BD1  LP0     -1.358200        0.0000           
   11433 A    2859 TIP4 O1   OW0      0.000000       15.9990           
   11434 A    2859 TIP4 H1   HW0      0.679100        1.0080           
   11435 A    2859 TIP4 H2   HW0      0.679100        1.0080           
   11436 A    2859 TIP4 BD1  LP0     -1.358200        0.0000           
   11437 A    2860 TIP4 O1   OW0      0.000000       15.9990           
   11438 A    2860 TIP4 H1   HW0      0.679100        1.0080           
   11439 A    2860 TIP4 H2   HW0      0.679100        1.0080           
   11440 A    2860 TIP4 BD1  LP0     -1.358200        0.0000           
   11441 A    2861 TIP4 O1   OW0      0.000000       15.9990           
   11442 A    2861 TIP4 H1   HW0      0.679100        1.0080           
   11443 A    2861 TIP4 H2   HW0      0.679100        1.0080           
   11444 A    2861 TIP4 BD1  LP0     -1.358200        0.0000           
   11445 A    2862 TIP4 O1   OW0      0.000000       15.9990           
   11446 A    2862 TIP4 H1   HW0      0.679100        1.0080           
   11447 A    2862 TIP4 H2   HW0      0.679100        1.0080           
   11448 A    2862 TIP4 BD1  LP0     -1.358200        0.0000           
   11449 A    2863 TIP4 O1   OW0      0.000000       15.9990           
   11450 A    2863 TIP4 H1   HW0      0.679100        1.0080           
   11451 A    2863 TIP4 H2   HW0      0.679100        1.0080           
   11452 A    2863 TIP4 BD1  LP0     -1.358200        0.0000           
   11453 A    2864 TIP4 O1   OW0      0.000000       15.9990           
   11454 A    2864 TIP4 H1   HW0      0.679100        1.0080           
   11455 A    2864 TIP4 H2   HW0      0.679100        1.0080           
   11456 A    2864 TIP4 BD1  LP0     -1.358200        0.0000           
   11457 A    2865 TIP4 O1   OW0      0.000000       15.9990           
   11458 A    2865 TIP4 H1   HW0      0.679100        1.0080           
   11459 A    2865 TIP4 H2   HW0      0.679100        1.0080           
   11460 A    2865 TIP4 BD1  LP0     -1.358200        0.0000           
   11461 A    2866 TIP4 O1   OW0      0.000000       15.9990           
   11462 A    2866 TIP4 H1   HW0      0.679100        1.0080           
   11463 A    2866 TIP4 H2   HW0      0.679100        1.0080           
   11464 A    2866 TIP4 BD1  LP0     -1.358200        0.0000           
   11465 A    2867 TIP4 O1   OW0      0.000000       15.9990           
   11466 A    2867 TIP4 H1   HW0      0.679100        1.0080           
   11467 A    2867 TIP4 H2   HW0      0.679100        1.0080           
   11468 A    2867 TIP4 BD1  LP0     -1.358200        0.0000           
   11469 A    2868 TIP4 O1   OW0      0.000000       15.9990           
   11470 A    2868 TIP4 H1   HW0      0.679100        1.0080           
   11471 A    2868 TIP4 H2   HW0      0.679100        1.0080           
   11472 A    2868 TIP4 BD1  LP0     -1.358200        0.0000           
   11473 A    2869 TIP4 O1   OW0      0.000000       15.9990           
   11474 A    2869 TIP4 H1   HW0      0.679100        1.0080           
   11475 A    2869 TIP4 H2   HW0      0.679100        1.0080           
   11476 A    2869 TIP4 BD1  LP0     -1.358200        0.0000           
   11477 A    2870 TIP4 O1   OW0      0.000000       15.9990           
   11478 A    2870 TIP4 H1   HW0      0.679100        1.0080           
   11479 A    2870 TIP4 H2   HW0      0.679100        1.0080           
   11480 A    2870 TIP4 BD1  LP0     -1.358200        0.0000           
   11481 A    2871 TIP4 O1   OW0      0.000000       15.9990           
   11482 A    2871 TIP4 H1   HW0      0.679100        1.0080           
   11483 A    2871 TIP4 H2   HW0      0.679100        1.0080           
   11484 A    2871 TIP4 BD1  LP0     -1.358200        0.0000           
   11485 A    2872 TIP4 O1   OW0      0.000000       15.9990           
   11486 A    2872 TIP4 H1   HW0      0.679100        1.0080           
   11487 A    2872 TIP4 H2   HW0      0.679100        1.0080           
   11488 A    2872 TIP4 BD1  LP0     -1.358200        0.0000           
   11489 A    2873 TIP4 O1   OW0      0.000000       15.9990           
   11490 A    2873 TIP4 H1   HW0      0.679100        1.0080           
   11491 A    2873 TIP4 H2   HW0      0.679100        1.0080           
   11492 A    2873 TIP4 BD1  LP0     -1.358200        0.0000           
   11493 A    2874 TIP4 O1   OW0      0.000000       15.9990           
   11494 A    2874 TIP4 H1   HW0      0.679100        1.0080           
   11495 A    2874 TIP4 H2   HW0      0.679100        1.0080           
   11496 A    2874 TIP4 BD1  LP0     -1.358200        0.0000           
   11497 A    2875 TIP4 O1   OW0      0.000000       15.9990           
   11498 A    2875 TIP4 H1   HW0      0.679100        1.0080           
   11499 A    2875 TIP4 H2   HW0      0.679100        1.0080           
   11500 A    2875 TIP4 BD1  LP0     -1.358200        0.0000           
   11501 A    2876 TIP4 O1   OW0      0.000000       15.9990           
   11502 A    2876 TIP4 H1   HW0      0.679100        1.0080           
   11503 A    2876 TIP4 H2   HW0      0.679100        1.0080           
   11504 A    2876 TIP4 BD1  LP0     -1.358200        0.0000           
   11505 A    2877 TIP4 O1   OW0      0.000000       15.9990           
   11506 A    2877 TIP4 H1   HW0      0.679100        1.0080           
   11507 A    2877 TIP4 H2   HW0      0.679100        1.0080           
   11508 A    2877 TIP4 BD1  LP0     -1.358200        0.0000           
   11509 A    2878 TIP4 O1   OW0      0.000000       15.9990           
   11510 A    2878 TIP4 H1   HW0      0.679100        1.0080           
   11511 A    2878 TIP4 H2   HW0      0.679100        1.0080           
   11512 A    2878 TIP4 BD1  LP0     -1.358200        0.0000           
   11513 A    2879 TIP4 O1   OW0      0.000000       15.9990           
   11514 A    2879 TIP4 H1   HW0      0.679100        1.0080           
   11515 A    2879 TIP4 H2   HW0      0.679100        1.0080           
   11516 A    2879 TIP4 BD1  LP0     -1.358200        0.0000           
   11517 A    2880 TIP4 O1   OW0      0.000000       15.9990           
   11518 A    2880 TIP4 H1   HW0      0.679100        1.0080           
   11519 A    2880 TIP4 H2   HW0      0.679100        1.0080           
   11520 A    2880 TIP4 BD1  LP0     -1.358200        0.0000           
   11521 A    2881 TIP4 O1   OW0      0.000000       15.9990           
   11522 A    2881 TIP4 H1   HW0      0.679100        1.0080           
   11523 A    2881 TIP4 H2   HW0      0.679100        1.0080           
   11524 A    2881 TIP4 BD1  LP0     -1.358200        0.0000           
   11525 A    2882 TIP4 O1   OW0      0.000000       15.9990           
   11526 A    2882 TIP4 H1   HW0      0.679100        1.0080           
   11527 A    2882 TIP4 H2   HW0      0.679100        1.0080           
   11528 A    2882 TIP4 BD1  LP0     -1.358200        0.0000           
   11529 A    2883 TIP4 O1   OW0      0.000000       15.9990           
   11530 A    2883 TIP4 H1   HW0      0.679100        1.0080           
   11531 A    2883 TIP4 H2   HW0      0.679100        1.0080           
   11532 A    2883 TIP4 BD1  LP0     -1.358200        0.0000           
   11533 A    2884 TIP4 O1   OW0      0.000000       15.9990           
   11534 A    2884 TIP4 H1   HW0      0.679100        1.0080           
   11535 A    2884 TIP4 H2   HW0      0.679100        1.0080           
   11536 A    2884 TIP4 BD1  LP0     -1.358200        0.0000           
   11537 A    2885 TIP4 O1   OW0      0.000000       15.9990           
   11538 A    2885 TIP4 H1   HW0      0.679100        1.0080           
   11539 A    2885 TIP4 H2   HW0      0.679100        1.0080           
   11540 A    2885 TIP4 BD1  LP0     -1.358200        0.0000           
   11541 A    2886 TIP4 O1   OW0      0.000000       15.9990           
   11542 A    2886 TIP4 H1   HW0      0.679100        1.0080           
   11543 A    2886 TIP4 H2   HW0      0.679100        1.0080           
   11544 A    2886 TIP4 BD1  LP0     -1.358200        0.0000           
   11545 A    2887 TIP4 O1   OW0      0.000000       15.9990           
   11546 A    2887 TIP4 H1   HW0      0.679100        1.0080           
   11547 A    2887 TIP4 H2   HW0      0.679100        1.0080           
   11548 A    2887 TIP4 BD1  LP0     -1.358200        0.0000           
   11549 A    2888 TIP4 O1   OW0      0.000000       15.9990           
   11550 A    2888 TIP4 H1   HW0      0.679100        1.0080           
   11551 A    2888 TIP4 H2   HW0      0.679100        1.0080           
   11552 A    2888 TIP4 BD1  LP0     -1.358200        0.0000           
   11553 A    2889 TIP4 O1   OW0      0.000000       15.9990           
   11554 A    2889 TIP4 H1   HW0      0.679100        1.0080           
   11555 A    2889 TIP4 H2   HW0      0.679100        1.0080           
   11556 A    2889 TIP4 BD1  LP0     -1.358200        0.0000           
   11557 A    2890 TIP4 O1   OW0      0.000000       15.9990           
   11558 A    2890 TIP4 H1   HW0      0.679100        1.0080           
   11559 A    2890 TIP4 H2   HW0      0.679100        1.0080           
   11560 A    2890 TIP4 BD1  LP0     -1.358200        0.0000           
   11561 A    2891 TIP4 O1   OW0      0.000000       15.9990           
   11562 A    2891 TIP4 H1   HW0      0.679100        1.0080           
   11563 A    2891 TIP4 H2   HW0      0.679100        1.0080           
   11564 A    2891 TIP4 BD1  LP0     -1.358200        0.0000           
   11565 A    2892 TIP4 O1   OW0      0.000000       15.9990           
   11566 A    2892 TIP4 H1   HW0      0.679100        1.0080           
   11567 A    2892 TIP4 H2   HW0      0.679100        1.0080           
   11568 A    2892 TIP4 BD1  LP0     -1.358200        0.0000           
   11569 A    2893 TIP4 O1   OW0      0.000000       15.9990           
   11570 A    2893 TIP4 H1   HW0      0.679100        1.0080           
   11571 A    2893 TIP4 H2   HW0      0.679100        1.0080           
   11572 A    2893 TIP4 BD1  LP0     -1.358200        0.0000           
   11573 A    2894 TIP4 O1   OW0      0.000000       15.9990           
   11574 A    2894 TIP4 H1   HW0      0.679100        1.0080           
   11575 A    2894 TIP4 H2   HW0      0.679100        1.0080           
   11576 A    2894 TIP4 BD1  LP0     -1.358200        0.0000           
   11577 A    2895 TIP4 O1   OW0      0.000000       15.9990           
   11578 A    2895 TIP4 H1   HW0      0.679100        1.0080           
   11579 A    2895 TIP4 H2   HW0      0.679100        1.0080           
   11580 A    2895 TIP4 BD1  LP0     -1.358200        0.0000           
   11581 A    2896 TIP4 O1   OW0      0.000000       15.9990           
   11582 A    2896 TIP4 H1   HW0      0.679100        1.0080           
   11583 A    2896 TIP4 H2   HW0      0.679100        1.0080           
   11584 A    2896 TIP4 BD1  LP0     -1.358200        0.0000           
   11585 A    2897 TIP4 O1   OW0      0.000000       15.9990           
   11586 A    2897 TIP4 H1   HW0      0.679100        1.0080           
   11587 A    2897 TIP4 H2   HW0      0.679100        1.0080           
   11588 A    2897 TIP4 BD1  LP0     -1.358200        0.0000           
   11589 A    2898 TIP4 O1   OW0      0.000000       15.9990           
   11590 A    2898 TIP4 H1   HW0      0.679100        1.0080           
   11591 A    2898 TIP4 H2   HW0      0.679100        1.0080           
   11592 A    2898 TIP4 BD1  LP0     -1.358200        0.0000           
   11593 A    2899 TIP4 O1   OW0      0.000000       15.9990           
   11594 A    2899 TIP4 H1   HW0      0.679100        1.0080           
   11595 A    2899 TIP4 H2   HW0      0.679100        1.0080           
   11596 A    2899 TIP4 BD1  LP0     -1.358200        0.0000           
   11597 A    2900 TIP4 O1   OW0      0.000000       15.9990           
   11598 A    2900 TIP4 H1   HW0      0.679100        1.0080           
   11599 A    2900 TIP4 H2   HW0      0.679100        1.0080           
   11600 A    2900 TIP4 BD1  LP0     -1.358200        0.0000           
   11601 A    2901 TIP4 O1   OW0      0.000000       15.9990           
   11602 A    2901 TIP4 H1   HW0      0.679100        1.0080           
   11603 A    2901 TIP4 H2   HW0      0.679100        1.0080           
   11604 A    2901 TIP4 BD1  LP0     -1.358200        0.0000           
   11605 A    2902 TIP4 O1   OW0      0.000000       15.9990           
   11606 A    2902 TIP4 H1   HW0      0.679100        1.0080           
   11607 A    2902 TIP4 H2   HW0      0.679100        1.0080           
   11608 A    2902 TIP4 BD1  LP0     -1.358200        0.0000           
   11609 A    2903 TIP4 O1   OW0      0.000000       15.9990           
   11610 A    2903 TIP4 H1   HW0      0.679100        1.0080           
   11611 A    2903 TIP4 H2   HW0      0.679100        1.0080           
   11612 A    2903 TIP4 BD1  LP0     -1.358200        0.0000           
   11613 A    2904 TIP4 O1   OW0      0.000000       15.9990           
   11614 A    2904 TIP4 H1   HW0      0.679100        1.0080           
   11615 A    2904 TIP4 H2   HW0      0.679100        1.0080           
   11616 A    2904 TIP4 BD1  LP0     -1.358200        0.0000           
   11617 A    2905 TIP4 O1   OW0      0.000000       15.9990           
   11618 A    2905 TIP4 H1   HW0      0.679100        1.0080           
   11619 A    2905 TIP4 H2   HW0      0.679100        1.0080           
   11620 A    2905 TIP4 BD1  LP0     -1.358200        0.0000           
   11621 A    2906 TIP4 O1   OW0      0.000000       15.9990           
   11622 A    2906 TIP4 H1   HW0      0.679100        1.0080           
   11623 A    2906 TIP4 H2   HW0      0.679100        1.0080           
   11624 A    2906 TIP4 BD1  LP0     -1.358200        0.0000           
   11625 A    2907 TIP4 O1   OW0      0.000000       15.9990           
   11626 A    2907 TIP4 H1   HW0      0.679100        1.0080           
   11627 A    2907 TIP4 H2   HW0      0.679100        1.0080           
   11628 A    2907 TIP4 BD1  LP0     -1.358200        0.0000           
   11629 A    2908 TIP4 O1   OW0      0.000000       15.9990           
   11630 A    2908 TIP4 H1   HW0      0.679100        1.0080           
   11631 A    2908 TIP4 H2   HW0      0.679100        1.0080           
   11632 A    2908 TIP4 BD1  LP0     -1.358200        0.0000           
   11633 A    2909 TIP4 O1   OW0      0.000000       15.9990           
   11634 A    2909 TIP4 H1   HW0      0.679100        1.0080           
   11635 A    2909 TIP4 H2   HW0      0.679100        1.0080           
   11636 A    2909 TIP4 BD1  LP0     -1.358200        0.0000           
   11637 A    2910 TIP4 O1   OW0      0.000000       15.9990           
   11638 A    2910 TIP4 H1   HW0      0.679100        1.0080           
   11639 A    2910 TIP4 H2   HW0      0.679100        1.0080           
   11640 A    2910 TIP4 BD1  LP0     -1.358200        0.0000           
   11641 A    2911 TIP4 O1   OW0      0.000000       15.9990           
   11642 A    2911 TIP4 H1   HW0      0.679100        1.0080           
   11643 A    2911 TIP4 H2   HW0      0.679100        1.0080           
   11644 A    2911 TIP4 BD1  LP0     -1.358200        0.0000           
   11645 A    2912 TIP4 O1   OW0      0.000000       15.9990           
   11646 A    2912 TIP4 H1   HW0      0.679100        1.0080           
   11647 A    2912 TIP4 H2   HW0      0.679100        1.0080           
   11648 A    2912 TIP4 BD1  LP0     -1.358200        0.0000           
   11649 A    2913 TIP4 O1   OW0      0.000000       15.9990           
   11650 A    2913 TIP4 H1   HW0      0.679100        1.0080           
   11651 A    2913 TIP4 H2   HW0      0.679100        1.0080           
   11652 A    2913 TIP4 BD1  LP0     -1.358200        0.0000           
   11653 A    2914 TIP4 O1   OW0      0.000000       15.9990           
   11654 A    2914 TIP4 H1   HW0      0.679100        1.0080           
   11655 A    2914 TIP4 H2   HW0      0.679100        1.0080           
   11656 A    2914 TIP4 BD1  LP0     -1.358200        0.0000           
   11657 A    2915 TIP4 O1   OW0      0.000000       15.9990           
   11658 A    2915 TIP4 H1   HW0      0.679100        1.0080           
   11659 A    2915 TIP4 H2   HW0      0.679100        1.0080           
   11660 A    2915 TIP4 BD1  LP0     -1.358200        0.0000           
   11661 A    2916 TIP4 O1   OW0      0.000000       15.9990           
   11662 A    2916 TIP4 H1   HW0      0.679100        1.0080           
   11663 A    2916 TIP4 H2   HW0      0.679100        1.0080           
   11664 A    2916 TIP4 BD1  LP0     -1.358200        0.0000           
   11665 A    2917 TIP4 O1   OW0      0.000000       15.9990           
   11666 A    2917 TIP4 H1   HW0      0.679100        1.0080           
   11667 A    2917 TIP4 H2   HW0      0.679100        1.0080           
   11668 A    2917 TIP4 BD1  LP0     -1.358200        0.0000           
   11669 A    2918 TIP4 O1   OW0      0.000000       15.9990           
   11670 A    2918 TIP4 H1   HW0      0.679100        1.0080           
   11671 A    2918 TIP4 H2   HW0      0.679100        1.0080           
   11672 A    2918 TIP4 BD1  LP0     -1.358200        0.0000           
   11673 A    2919 TIP4 O1   OW0      0.000000       15.9990           
   11674 A    2919 TIP4 H1   HW0      0.679100        1.0080           
   11675 A    2919 TIP4 H2   HW0      0.679100        1.0080           
   11676 A    2919 TIP4 BD1  LP0     -1.358200        0.0000           
   11677 A    2920 TIP4 O1   OW0      0.000000       15.9990           
   11678 A    2920 TIP4 H1   HW0      0.679100        1.0080           
   11679 A    2920 TIP4 H2   HW0      0.679100        1.0080           
   11680 A    2920 TIP4 BD1  LP0     -1.358200        0.0000           
   11681 A    2921 TIP4 O1   OW0      0.000000       15.9990           
   11682 A    2921 TIP4 H1   HW0      0.679100        1.0080           
   11683 A    2921 TIP4 H2   HW0      0.679100        1.0080           
   11684 A    2921 TIP4 BD1  LP0     -1.358200        0.0000           
   11685 A    2922 TIP4 O1   OW0      0.000000       15.9990           
   11686 A    2922 TIP4 H1   HW0      0.679100        1.0080           
   11687 A    2922 TIP4 H2   HW0      0.679100        1.0080           
   11688 A    2922 TIP4 BD1  LP0     -1.358200        0.0000           
   11689 A    2923 TIP4 O1   OW0      0.000000       15.9990           
   11690 A    2923 TIP4 H1   HW0      0.679100        1.0080           
   11691 A    2923 TIP4 H2   HW0      0.679100        1.0080           
   11692 A    2923 TIP4 BD1  LP0     -1.358200        0.0000           
   11693 A    2924 TIP4 O1   OW0      0.000000       15.9990           
   11694 A    2924 TIP4 H1   HW0      0.679100        1.0080           
   11695 A    2924 TIP4 H2   HW0      0.679100        1.0080           
   11696 A    2924 TIP4 BD1  LP0     -1.358200        0.0000           
   11697 A    2925 TIP4 O1   OW0      0.000000       15.9990           
   11698 A    2925 TIP4 H1   HW0      0.679100        1.0080           
   11699 A    2925 TIP4 H2   HW0      0.679100        1.0080           
   11700 A    2925 TIP4 BD1  LP0     -1.358200        0.0000           
   11701 A    2926 TIP4 O1   OW0      0.000000       15.9990           
   11702 A    2926 TIP4 H1   HW0      0.679100        1.0080           
   11703 A    2926 TIP4 H2   HW0      0.679100        1.0080           
   11704 A    2926 TIP4 BD1  LP0     -1.358200        0.0000           
   11705 A    2927 TIP4 O1   OW0      0.000000       15.9990           
   11706 A    2927 TIP4 H1   HW0      0.679100        1.0080           
   11707 A    2927 TIP4 H2   HW0      0.679100        1.0080           
   11708 A    2927 TIP4 BD1  LP0     -1.358200        0.0000           
   11709 A    2928 TIP4 O1   OW0      0.000000       15.9990           
   11710 A    2928 TIP4 H1   HW0      0.679100        1.0080           
   11711 A    2928 TIP4 H2   HW0      0.679100        1.0080           
   11712 A    2928 TIP4 BD1  LP0     -1.358200        0.0000           
   11713 A    2929 TIP4 O1   OW0      0.000000       15.9990           
   11714 A    2929 TIP4 H1   HW0      0.679100        1.0080           
   11715 A    2929 TIP4 H2   HW0      0.679100        1.0080           
   11716 A    2929 TIP4 BD1  LP0     -1.358200        0.0000           
   11717 A    2930 TIP4 O1   OW0      0.000000       15.9990           
   11718 A    2930 TIP4 H1   HW0      0.679100        1.0080           
   11719 A    2930 TIP4 H2   HW0      0.679100        1.0080           
   11720 A    2930 TIP4 BD1  LP0     -1.358200        0.0000           
   11721 A    2931 TIP4 O1   OW0      0.000000       15.9990           
   11722 A    2931 TIP4 H1   HW0      0.679100        1.0080           
   11723 A    2931 TIP4 H2   HW0      0.679100        1.0080           
   11724 A    2931 TIP4 BD1  LP0     -1.358200        0.0000           
   11725 A    2932 TIP4 O1   OW0      0.000000       15.9990           
   11726 A    2932 TIP4 H1   HW0      0.679100        1.0080           
   11727 A    2932 TIP4 H2   HW0      0.679100        1.0080           
   11728 A    2932 TIP4 BD1  LP0     -1.358200        0.0000           
   11729 A    2933 TIP4 O1   OW0      0.000000       15.9990           
   11730 A    2933 TIP4 H1   HW0      0.679100        1.0080           
   11731 A    2933 TIP4 H2   HW0      0.679100        1.0080           
   11732 A    2933 TIP4 BD1  LP0     -1.358200        0.0000           
   11733 A    2934 TIP4 O1   OW0      0.000000       15.9990           
   11734 A    2934 TIP4 H1   HW0      0.679100        1.0080           
   11735 A    2934 TIP4 H2   HW0      0.679100        1.0080           
   11736 A    2934 TIP4 BD1  LP0     -1.358200        0.0000           
   11737 A    2935 TIP4 O1   OW0      0.000000       15.9990           
   11738 A    2935 TIP4 H1   HW0      0.679100        1.0080           
   11739 A    2935 TIP4 H2   HW0      0.679100        1.0080           
   11740 A    2935 TIP4 BD1  LP0     -1.358200        0.0000           
   11741 A    2936 TIP4 O1   OW0      0.000000       15.9990           
   11742 A    2936 TIP4 H1   HW0      0.679100        1.0080           
   11743 A    2936 TIP4 H2   HW0      0.679100        1.0080           
   11744 A    2936 TIP4 BD1  LP0     -1.358200        0.0000           
   11745 A    2937 TIP4 O1   OW0      0.000000       15.9990           
   11746 A    2937 TIP4 H1   HW0      0.679100        1.0080           
   11747 A    2937 TIP4 H2   HW0      0.679100        1.0080           
   11748 A    2937 TIP4 BD1  LP0     -1.358200        0.0000           
   11749 A    2938 TIP4 O1   OW0      0.000000       15.9990           
   11750 A    2938 TIP4 H1   HW0      0.679100        1.0080           
   11751 A    2938 TIP4 H2   HW0      0.679100        1.0080           
   11752 A    2938 TIP4 BD1  LP0     -1.358200        0.0000           
   11753 A    2939 TIP4 O1   OW0      0.000000       15.9990           
   11754 A    2939 TIP4 H1   HW0      0.679100        1.0080           
   11755 A    2939 TIP4 H2   HW0      0.679100        1.0080           
   11756 A    2939 TIP4 BD1  LP0     -1.358200        0.0000           
   11757 A    2940 TIP4 O1   OW0      0.000000       15.9990           
   11758 A    2940 TIP4 H1   HW0      0.679100        1.0080           
   11759 A    2940 TIP4 H2   HW0      0.679100        1.0080           
   11760 A    2940 TIP4 BD1  LP0     -1.358200        0.0000           
   11761 A    2941 TIP4 O1   OW0      0.000000       15.9990           
   11762 A    2941 TIP4 H1   HW0      0.679100        1.0080           
   11763 A    2941 TIP4 H2   HW0      0.679100        1.0080           
   11764 A    2941 TIP4 BD1  LP0     -1.358200        0.0000           
   11765 A    2942 TIP4 O1   OW0      0.000000       15.9990           
   11766 A    2942 TIP4 H1   HW0      0.679100        1.0080           
   11767 A    2942 TIP4 H2   HW0      0.679100        1.0080           
   11768 A    2942 TIP4 BD1  LP0     -1.358200        0.0000           
   11769 A    2943 TIP4 O1   OW0      0.000000       15.9990           
   11770 A    2943 TIP4 H1   HW0      0.679100        1.0080           
   11771 A    2943 TIP4 H2   HW0      0.679100        1.0080           
   11772 A    2943 TIP4 BD1  LP0     -1.358200        0.0000           
   11773 A    2944 TIP4 O1   OW0      0.000000       15.9990           
   11774 A    2944 TIP4 H1   HW0      0.679100        1.0080           
   11775 A    2944 TIP4 H2   HW0      0.679100        1.0080           
   11776 A    2944 TIP4 BD1  LP0     -1.358200        0.0000           
   11777 A    2945 TIP4 O1   OW0      0.000000       15.9990           
   11778 A    2945 TIP4 H1   HW0      0.679100        1.0080           
   11779 A    2945 TIP4 H2   HW0      0.679100        1.0080           
   11780 A    2945 TIP4 BD1  LP0     -1.358200        0.0000           
   11781 A    2946 TIP4 O1   OW0      0.000000       15.9990           
   11782 A    2946 TIP4 H1   HW0      0.679100        1.0080           
   11783 A    2946 TIP4 H2   HW0      0.679100        1.0080           
   11784 A    2946 TIP4 BD1  LP0     -1.358200        0.0000           
   11785 A    2947 TIP4 O1   OW0      0.000000       15.9990           
   11786 A    2947 TIP4 H1   HW0      0.679100        1.0080           
   11787 A    2947 TIP4 H2   HW0      0.679100        1.0080           
   11788 A    2947 TIP4 BD1  LP0     -1.358200        0.0000           
   11789 A    2948 TIP4 O1   OW0      0.000000       15.9990           
   11790 A    2948 TIP4 H1   HW0      0.679100        1.0080           
   11791 A    2948 TIP4 H2   HW0      0.679100        1.0080           
   11792 A    2948 TIP4 BD1  LP0     -1.358200        0.0000           
   11793 A    2949 TIP4 O1   OW0      0.000000       15.9990           
   11794 A    2949 TIP4 H1   HW0      0.679100        1.0080           
   11795 A    2949 TIP4 H2   HW0      0.679100        1.0080           
   11796 A    2949 TIP4 BD1  LP0     -1.358200        0.0000           
   11797 A    2950 TIP4 O1   OW0      0.000000       15.9990           
   11798 A    2950 TIP4 H1   HW0      0.679100        1.0080           
   11799 A    2950 TIP4 H2   HW0      0.679100        1.0080           
   11800 A    2950 TIP4 BD1  LP0     -1.358200        0.0000           
   11801 A    2951 TIP4 O1   OW0      0.000000       15.9990           
   11802 A    2951 TIP4 H1   HW0      0.679100        1.0080           
   11803 A    2951 TIP4 H2   HW0      0.679100        1.0080           
   11804 A    2951 TIP4 BD1  LP0     -1.358200        0.0000           
   11805 A    2952 TIP4 O1   OW0      0.000000       15.9990           
   11806 A    2952 TIP4 H1   HW0      0.679100        1.0080           
   11807 A    2952 TIP4 H2   HW0      0.679100        1.0080           
   11808 A    2952 TIP4 BD1  LP0     -1.358200        0.0000           
   11809 A    2953 TIP4 O1   OW0      0.000000       15.9990           
   11810 A    2953 TIP4 H1   HW0      0.679100        1.0080           
   11811 A    2953 TIP4 H2   HW0      0.679100        1.0080           
   11812 A    2953 TIP4 BD1  LP0     -1.358200        0.0000           
   11813 A    2954 TIP4 O1   OW0      0.000000       15.9990           
   11814 A    2954 TIP4 H1   HW0      0.679100        1.0080           
   11815 A    2954 TIP4 H2   HW0      0.679100        1.0080           
   11816 A    2954 TIP4 BD1  LP0     -1.358200        0.0000           
   11817 A    2955 TIP4 O1   OW0      0.000000       15.9990           
   11818 A    2955 TIP4 H1   HW0      0.679100        1.0080           
   11819 A    2955 TIP4 H2   HW0      0.679100        1.0080           
   11820 A    2955 TIP4 BD1  LP0     -1.358200        0.0000           
   11821 A    2956 TIP4 O1   OW0      0.000000       15.9990           
   11822 A    2956 TIP4 H1   HW0      0.679100        1.0080           
   11823 A    2956 TIP4 H2   HW0      0.679100        1.0080           
   11824 A    2956 TIP4 BD1  LP0     -1.358200        0.0000           
   11825 A    2957 TIP4 O1   OW0      0.000000       15.9990           
   11826 A    2957 TIP4 H1   HW0      0.679100        1.0080           
   11827 A    2957 TIP4 H2   HW0      0.679100        1.0080           
   11828 A    2957 TIP4 BD1  LP0     -1.358200        0.0000           
   11829 A    2958 TIP4 O1   OW0      0.000000       15.9990           
   11830 A    2958 TIP4 H1   HW0      0.679100        1.0080           
   11831 A    2958 TIP4 H2   HW0      0.679100        1.0080           
   11832 A    2958 TIP4 BD1  LP0     -1.358200        0.0000           
   11833 A    2959 TIP4 O1   OW0      0.000000       15.9990           
   11834 A    2959 TIP4 H1   HW0      0.679100        1.0080           
   11835 A    2959 TIP4 H2   HW0      0.679100        1.0080           
   11836 A    2959 TIP4 BD1  LP0     -1.358200        0.0000           
   11837 A    2960 TIP4 O1   OW0      0.000000       15.9990           
   11838 A    2960 TIP4 H1   HW0      0.679100        1.0080           
   11839 A    2960 TIP4 H2   HW0      0.679100        1.0080           
   11840 A    2960 TIP4 BD1  LP0     -1.358200        0.0000           
   11841 A    2961 TIP4 O1   OW0      0.000000       15.9990           
   11842 A    2961 TIP4 H1   HW0      0.679100        1.0080           
   11843 A    2961 TIP4 H2   HW0      0.679100        1.0080           
   11844 A    2961 TIP4 BD1  LP0     -1.358200        0.0000           
   11845 A    2962 TIP4 O1   OW0      0.000000       15.9990           
   11846 A    2962 TIP4 H1   HW0      0.679100        1.0080           
   11847 A    2962 TIP4 H2   HW0      0.679100        1.0080           
   11848 A    2962 TIP4 BD1  LP0     -1.358200        0.0000           
   11849 A    2963 TIP4 O1   OW0      0.000000       15.9990           
   11850 A    2963 TIP4 H1   HW0      0.679100        1.0080           
   11851 A    2963 TIP4 H2   HW0      0.679100        1.0080           
   11852 A    2963 TIP4 BD1  LP0     -1.358200        0.0000           
   11853 A    2964 TIP4 O1   OW0      0.000000       15.9990           
   11854 A    2964 TIP4 H1   HW0      0.679100        1.0080           
   11855 A    2964 TIP4 H2   HW0      0.679100        1.0080           
   11856 A    2964 TIP4 BD1  LP0     -1.358200        0.0000           
   11857 A    2965 TIP4 O1   OW0      0.000000       15.9990           
   11858 A    2965 TIP4 H1   HW0      0.679100        1.0080           
   11859 A    2965 TIP4 H2   HW0      0.679100        1.0080           
   11860 A    2965 TIP4 BD1  LP0     -1.358200        0.0000           
   11861 A    2966 TIP4 O1   OW0      0.000000       15.9990           
   11862 A    2966 TIP4 H1   HW0      0.679100        1.0080           
   11863 A    2966 TIP4 H2   HW0      0.679100        1.0080           
   11864 A    2966 TIP4 BD1  LP0     -1.358200        0.0000           
   11865 A    2967 TIP4 O1   OW0      0.000000       15.9990           
   11866 A    2967 TIP4 H1   HW0      0.679100        1.0080           
   11867 A    2967 TIP4 H2   HW0      0.679100        1.0080           
   11868 A    2967 TIP4 BD1  LP0     -1.358200        0.0000           
   11869 A    2968 TIP4 O1   OW0      0.000000       15.9990           
   11870 A    2968 TIP4 H1   HW0      0.679100        1.0080           
   11871 A    2968 TIP4 H2   HW0      0.679100        1.0080           
   11872 A    2968 TIP4 BD1  LP0     -1.358200        0.0000           
   11873 A    2969 TIP4 O1   OW0      0.000000       15.9990           
   11874 A    2969 TIP4 H1   HW0      0.679100        1.0080           
   11875 A    2969 TIP4 H2   HW0      0.679100        1.0080           
   11876 A    2969 TIP4 BD1  LP0     -1.358200        0.0000           
   11877 A    2970 TIP4 O1   OW0      0.000000       15.9990           
   11878 A    2970 TIP4 H1   HW0      0.679100        1.0080           
   11879 A    2970 TIP4 H2   HW0      0.679100        1.0080           
   11880 A    2970 TIP4 BD1  LP0     -1.358200        0.0000           
   11881 A    2971 TIP4 O1   OW0      0.000000       15.9990           
   11882 A    2971 TIP4 H1   HW0      0.679100        1.0080           
   11883 A    2971 TIP4 H2   HW0      0.679100        1.0080           
   11884 A    2971 TIP4 BD1  LP0     -1.358200        0.0000           
   11885 A    2972 TIP4 O1   OW0      0.000000       15.9990           
   11886 A    2972 TIP4 H1   HW0      0.679100        1.0080           
   11887 A    2972 TIP4 H2   HW0      0.679100        1.0080           
   11888 A    2972 TIP4 BD1  LP0     -1.358200        0.0000           
   11889 A    2973 TIP4 O1   OW0      0.000000       15.9990           
   11890 A    2973 TIP4 H1   HW0      0.679100        1.0080           
   11891 A    2973 TIP4 H2   HW0      0.679100        1.0080           
   11892 A    2973 TIP4 BD1  LP0     -1.358200        0.0000           
   11893 A    2974 TIP4 O1   OW0      0.000000       15.9990           
   11894 A    2974 TIP4 H1   HW0      0.679100        1.0080           
   11895 A    2974 TIP4 H2   HW0      0.679100        1.0080           
   11896 A    2974 TIP4 BD1  LP0     -1.358200        0.0000           
   11897 A    2975 TIP4 O1   OW0      0.000000       15.9990           
   11898 A    2975 TIP4 H1   HW0      0.679100        1.0080           
   11899 A    2975 TIP4 H2   HW0      0.679100        1.0080           
   11900 A    2975 TIP4 BD1  LP0     -1.358200        0.0000           
   11901 A    2976 TIP4 O1   OW0      0.000000       15.9990           
   11902 A    2976 TIP4 H1   HW0      0.679100        1.0080           
   11903 A    2976 TIP4 H2   HW0      0.679100        1.0080           
   11904 A    2976 TIP4 BD1  LP0     -1.358200        0.0000           
   11905 A    2977 TIP4 O1   OW0      0.000000       15.9990           
   11906 A    2977 TIP4 H1   HW0      0.679100        1.0080           
   11907 A    2977 TIP4 H2   HW0      0.679100        1.0080           
   11908 A    2977 TIP4 BD1  LP0     -1.358200        0.0000           
   11909 A    2978 TIP4 O1   OW0      0.000000       15.9990           
   11910 A    2978 TIP4 H1   HW0      0.679100        1.0080           
   11911 A    2978 TIP4 H2   HW0      0.679100        1.0080           
   11912 A    2978 TIP4 BD1  LP0     -1.358200        0.0000           
   11913 A    2979 TIP4 O1   OW0      0.000000       15.9990           
   11914 A    2979 TIP4 H1   HW0      0.679100        1.0080           
   11915 A    2979 TIP4 H2   HW0      0.679100        1.0080           
   11916 A    2979 TIP4 BD1  LP0     -1.358200        0.0000           
   11917 A    2980 TIP4 O1   OW0      0.000000       15.9990           
   11918 A    2980 TIP4 H1   HW0      0.679100        1.0080           
   11919 A    2980 TIP4 H2   HW0      0.679100        1.0080           
   11920 A    2980 TIP4 BD1  LP0     -1.358200        0.0000           
   11921 A    2981 TIP4 O1   OW0      0.000000       15.9990           
   11922 A    2981 TIP4 H1   HW0      0.679100        1.0080           
   11923 A    2981 TIP4 H2   HW0      0.679100        1.0080           
   11924 A    2981 TIP4 BD1  LP0     -1.358200        0.0000           
   11925 A    2982 TIP4 O1   OW0      0.000000       15.9990           
   11926 A    2982 TIP4 H1   HW0      0.679100        1.0080           
   11927 A    2982 TIP4 H2   HW0      0.679100        1.0080           
   11928 A    2982 TIP4 BD1  LP0     -1.358200        0.0000           
   11929 A    2983 TIP4 O1   OW0      0.000000       15.9990           
   11930 A    2983 TIP4 H1   HW0      0.679100        1.0080           
   11931 A    2983 TIP4 H2   HW0      0.679100        1.0080           
   11932 A    2983 TIP4 BD1  LP0     -1.358200        0.0000           
   11933 A    2984 TIP4 O1   OW0      0.000000       15.9990           
   11934 A    2984 TIP4 H1   HW0      0.679100        1.0080           
   11935 A    2984 TIP4 H2   HW0      0.679100        1.0080           
   11936 A    2984 TIP4 BD1  LP0     -1.358200        0.0000           
   11937 A    2985 TIP4 O1   OW0      0.000000       15.9990           
   11938 A    2985 TIP4 H1   HW0      0.679100        1.0080           
   11939 A    2985 TIP4 H2   HW0      0.679100        1.0080           
   11940 A    2985 TIP4 BD1  LP0     -1.358200        0.0000           
   11941 A    2986 TIP4 O1   OW0      0.000000       15.9990           
   11942 A    2986 TIP4 H1   HW0      0.679100        1.0080           
   11943 A    2986 TIP4 H2   HW0      0.679100        1.0080           
   11944 A    2986 TIP4 BD1  LP0     -1.358200        0.0000           
   11945 A    2987 TIP4 O1   OW0      0.000000       15.9990           
   11946 A    2987 TIP4 H1   HW0      0.679100        1.0080           
   11947 A    2987 TIP4 H2   HW0      0.679100        1.0080           
   11948 A    2987 TIP4 BD1  LP0     -1.358200        0.0000           
   11949 A    2988 TIP4 O1   OW0      0.000000       15.9990           
   11950 A    2988 TIP4 H1   HW0      0.679100        1.0080           
   11951 A    2988 TIP4 H2   HW0      0.679100        1.0080           
   11952 A    2988 TIP4 BD1  LP0     -1.358200        0.0000           
   11953 A    2989 TIP4 O1   OW0      0.000000       15.9990           
   11954 A    2989 TIP4 H1   HW0      0.679100        1.0080           
   11955 A    2989 TIP4 H2   HW0      0.679100        1.0080           
   11956 A    2989 TIP4 BD1  LP0     -1.358200        0.0000           
   11957 A    2990 TIP4 O1   OW0      0.000000       15.9990           
   11958 A    2990 TIP4 H1   HW0      0.679100        1.0080           
   11959 A    2990 TIP4 H2   HW0      0.679100        1.0080           
   11960 A    2990 TIP4 BD1  LP0     -1.358200        0.0000           
   11961 A    2991 TIP4 O1   OW0      0.000000       15.9990           
   11962 A    2991 TIP4 H1   HW0      0.679100        1.0080           
   11963 A    2991 TIP4 H2   HW0      0.679100        1.0080           
   11964 A    2991 TIP4 BD1  LP0     -1.358200        0.0000           
   11965 A    2992 TIP4 O1   OW0      0.000000       15.9990           
   11966 A    2992 TIP4 H1   HW0      0.679100        1.0080           
   11967 A    2992 TIP4 H2   HW0      0.679100        1.0080           
   11968 A    2992 TIP4 BD1  LP0     -1.358200        0.0000           
   11969 A    2993 TIP4 O1   OW0      0.000000       15.9990           
   11970 A    2993 TIP4 H1   HW0      0.679100        1.0080           
   11971 A    2993 TIP4 H2   HW0      0.679100        1.0080           
   11972 A    2993 TIP4 BD1  LP0     -1.358200        0.0000           
   11973 A    2994 TIP4 O1   OW0      0.000000       15.9990           
   11974 A    2994 TIP4 H1   HW0      0.679100        1.0080           
   11975 A    2994 TIP4 H2   HW0      0.679100        1.0080           
   11976 A    2994 TIP4 BD1  LP0     -1.358200        0.0000           
   11977 A    2995 TIP4 O1   OW0      0.000000       15.9990           
   11978 A    2995 TIP4 H1   HW0      0.679100        1.0080           
   11979 A    2995 TIP4 H2   HW0      0.679100        1.0080           
   11980 A    2995 TIP4 BD1  LP0     -1.358200        0.0000           
   11981 A    2996 TIP4 O1   OW0      0.000000       15.9990           
   11982 A    2996 TIP4 H1   HW0      0.679100        1.0080           
   11983 A    2996 TIP4 H2   HW0      0.679100        1.0080           
   11984 A    2996 TIP4 BD1  LP0     -1.358200        0.0000           
   11985 A    2997 TIP4 O1   OW0      0.000000       15.9990           
   11986 A    2997 TIP4 H1   HW0      0.679100        1.0080           
   11987 A    2997 TIP4 H2   HW0      0.679100        1.0080           
   11988 A    2997 TIP4 BD1  LP0     -1.358200        0.0000           
   11989 A    2998 TIP4 O1   OW0      0.000000       15.9990           
   11990 A    2998 TIP4 H1   HW0      0.679100        1.0080           
   11991 A    2998 TIP4 H2   HW0      0.679100        1.0080           
   11992 A    2998 TIP4 BD1  LP0     -1.358200        0.0000           
   11993 A    2999 TIP4 O1   OW0      0.000000       15.9990           
   11994 A    2999 TIP4 H1   HW0      0.679100        1.0080           
   11995 A    2999 TIP4 H2   HW0      0.679100        1.0080           
   11996 A    2999 TIP4 BD1  LP0     -1.358200        0.0000           
   11997 A    3000 TIP4 O1   OW0      0.000000       15.9990           
   11998 A    3000 TIP4 H1   HW0      0.679100        1.0080           
   11999 A    3000 TIP4 H2   HW0      0.679100        1.0080           
   12000 A    3000 TIP4 BD1  LP0     -1.358200        0.0000           
   12001 A    3001 TIP4 O1   OW0      0.000000       15.9990           
   12002 A    3001 TIP4 H1   HW0      0.679100        1.0080           
   12003 A    3001 TIP4 H2   HW0      0.679100        1.0080           
   12004 A    3001 TIP4 BD1  LP0     -1.358200        0.0000           
   12005 A    3002 TIP4 O1   OW0      0.000000       15.9990           
   12006 A    3002 TIP4 H1   HW0      0.679100        1.0080           
   12007 A    3002 TIP4 H2   HW0      0.679100        1.0080           
   12008 A    3002 TIP4 BD1  LP0     -1.358200        0.0000           
   12009 A    3003 TIP4 O1   OW0      0.000000       15.9990           
   12010 A    3003 TIP4 H1   HW0      0.679100        1.0080           
   12011 A    3003 TIP4 H2   HW0      0.679100        1.0080           
   12012 A    3003 TIP4 BD1  LP0     -1.358200        0.0000           
   12013 A    3004 TIP4 O1   OW0      0.000000       15.9990           
   12014 A    3004 TIP4 H1   HW0      0.679100        1.0080           
   12015 A    3004 TIP4 H2   HW0      0.679100        1.0080           
   12016 A    3004 TIP4 BD1  LP0     -1.358200        0.0000           
   12017 A    3005 TIP4 O1   OW0      0.000000       15.9990           
   12018 A    3005 TIP4 H1   HW0      0.679100        1.0080           
   12019 A    3005 TIP4 H2   HW0      0.679100        1.0080           
   12020 A    3005 TIP4 BD1  LP0     -1.358200        0.0000           
   12021 A    3006 TIP4 O1   OW0      0.000000       15.9990           
   12022 A    3006 TIP4 H1   HW0      0.679100        1.0080           
   12023 A    3006 TIP4 H2   HW0      0.679100        1.0080           
   12024 A    3006 TIP4 BD1  LP0     -1.358200        0.0000           
   12025 A    3007 TIP4 O1   OW0      0.000000       15.9990           
   12026 A    3007 TIP4 H1   HW0      0.679100        1.0080           
   12027 A    3007 TIP4 H2   HW0      0.679100        1.0080           
   12028 A    3007 TIP4 BD1  LP0     -1.358200        0.0000           
   12029 A    3008 TIP4 O1   OW0      0.000000       15.9990           
   12030 A    3008 TIP4 H1   HW0      0.679100        1.0080           
   12031 A    3008 TIP4 H2   HW0      0.679100        1.0080           
   12032 A    3008 TIP4 BD1  LP0     -1.358200        0.0000           
   12033 A    3009 TIP4 O1   OW0      0.000000       15.9990           
   12034 A    3009 TIP4 H1   HW0      0.679100        1.0080           
   12035 A    3009 TIP4 H2   HW0      0.679100        1.0080           
   12036 A    3009 TIP4 BD1  LP0     -1.358200        0.0000           
   12037 A    3010 TIP4 O1   OW0      0.000000       15.9990           
   12038 A    3010 TIP4 H1   HW0      0.679100        1.0080           
   12039 A    3010 TIP4 H2   HW0      0.679100        1.0080           
   12040 A    3010 TIP4 BD1  LP0     -1.358200        0.0000           
   12041 A    3011 TIP4 O1   OW0      0.000000       15.9990           
   12042 A    3011 TIP4 H1   HW0      0.679100        1.0080           
   12043 A    3011 TIP4 H2   HW0      0.679100        1.0080           
   12044 A    3011 TIP4 BD1  LP0     -1.358200        0.0000           
   12045 A    3012 TIP4 O1   OW0      0.000000       15.9990           
   12046 A    3012 TIP4 H1   HW0      0.679100        1.0080           
   12047 A    3012 TIP4 H2   HW0      0.679100        1.0080           
   12048 A    3012 TIP4 BD1  LP0     -1.358200        0.0000           
   12049 A    3013 TIP4 O1   OW0      0.000000       15.9990           
   12050 A    3013 TIP4 H1   HW0      0.679100        1.0080           
   12051 A    3013 TIP4 H2   HW0      0.679100        1.0080           
   12052 A    3013 TIP4 BD1  LP0     -1.358200        0.0000           
   12053 A    3014 TIP4 O1   OW0      0.000000       15.9990           
   12054 A    3014 TIP4 H1   HW0      0.679100        1.0080           
   12055 A    3014 TIP4 H2   HW0      0.679100        1.0080           
   12056 A    3014 TIP4 BD1  LP0     -1.358200        0.0000           
   12057 A    3015 TIP4 O1   OW0      0.000000       15.9990           
   12058 A    3015 TIP4 H1   HW0      0.679100        1.0080           
   12059 A    3015 TIP4 H2   HW0      0.679100        1.0080           
   12060 A    3015 TIP4 BD1  LP0     -1.358200        0.0000           
   12061 A    3016 TIP4 O1   OW0      0.000000       15.9990           
   12062 A    3016 TIP4 H1   HW0      0.679100        1.0080           
   12063 A    3016 TIP4 H2   HW0      0.679100        1.0080           
   12064 A    3016 TIP4 BD1  LP0     -1.358200        0.0000           
   12065 A    3017 TIP4 O1   OW0      0.000000       15.9990           
   12066 A    3017 TIP4 H1   HW0      0.679100        1.0080           
   12067 A    3017 TIP4 H2   HW0      0.679100        1.0080           
   12068 A    3017 TIP4 BD1  LP0     -1.358200        0.0000           
   12069 A    3018 TIP4 O1   OW0      0.000000       15.9990           
   12070 A    3018 TIP4 H1   HW0      0.679100        1.0080           
   12071 A    3018 TIP4 H2   HW0      0.679100        1.0080           
   12072 A    3018 TIP4 BD1  LP0     -1.358200        0.0000           
   12073 A    3019 TIP4 O1   OW0      0.000000       15.9990           
   12074 A    3019 TIP4 H1   HW0      0.679100        1.0080           
   12075 A    3019 TIP4 H2   HW0      0.679100        1.0080           
   12076 A    3019 TIP4 BD1  LP0     -1.358200        0.0000           
   12077 A    3020 TIP4 O1   OW0      0.000000       15.9990           
   12078 A    3020 TIP4 H1   HW0      0.679100        1.0080           
   12079 A    3020 TIP4 H2   HW0      0.679100        1.0080           
   12080 A    3020 TIP4 BD1  LP0     -1.358200        0.0000           
   12081 A    3021 TIP4 O1   OW0      0.000000       15.9990           
   12082 A    3021 TIP4 H1   HW0      0.679100        1.0080           
   12083 A    3021 TIP4 H2   HW0      0.679100        1.0080           
   12084 A    3021 TIP4 BD1  LP0     -1.358200        0.0000           
   12085 A    3022 TIP4 O1   OW0      0.000000       15.9990           
   12086 A    3022 TIP4 H1   HW0      0.679100        1.0080           
   12087 A    3022 TIP4 H2   HW0      0.679100        1.0080           
   12088 A    3022 TIP4 BD1  LP0     -1.358200        0.0000           
   12089 A    3023 TIP4 O1   OW0      0.000000       15.9990           
   12090 A    3023 TIP4 H1   HW0      0.679100        1.0080           
   12091 A    3023 TIP4 H2   HW0      0.679100        1.0080           
   12092 A    3023 TIP4 BD1  LP0     -1.358200        0.0000           
   12093 A    3024 TIP4 O1   OW0      0.000000       15.9990           
   12094 A    3024 TIP4 H1   HW0      0.679100        1.0080           
   12095 A    3024 TIP4 H2   HW0      0.679100        1.0080           
   12096 A    3024 TIP4 BD1  LP0     -1.358200        0.0000           
   12097 A    3025 TIP4 O1   OW0      0.000000       15.9990           
   12098 A    3025 TIP4 H1   HW0      0.679100        1.0080           
   12099 A    3025 TIP4 H2   HW0      0.679100        1.0080           
   12100 A    3025 TIP4 BD1  LP0     -1.358200        0.0000           
   12101 A    3026 TIP4 O1   OW0      0.000000       15.9990           
   12102 A    3026 TIP4 H1   HW0      0.679100        1.0080           
   12103 A    3026 TIP4 H2   HW0      0.679100        1.0080           
   12104 A    3026 TIP4 BD1  LP0     -1.358200        0.0000           
   12105 A    3027 TIP4 O1   OW0      0.000000       15.9990           
   12106 A    3027 TIP4 H1   HW0      0.679100        1.0080           
   12107 A    3027 TIP4 H2   HW0      0.679100        1.0080           
   12108 A    3027 TIP4 BD1  LP0     -1.358200        0.0000           
   12109 A    3028 TIP4 O1   OW0      0.000000       15.9990           
   12110 A    3028 TIP4 H1   HW0      0.679100        1.0080           
   12111 A    3028 TIP4 H2   HW0      0.679100        1.0080           
   12112 A    3028 TIP4 BD1  LP0     -1.358200        0.0000           
   12113 A    3029 TIP4 O1   OW0      0.000000       15.9990           
   12114 A    3029 TIP4 H1   HW0      0.679100        1.0080           
   12115 A    3029 TIP4 H2   HW0      0.679100        1.0080           
   12116 A    3029 TIP4 BD1  LP0     -1.358200        0.0000           
   12117 A    3030 TIP4 O1   OW0      0.000000       15.9990           
   12118 A    3030 TIP4 H1   HW0      0.679100        1.0080           
   12119 A    3030 TIP4 H2   HW0      0.679100        1.0080           
   12120 A    3030 TIP4 BD1  LP0     -1.358200        0.0000           
   12121 A    3031 TIP4 O1   OW0      0.000000       15.9990           
   12122 A    3031 TIP4 H1   HW0      0.679100        1.0080           
   12123 A    3031 TIP4 H2   HW0      0.679100        1.0080           
   12124 A    3031 TIP4 BD1  LP0     -1.358200        0.0000           
   12125 A    3032 TIP4 O1   OW0      0.000000       15.9990           
   12126 A    3032 TIP4 H1   HW0      0.679100        1.0080           
   12127 A    3032 TIP4 H2   HW0      0.679100        1.0080           
   12128 A    3032 TIP4 BD1  LP0     -1.358200        0.0000           
   12129 A    3033 TIP4 O1   OW0      0.000000       15.9990           
   12130 A    3033 TIP4 H1   HW0      0.679100        1.0080           
   12131 A    3033 TIP4 H2   HW0      0.679100        1.0080           
   12132 A    3033 TIP4 BD1  LP0     -1.358200        0.0000           
   12133 A    3034 TIP4 O1   OW0      0.000000       15.9990           
   12134 A    3034 TIP4 H1   HW0      0.679100        1.0080           
   12135 A    3034 TIP4 H2   HW0      0.679100        1.0080           
   12136 A    3034 TIP4 BD1  LP0     -1.358200        0.0000           
   12137 A    3035 TIP4 O1   OW0      0.000000       15.9990           
   12138 A    3035 TIP4 H1   HW0      0.679100        1.0080           
   12139 A    3035 TIP4 H2   HW0      0.679100        1.0080           
   12140 A    3035 TIP4 BD1  LP0     -1.358200        0.0000           
   12141 A    3036 TIP4 O1   OW0      0.000000       15.9990           
   12142 A    3036 TIP4 H1   HW0      0.679100        1.0080           
   12143 A    3036 TIP4 H2   HW0      0.679100        1.0080           
   12144 A    3036 TIP4 BD1  LP0     -1.358200        0.0000           
   12145 A    3037 TIP4 O1   OW0      0.000000       15.9990           
   12146 A    3037 TIP4 H1   HW0      0.679100        1.0080           
   12147 A    3037 TIP4 H2   HW0      0.679100        1.0080           
   12148 A    3037 TIP4 BD1  LP0     -1.358200        0.0000           
   12149 A    3038 TIP4 O1   OW0      0.000000       15.9990           
   12150 A    3038 TIP4 H1   HW0      0.679100        1.0080           
   12151 A    3038 TIP4 H2   HW0      0.679100        1.0080           
   12152 A    3038 TIP4 BD1  LP0     -1.358200        0.0000           
   12153 A    3039 TIP4 O1   OW0      0.000000       15.9990           
   12154 A    3039 TIP4 H1   HW0      0.679100        1.0080           
   12155 A    3039 TIP4 H2   HW0      0.679100        1.0080           
   12156 A    3039 TIP4 BD1  LP0     -1.358200        0.0000           
   12157 A    3040 TIP4 O1   OW0      0.000000       15.9990           
   12158 A    3040 TIP4 H1   HW0      0.679100        1.0080           
   12159 A    3040 TIP4 H2   HW0      0.679100        1.0080           
   12160 A    3040 TIP4 BD1  LP0     -1.358200        0.0000           
   12161 A    3041 TIP4 O1   OW0      0.000000       15.9990           
   12162 A    3041 TIP4 H1   HW0      0.679100        1.0080           
   12163 A    3041 TIP4 H2   HW0      0.679100        1.0080           
   12164 A    3041 TIP4 BD1  LP0     -1.358200        0.0000           
   12165 A    3042 TIP4 O1   OW0      0.000000       15.9990           
   12166 A    3042 TIP4 H1   HW0      0.679100        1.0080           
   12167 A    3042 TIP4 H2   HW0      0.679100        1.0080           
   12168 A    3042 TIP4 BD1  LP0     -1.358200        0.0000           
   12169 A    3043 TIP4 O1   OW0      0.000000       15.9990           
   12170 A    3043 TIP4 H1   HW0      0.679100        1.0080           
   12171 A    3043 TIP4 H2   HW0      0.679100        1.0080           
   12172 A    3043 TIP4 BD1  LP0     -1.358200        0.0000           
   12173 A    3044 TIP4 O1   OW0      0.000000       15.9990           
   12174 A    3044 TIP4 H1   HW0      0.679100        1.0080           
   12175 A    3044 TIP4 H2   HW0      0.679100        1.0080           
   12176 A    3044 TIP4 BD1  LP0     -1.358200        0.0000           
   12177 A    3045 TIP4 O1   OW0      0.000000       15.9990           
   12178 A    3045 TIP4 H1   HW0      0.679100        1.0080           
   12179 A    3045 TIP4 H2   HW0      0.679100        1.0080           
   12180 A    3045 TIP4 BD1  LP0     -1.358200        0.0000           
   12181 A    3046 TIP4 O1   OW0      0.000000       15.9990           
   12182 A    3046 TIP4 H1   HW0      0.679100        1.0080           
   12183 A    3046 TIP4 H2   HW0      0.679100        1.0080           
   12184 A    3046 TIP4 BD1  LP0     -1.358200        0.0000           
   12185 A    3047 TIP4 O1   OW0      0.000000       15.9990           
   12186 A    3047 TIP4 H1   HW0      0.679100        1.0080           
   12187 A    3047 TIP4 H2   HW0      0.679100        1.0080           
   12188 A    3047 TIP4 BD1  LP0     -1.358200        0.0000           
   12189 A    3048 TIP4 O1   OW0      0.000000       15.9990           
   12190 A    3048 TIP4 H1   HW0      0.679100        1.0080           
   12191 A    3048 TIP4 H2   HW0      0.679100        1.0080           
   12192 A    3048 TIP4 BD1  LP0     -1.358200        0.0000           
   12193 A    3049 TIP4 O1   OW0      0.000000       15.9990           
   12194 A    3049 TIP4 H1   HW0      0.679100        1.0080           
   12195 A    3049 TIP4 H2   HW0      0.679100        1.0080           
   12196 A    3049 TIP4 BD1  LP0     -1.358200        0.0000           
   12197 A    3050 TIP4 O1   OW0      0.000000       15.9990           
   12198 A    3050 TIP4 H1   HW0      0.679100        1.0080           
   12199 A    3050 TIP4 H2   HW0      0.679100        1.0080           
   12200 A    3050 TIP4 BD1  LP0     -1.358200        0.0000           
   12201 A    3051 TIP4 O1   OW0      0.000000       15.9990           
   12202 A    3051 TIP4 H1   HW0      0.679100        1.0080           
   12203 A    3051 TIP4 H2   HW0      0.679100        1.0080           
   12204 A    3051 TIP4 BD1  LP0     -1.358200        0.0000           
   12205 A    3052 TIP4 O1   OW0      0.000000       15.9990           
   12206 A    3052 TIP4 H1   HW0      0.679100        1.0080           
   12207 A    3052 TIP4 H2   HW0      0.679100        1.0080           
   12208 A    3052 TIP4 BD1  LP0     -1.358200        0.0000           
   12209 A    3053 TIP4 O1   OW0      0.000000       15.9990           
   12210 A    3053 TIP4 H1   HW0      0.679100        1.0080           
   12211 A    3053 TIP4 H2   HW0      0.679100        1.0080           
   12212 A    3053 TIP4 BD1  LP0     -1.358200        0.0000           
   12213 A    3054 TIP4 O1   OW0      0.000000       15.9990           
   12214 A    3054 TIP4 H1   HW0      0.679100        1.0080           
   12215 A    3054 TIP4 H2   HW0      0.679100        1.0080           
   12216 A    3054 TIP4 BD1  LP0     -1.358200        0.0000           
   12217 A    3055 TIP4 O1   OW0      0.000000       15.9990           
   12218 A    3055 TIP4 H1   HW0      0.679100        1.0080           
   12219 A    3055 TIP4 H2   HW0      0.679100        1.0080           
   12220 A    3055 TIP4 BD1  LP0     -1.358200        0.0000           
   12221 A    3056 TIP4 O1   OW0      0.000000       15.9990           
   12222 A    3056 TIP4 H1   HW0      0.679100        1.0080           
   12223 A    3056 TIP4 H2   HW0      0.679100        1.0080           
   12224 A    3056 TIP4 BD1  LP0     -1.358200        0.0000           
   12225 A    3057 TIP4 O1   OW0      0.000000       15.9990           
   12226 A    3057 TIP4 H1   HW0      0.679100        1.0080           
   12227 A    3057 TIP4 H2   HW0      0.679100        1.0080           
   12228 A    3057 TIP4 BD1  LP0     -1.358200        0.0000           
   12229 A    3058 TIP4 O1   OW0      0.000000       15.9990           
   12230 A    3058 TIP4 H1   HW0      0.679100        1.0080           
   12231 A    3058 TIP4 H2   HW0      0.679100        1.0080           
   12232 A    3058 TIP4 BD1  LP0     -1.358200        0.0000           
   12233 A    3059 TIP4 O1   OW0      0.000000       15.9990           
   12234 A    3059 TIP4 H1   HW0      0.679100        1.0080           
   12235 A    3059 TIP4 H2   HW0      0.679100        1.0080           
   12236 A    3059 TIP4 BD1  LP0     -1.358200        0.0000           
   12237 A    3060 TIP4 O1   OW0      0.000000       15.9990           
   12238 A    3060 TIP4 H1   HW0      0.679100        1.0080           
   12239 A    3060 TIP4 H2   HW0      0.679100        1.0080           
   12240 A    3060 TIP4 BD1  LP0     -1.358200        0.0000           
   12241 A    3061 TIP4 O1   OW0      0.000000       15.9990           
   12242 A    3061 TIP4 H1   HW0      0.679100        1.0080           
   12243 A    3061 TIP4 H2   HW0      0.679100        1.0080           
   12244 A    3061 TIP4 BD1  LP0     -1.358200        0.0000           
   12245 A    3062 TIP4 O1   OW0      0.000000       15.9990           
   12246 A    3062 TIP4 H1   HW0      0.679100        1.0080           
   12247 A    3062 TIP4 H2   HW0      0.679100        1.0080           
   12248 A    3062 TIP4 BD1  LP0     -1.358200        0.0000           
   12249 A    3063 TIP4 O1   OW0      0.000000       15.9990           
   12250 A    3063 TIP4 H1   HW0      0.679100        1.0080           
   12251 A    3063 TIP4 H2   HW0      0.679100        1.0080           
   12252 A    3063 TIP4 BD1  LP0     -1.358200        0.0000           
   12253 A    3064 TIP4 O1   OW0      0.000000       15.9990           
   12254 A    3064 TIP4 H1   HW0      0.679100        1.0080           
   12255 A    3064 TIP4 H2   HW0      0.679100        1.0080           
   12256 A    3064 TIP4 BD1  LP0     -1.358200        0.0000           
   12257 A    3065 TIP4 O1   OW0      0.000000       15.9990           
   12258 A    3065 TIP4 H1   HW0      0.679100        1.0080           
   12259 A    3065 TIP4 H2   HW0      0.679100        1.0080           
   12260 A    3065 TIP4 BD1  LP0     -1.358200        0.0000           
   12261 A    3066 TIP4 O1   OW0      0.000000       15.9990           
   12262 A    3066 TIP4 H1   HW0      0.679100        1.0080           
   12263 A    3066 TIP4 H2   HW0      0.679100        1.0080           
   12264 A    3066 TIP4 BD1  LP0     -1.358200        0.0000           
   12265 A    3067 TIP4 O1   OW0      0.000000       15.9990           
   12266 A    3067 TIP4 H1   HW0      0.679100        1.0080           
   12267 A    3067 TIP4 H2   HW0      0.679100        1.0080           
   12268 A    3067 TIP4 BD1  LP0     -1.358200        0.0000           
   12269 A    3068 TIP4 O1   OW0      0.000000       15.9990           
   12270 A    3068 TIP4 H1   HW0      0.679100        1.0080           
   12271 A    3068 TIP4 H2   HW0      0.679100        1.0080           
   12272 A    3068 TIP4 BD1  LP0     -1.358200        0.0000           
   12273 A    3069 TIP4 O1   OW0      0.000000       15.9990           
   12274 A    3069 TIP4 H1   HW0      0.679100        1.0080           
   12275 A    3069 TIP4 H2   HW0      0.679100        1.0080           
   12276 A    3069 TIP4 BD1  LP0     -1.358200        0.0000           
   12277 A    3070 TIP4 O1   OW0      0.000000       15.9990           
   12278 A    3070 TIP4 H1   HW0      0.679100        1.0080           
   12279 A    3070 TIP4 H2   HW0      0.679100        1.0080           
   12280 A    3070 TIP4 BD1  LP0     -1.358200        0.0000           
   12281 A    3071 TIP4 O1   OW0      0.000000       15.9990           
   12282 A    3071 TIP4 H1   HW0      0.679100        1.0080           
   12283 A    3071 TIP4 H2   HW0      0.679100        1.0080           
   12284 A    3071 TIP4 BD1  LP0     -1.358200        0.0000           
   12285 A    3072 TIP4 O1   OW0      0.000000       15.9990           
   12286 A    3072 TIP4 H1   HW0      0.679100        1.0080           
   12287 A    3072 TIP4 H2   HW0      0.679100        1.0080           
   12288 A    3072 TIP4 BD1  LP0     -1.358200        0.0000           
   12289 A    3073 TIP4 O1   OW0      0.000000       15.9990           
   12290 A    3073 TIP4 H1   HW0      0.679100        1.0080           
   12291 A    3073 TIP4 H2   HW0      0.679100        1.0080           
   12292 A    3073 TIP4 BD1  LP0     -1.358200        0.0000           
   12293 A    3074 TIP4 O1   OW0      0.000000       15.9990           
   12294 A    3074 TIP4 H1   HW0      0.679100        1.0080           
   12295 A    3074 TIP4 H2   HW0      0.679100        1.0080           
   12296 A    3074 TIP4 BD1  LP0     -1.358200        0.0000           
   12297 A    3075 TIP4 O1   OW0      0.000000       15.9990           
   12298 A    3075 TIP4 H1   HW0      0.679100        1.0080           
   12299 A    3075 TIP4 H2   HW0      0.679100        1.0080           
   12300 A    3075 TIP4 BD1  LP0     -1.358200        0.0000           
   12301 A    3076 TIP4 O1   OW0      0.000000       15.9990           
   12302 A    3076 TIP4 H1   HW0      0.679100        1.0080           
   12303 A    3076 TIP4 H2   HW0      0.679100        1.0080           
   12304 A    3076 TIP4 BD1  LP0     -1.358200        0.0000           
   12305 A    3077 TIP4 O1   OW0      0.000000       15.9990           
   12306 A    3077 TIP4 H1   HW0      0.679100        1.0080           
   12307 A    3077 TIP4 H2   HW0      0.679100        1.0080           
   12308 A    3077 TIP4 BD1  LP0     -1.358200        0.0000           
   12309 A    3078 TIP4 O1   OW0      0.000000       15.9990           
   12310 A    3078 TIP4 H1   HW0      0.679100        1.0080           
   12311 A    3078 TIP4 H2   HW0      0.679100        1.0080           
   12312 A    3078 TIP4 BD1  LP0     -1.358200        0.0000           
   12313 A    3079 TIP4 O1   OW0      0.000000       15.9990           
   12314 A    3079 TIP4 H1   HW0      0.679100        1.0080           
   12315 A    3079 TIP4 H2   HW0      0.679100        1.0080           
   12316 A    3079 TIP4 BD1  LP0     -1.358200        0.0000           
   12317 A    3080 TIP4 O1   OW0      0.000000       15.9990           
   12318 A    3080 TIP4 H1   HW0      0.679100        1.0080           
   12319 A    3080 TIP4 H2   HW0      0.679100        1.0080           
   12320 A    3080 TIP4 BD1  LP0     -1.358200        0.0000           
   12321 A    3081 TIP4 O1   OW0      0.000000       15.9990           
   12322 A    3081 TIP4 H1   HW0      0.679100        1.0080           
   12323 A    3081 TIP4 H2   HW0      0.679100        1.0080           
   12324 A    3081 TIP4 BD1  LP0     -1.358200        0.0000           
   12325 A    3082 TIP4 O1   OW0      0.000000       15.9990           
   12326 A    3082 TIP4 H1   HW0      0.679100        1.0080           
   12327 A    3082 TIP4 H2   HW0      0.679100        1.0080           
   12328 A    3082 TIP4 BD1  LP0     -1.358200        0.0000           
   12329 A    3083 TIP4 O1   OW0      0.000000       15.9990           
   12330 A    3083 TIP4 H1   HW0      0.679100        1.0080           
   12331 A    3083 TIP4 H2   HW0      0.679100        1.0080           
   12332 A    3083 TIP4 BD1  LP0     -1.358200        0.0000           
   12333 A    3084 TIP4 O1   OW0      0.000000       15.9990           
   12334 A    3084 TIP4 H1   HW0      0.679100        1.0080           
   12335 A    3084 TIP4 H2   HW0      0.679100        1.0080           
   12336 A    3084 TIP4 BD1  LP0     -1.358200        0.0000           
   12337 A    3085 TIP4 O1   OW0      0.000000       15.9990           
   12338 A    3085 TIP4 H1   HW0      0.679100        1.0080           
   12339 A    3085 TIP4 H2   HW0      0.679100        1.0080           
   12340 A    3085 TIP4 BD1  LP0     -1.358200        0.0000           
   12341 A    3086 TIP4 O1   OW0      0.000000       15.9990           
   12342 A    3086 TIP4 H1   HW0      0.679100        1.0080           
   12343 A    3086 TIP4 H2   HW0      0.679100        1.0080           
   12344 A    3086 TIP4 BD1  LP0     -1.358200        0.0000           
   12345 A    3087 TIP4 O1   OW0      0.000000       15.9990           
   12346 A    3087 TIP4 H1   HW0      0.679100        1.0080           
   12347 A    3087 TIP4 H2   HW0      0.679100        1.0080           
   12348 A    3087 TIP4 BD1  LP0     -1.358200        0.0000           
   12349 A    3088 TIP4 O1   OW0      0.000000       15.9990           
   12350 A    3088 TIP4 H1   HW0      0.679100        1.0080           
   12351 A    3088 TIP4 H2   HW0      0.679100        1.0080           
   12352 A    3088 TIP4 BD1  LP0     -1.358200        0.0000           
   12353 A    3089 TIP4 O1   OW0      0.000000       15.9990           
   12354 A    3089 TIP4 H1   HW0      0.679100        1.0080           
   12355 A    3089 TIP4 H2   HW0      0.679100        1.0080           
   12356 A    3089 TIP4 BD1  LP0     -1.358200        0.0000           
   12357 A    3090 TIP4 O1   OW0      0.000000       15.9990           
   12358 A    3090 TIP4 H1   HW0      0.679100        1.0080           
   12359 A    3090 TIP4 H2   HW0      0.679100        1.0080           
   12360 A    3090 TIP4 BD1  LP0     -1.358200        0.0000           
   12361 A    3091 TIP4 O1   OW0      0.000000       15.9990           
   12362 A    3091 TIP4 H1   HW0      0.679100        1.0080           
   12363 A    3091 TIP4 H2   HW0      0.679100        1.0080           
   12364 A    3091 TIP4 BD1  LP0     -1.358200        0.0000           
   12365 A    3092 TIP4 O1   OW0      0.000000       15.9990           
   12366 A    3092 TIP4 H1   HW0      0.679100        1.0080           
   12367 A    3092 TIP4 H2   HW0      0.679100        1.0080           
   12368 A    3092 TIP4 BD1  LP0     -1.358200        0.0000           
   12369 A    3093 TIP4 O1   OW0      0.000000       15.9990           
   12370 A    3093 TIP4 H1   HW0      0.679100        1.0080           
   12371 A    3093 TIP4 H2   HW0      0.679100        1.0080           
   12372 A    3093 TIP4 BD1  LP0     -1.358200        0.0000           
   12373 A    3094 TIP4 O1   OW0      0.000000       15.9990           
   12374 A    3094 TIP4 H1   HW0      0.679100        1.0080           
   12375 A    3094 TIP4 H2   HW0      0.679100        1.0080           
   12376 A    3094 TIP4 BD1  LP0     -1.358200        0.0000           
   12377 A    3095 TIP4 O1   OW0      0.000000       15.9990           
   12378 A    3095 TIP4 H1   HW0      0.679100        1.0080           
   12379 A    3095 TIP4 H2   HW0      0.679100        1.0080           
   12380 A    3095 TIP4 BD1  LP0     -1.358200        0.0000           
   12381 A    3096 TIP4 O1   OW0      0.000000       15.9990           
   12382 A    3096 TIP4 H1   HW0      0.679100        1.0080           
   12383 A    3096 TIP4 H2   HW0      0.679100        1.0080           
   12384 A    3096 TIP4 BD1  LP0     -1.358200        0.0000           
   12385 A    3097 TIP4 O1   OW0      0.000000       15.9990           
   12386 A    3097 TIP4 H1   HW0      0.679100        1.0080           
   12387 A    3097 TIP4 H2   HW0      0.679100        1.0080           
   12388 A    3097 TIP4 BD1  LP0     -1.358200        0.0000           
   12389 A    3098 TIP4 O1   OW0      0.000000       15.9990           
   12390 A    3098 TIP4 H1   HW0      0.679100        1.0080           
   12391 A    3098 TIP4 H2   HW0      0.679100        1.0080           
   12392 A    3098 TIP4 BD1  LP0     -1.358200        0.0000           
   12393 A    3099 TIP4 O1   OW0      0.000000       15.9990           
   12394 A    3099 TIP4 H1   HW0      0.679100        1.0080           
   12395 A    3099 TIP4 H2   HW0      0.679100        1.0080           
   12396 A    3099 TIP4 BD1  LP0     -1.358200        0.0000           
   12397 A    3100 TIP4 O1   OW0      0.000000       15.9990           
   12398 A    3100 TIP4 H1   HW0      0.679100        1.0080           
   12399 A    3100 TIP4 H2   HW0      0.679100        1.0080           
   12400 A    3100 TIP4 BD1  LP0     -1.358200        0.0000           
   12401 A    3101 TIP4 O1   OW0      0.000000       15.9990           
   12402 A    3101 TIP4 H1   HW0      0.679100        1.0080           
   12403 A    3101 TIP4 H2   HW0      0.679100        1.0080           
   12404 A    3101 TIP4 BD1  LP0     -1.358200        0.0000           
   12405 A    3102 TIP4 O1   OW0      0.000000       15.9990           
   12406 A    3102 TIP4 H1   HW0      0.679100        1.0080           
   12407 A    3102 TIP4 H2   HW0      0.679100        1.0080           
   12408 A    3102 TIP4 BD1  LP0     -1.358200        0.0000           
   12409 A    3103 TIP4 O1   OW0      0.000000       15.9990           
   12410 A    3103 TIP4 H1   HW0      0.679100        1.0080           
   12411 A    3103 TIP4 H2   HW0      0.679100        1.0080           
   12412 A    3103 TIP4 BD1  LP0     -1.358200        0.0000           
   12413 A    3104 TIP4 O1   OW0      0.000000       15.9990           
   12414 A    3104 TIP4 H1   HW0      0.679100        1.0080           
   12415 A    3104 TIP4 H2   HW0      0.679100        1.0080           
   12416 A    3104 TIP4 BD1  LP0     -1.358200        0.0000           
   12417 A    3105 TIP4 O1   OW0      0.000000       15.9990           
   12418 A    3105 TIP4 H1   HW0      0.679100        1.0080           
   12419 A    3105 TIP4 H2   HW0      0.679100        1.0080           
   12420 A    3105 TIP4 BD1  LP0     -1.358200        0.0000           
   12421 A    3106 TIP4 O1   OW0      0.000000       15.9990           
   12422 A    3106 TIP4 H1   HW0      0.679100        1.0080           
   12423 A    3106 TIP4 H2   HW0      0.679100        1.0080           
   12424 A    3106 TIP4 BD1  LP0     -1.358200        0.0000           
   12425 A    3107 TIP4 O1   OW0      0.000000       15.9990           
   12426 A    3107 TIP4 H1   HW0      0.679100        1.0080           
   12427 A    3107 TIP4 H2   HW0      0.679100        1.0080           
   12428 A    3107 TIP4 BD1  LP0     -1.358200        0.0000           
   12429 A    3108 TIP4 O1   OW0      0.000000       15.9990           
   12430 A    3108 TIP4 H1   HW0      0.679100        1.0080           
   12431 A    3108 TIP4 H2   HW0      0.679100        1.0080           
   12432 A    3108 TIP4 BD1  LP0     -1.358200        0.0000           
   12433 A    3109 TIP4 O1   OW0      0.000000       15.9990           
   12434 A    3109 TIP4 H1   HW0      0.679100        1.0080           
   12435 A    3109 TIP4 H2   HW0      0.679100        1.0080           
   12436 A    3109 TIP4 BD1  LP0     -1.358200        0.0000           
   12437 A    3110 TIP4 O1   OW0      0.000000       15.9990           
   12438 A    3110 TIP4 H1   HW0      0.679100        1.0080           
   12439 A    3110 TIP4 H2   HW0      0.679100        1.0080           
   12440 A    3110 TIP4 BD1  LP0     -1.358200        0.0000           
   12441 A    3111 TIP4 O1   OW0      0.000000       15.9990           
   12442 A    3111 TIP4 H1   HW0      0.679100        1.0080           
   12443 A    3111 TIP4 H2   HW0      0.679100        1.0080           
   12444 A    3111 TIP4 BD1  LP0     -1.358200        0.0000           
   12445 A    3112 TIP4 O1   OW0      0.000000       15.9990           
   12446 A    3112 TIP4 H1   HW0      0.679100        1.0080           
   12447 A    3112 TIP4 H2   HW0      0.679100        1.0080           
   12448 A    3112 TIP4 BD1  LP0     -1.358200        0.0000           
   12449 A    3113 TIP4 O1   OW0      0.000000       15.9990           
   12450 A    3113 TIP4 H1   HW0      0.679100        1.0080           
   12451 A    3113 TIP4 H2   HW0      0.679100        1.0080           
   12452 A    3113 TIP4 BD1  LP0     -1.358200        0.0000           
   12453 A    3114 TIP4 O1   OW0      0.000000       15.9990           
   12454 A    3114 TIP4 H1   HW0      0.679100        1.0080           
   12455 A    3114 TIP4 H2   HW0      0.679100        1.0080           
   12456 A    3114 TIP4 BD1  LP0     -1.358200        0.0000           
   12457 A    3115 TIP4 O1   OW0      0.000000       15.9990           
   12458 A    3115 TIP4 H1   HW0      0.679100        1.0080           
   12459 A    3115 TIP4 H2   HW0      0.679100        1.0080           
   12460 A    3115 TIP4 BD1  LP0     -1.358200        0.0000           
   12461 A    3116 TIP4 O1   OW0      0.000000       15.9990           
   12462 A    3116 TIP4 H1   HW0      0.679100        1.0080           
   12463 A    3116 TIP4 H2   HW0      0.679100        1.0080           
   12464 A    3116 TIP4 BD1  LP0     -1.358200        0.0000           
   12465 A    3117 TIP4 O1   OW0      0.000000       15.9990           
   12466 A    3117 TIP4 H1   HW0      0.679100        1.0080           
   12467 A    3117 TIP4 H2   HW0      0.679100        1.0080           
   12468 A    3117 TIP4 BD1  LP0     -1.358200        0.0000           
   12469 A    3118 TIP4 O1   OW0      0.000000       15.9990           
   12470 A    3118 TIP4 H1   HW0      0.679100        1.0080           
   12471 A    3118 TIP4 H2   HW0      0.679100        1.0080           
   12472 A    3118 TIP4 BD1  LP0     -1.358200        0.0000           
   12473 A    3119 TIP4 O1   OW0      0.000000       15.9990           
   12474 A    3119 TIP4 H1   HW0      0.679100        1.0080           
   12475 A    3119 TIP4 H2   HW0      0.679100        1.0080           
   12476 A    3119 TIP4 BD1  LP0     -1.358200        0.0000           
   12477 A    3120 TIP4 O1   OW0      0.000000       15.9990           
   12478 A    3120 TIP4 H1   HW0      0.679100        1.0080           
   12479 A    3120 TIP4 H2   HW0      0.679100        1.0080           
   12480 A    3120 TIP4 BD1  LP0     -1.358200        0.0000           
   12481 A    3121 TIP4 O1   OW0      0.000000       15.9990           
   12482 A    3121 TIP4 H1   HW0      0.679100        1.0080           
   12483 A    3121 TIP4 H2   HW0      0.679100        1.0080           
   12484 A    3121 TIP4 BD1  LP0     -1.358200        0.0000           
   12485 A    3122 TIP4 O1   OW0      0.000000       15.9990           
   12486 A    3122 TIP4 H1   HW0      0.679100        1.0080           
   12487 A    3122 TIP4 H2   HW0      0.679100        1.0080           
   12488 A    3122 TIP4 BD1  LP0     -1.358200        0.0000           
   12489 A    3123 TIP4 O1   OW0      0.000000       15.9990           
   12490 A    3123 TIP4 H1   HW0      0.679100        1.0080           
   12491 A    3123 TIP4 H2   HW0      0.679100        1.0080           
   12492 A    3123 TIP4 BD1  LP0     -1.358200        0.0000           
   12493 A    3124 TIP4 O1   OW0      0.000000       15.9990           
   12494 A    3124 TIP4 H1   HW0      0.679100        1.0080           
   12495 A    3124 TIP4 H2   HW0      0.679100        1.0080           
   12496 A    3124 TIP4 BD1  LP0     -1.358200        0.0000           
   12497 A    3125 TIP4 O1   OW0      0.000000       15.9990           
   12498 A    3125 TIP4 H1   HW0      0.679100        1.0080           
   12499 A    3125 TIP4 H2   HW0      0.679100        1.0080           
   12500 A    3125 TIP4 BD1  LP0     -1.358200        0.0000           
   12501 A    3126 TIP4 O1   OW0      0.000000       15.9990           
   12502 A    3126 TIP4 H1   HW0      0.679100        1.0080           
   12503 A    3126 TIP4 H2   HW0      0.679100        1.0080           
   12504 A    3126 TIP4 BD1  LP0     -1.358200        0.0000           
   12505 A    3127 TIP4 O1   OW0      0.000000       15.9990           
   12506 A    3127 TIP4 H1   HW0      0.679100        1.0080           
   12507 A    3127 TIP4 H2   HW0      0.679100        1.0080           
   12508 A    3127 TIP4 BD1  LP0     -1.358200        0.0000           
   12509 A    3128 TIP4 O1   OW0      0.000000       15.9990           
   12510 A    3128 TIP4 H1   HW0      0.679100        1.0080           
   12511 A    3128 TIP4 H2   HW0      0.679100        1.0080           
   12512 A    3128 TIP4 BD1  LP0     -1.358200        0.0000           
   12513 A    3129 TIP4 O1   OW0      0.000000       15.9990           
   12514 A    3129 TIP4 H1   HW0      0.679100        1.0080           
   12515 A    3129 TIP4 H2   HW0      0.679100        1.0080           
   12516 A    3129 TIP4 BD1  LP0     -1.358200        0.0000           
   12517 A    3130 TIP4 O1   OW0      0.000000       15.9990           
   12518 A    3130 TIP4 H1   HW0      0.679100        1.0080           
   12519 A    3130 TIP4 H2   HW0      0.679100        1.0080           
   12520 A    3130 TIP4 BD1  LP0     -1.358200        0.0000           
   12521 A    3131 TIP4 O1   OW0      0.000000       15.9990           
   12522 A    3131 TIP4 H1   HW0      0.679100        1.0080           
   12523 A    3131 TIP4 H2   HW0      0.679100        1.0080           
   12524 A    3131 TIP4 BD1  LP0     -1.358200        0.0000           
   12525 A    3132 TIP4 O1   OW0      0.000000       15.9990           
   12526 A    3132 TIP4 H1   HW0      0.679100        1.0080           
   12527 A    3132 TIP4 H2   HW0      0.679100        1.0080           
   12528 A    3132 TIP4 BD1  LP0     -1.358200        0.0000           
   12529 A    3133 TIP4 O1   OW0      0.000000       15.9990           
   12530 A    3133 TIP4 H1   HW0      0.679100        1.0080           
   12531 A    3133 TIP4 H2   HW0      0.679100        1.0080           
   12532 A    3133 TIP4 BD1  LP0     -1.358200        0.0000           
   12533 A    3134 TIP4 O1   OW0      0.000000       15.9990           
   12534 A    3134 TIP4 H1   HW0      0.679100        1.0080           
   12535 A    3134 TIP4 H2   HW0      0.679100        1.0080           
   12536 A    3134 TIP4 BD1  LP0     -1.358200        0.0000           
   12537 A    3135 TIP4 O1   OW0      0.000000       15.9990           
   12538 A    3135 TIP4 H1   HW0      0.679100        1.0080           
   12539 A    3135 TIP4 H2   HW0      0.679100        1.0080           
   12540 A    3135 TIP4 BD1  LP0     -1.358200        0.0000           
   12541 A    3136 TIP4 O1   OW0      0.000000       15.9990           
   12542 A    3136 TIP4 H1   HW0      0.679100        1.0080           
   12543 A    3136 TIP4 H2   HW0      0.679100        1.0080           
   12544 A    3136 TIP4 BD1  LP0     -1.358200        0.0000           
   12545 A    3137 TIP4 O1   OW0      0.000000       15.9990           
   12546 A    3137 TIP4 H1   HW0      0.679100        1.0080           
   12547 A    3137 TIP4 H2   HW0      0.679100        1.0080           
   12548 A    3137 TIP4 BD1  LP0     -1.358200        0.0000           
   12549 A    3138 TIP4 O1   OW0      0.000000       15.9990           
   12550 A    3138 TIP4 H1   HW0      0.679100        1.0080           
   12551 A    3138 TIP4 H2   HW0      0.679100        1.0080           
   12552 A    3138 TIP4 BD1  LP0     -1.358200        0.0000           
   12553 A    3139 TIP4 O1   OW0      0.000000       15.9990           
   12554 A    3139 TIP4 H1   HW0      0.679100        1.0080           
   12555 A    3139 TIP4 H2   HW0      0.679100        1.0080           
   12556 A    3139 TIP4 BD1  LP0     -1.358200        0.0000           
   12557 A    3140 TIP4 O1   OW0      0.000000       15.9990           
   12558 A    3140 TIP4 H1   HW0      0.679100        1.0080           
   12559 A    3140 TIP4 H2   HW0      0.679100        1.0080           
   12560 A    3140 TIP4 BD1  LP0     -1.358200        0.0000           
   12561 A    3141 TIP4 O1   OW0      0.000000       15.9990           
   12562 A    3141 TIP4 H1   HW0      0.679100        1.0080           
   12563 A    3141 TIP4 H2   HW0      0.679100        1.0080           
   12564 A    3141 TIP4 BD1  LP0     -1.358200        0.0000           
   12565 A    3142 TIP4 O1   OW0      0.000000       15.9990           
   12566 A    3142 TIP4 H1   HW0      0.679100        1.0080           
   12567 A    3142 TIP4 H2   HW0      0.679100        1.0080           
   12568 A    3142 TIP4 BD1  LP0     -1.358200        0.0000           
   12569 A    3143 TIP4 O1   OW0      0.000000       15.9990           
   12570 A    3143 TIP4 H1   HW0      0.679100        1.0080           
   12571 A    3143 TIP4 H2   HW0      0.679100        1.0080           
   12572 A    3143 TIP4 BD1  LP0     -1.358200        0.0000           
   12573 A    3144 TIP4 O1   OW0      0.000000       15.9990           
   12574 A    3144 TIP4 H1   HW0      0.679100        1.0080           
   12575 A    3144 TIP4 H2   HW0      0.679100        1.0080           
   12576 A    3144 TIP4 BD1  LP0     -1.358200        0.0000           
   12577 A    3145 TIP4 O1   OW0      0.000000       15.9990           
   12578 A    3145 TIP4 H1   HW0      0.679100        1.0080           
   12579 A    3145 TIP4 H2   HW0      0.679100        1.0080           
   12580 A    3145 TIP4 BD1  LP0     -1.358200        0.0000           
   12581 A    3146 TIP4 O1   OW0      0.000000       15.9990           
   12582 A    3146 TIP4 H1   HW0      0.679100        1.0080           
   12583 A    3146 TIP4 H2   HW0      0.679100        1.0080           
   12584 A    3146 TIP4 BD1  LP0     -1.358200        0.0000           
   12585 A    3147 TIP4 O1   OW0      0.000000       15.9990           
   12586 A    3147 TIP4 H1   HW0      0.679100        1.0080           
   12587 A    3147 TIP4 H2   HW0      0.679100        1.0080           
   12588 A    3147 TIP4 BD1  LP0     -1.358200        0.0000           
   12589 A    3148 TIP4 O1   OW0      0.000000       15.9990           
   12590 A    3148 TIP4 H1   HW0      0.679100        1.0080           
   12591 A    3148 TIP4 H2   HW0      0.679100        1.0080           
   12592 A    3148 TIP4 BD1  LP0     -1.358200        0.0000           
   12593 A    3149 TIP4 O1   OW0      0.000000       15.9990           
   12594 A    3149 TIP4 H1   HW0      0.679100        1.0080           
   12595 A    3149 TIP4 H2   HW0      0.679100        1.0080           
   12596 A    3149 TIP4 BD1  LP0     -1.358200        0.0000           
   12597 A    3150 TIP4 O1   OW0      0.000000       15.9990           
   12598 A    3150 TIP4 H1   HW0      0.679100        1.0080           
   12599 A    3150 TIP4 H2   HW0      0.679100        1.0080           
   12600 A    3150 TIP4 BD1  LP0     -1.358200        0.0000           
   12601 A    3151 TIP4 O1   OW0      0.000000       15.9990           
   12602 A    3151 TIP4 H1   HW0      0.679100        1.0080           
   12603 A    3151 TIP4 H2   HW0      0.679100        1.0080           
   12604 A    3151 TIP4 BD1  LP0     -1.358200        0.0000           
   12605 A    3152 TIP4 O1   OW0      0.000000       15.9990           
   12606 A    3152 TIP4 H1   HW0      0.679100        1.0080           
   12607 A    3152 TIP4 H2   HW0      0.679100        1.0080           
   12608 A    3152 TIP4 BD1  LP0     -1.358200        0.0000           
   12609 A    3153 TIP4 O1   OW0      0.000000       15.9990           
   12610 A    3153 TIP4 H1   HW0      0.679100        1.0080           
   12611 A    3153 TIP4 H2   HW0      0.679100        1.0080           
   12612 A    3153 TIP4 BD1  LP0     -1.358200        0.0000           
   12613 A    3154 TIP4 O1   OW0      0.000000       15.9990           
   12614 A    3154 TIP4 H1   HW0      0.679100        1.0080           
   12615 A    3154 TIP4 H2   HW0      0.679100        1.0080           
   12616 A    3154 TIP4 BD1  LP0     -1.358200        0.0000           
   12617 A    3155 TIP4 O1   OW0      0.000000       15.9990           
   12618 A    3155 TIP4 H1   HW0      0.679100        1.0080           
   12619 A    3155 TIP4 H2   HW0      0.679100        1.0080           
   12620 A    3155 TIP4 BD1  LP0     -1.358200        0.0000           
   12621 A    3156 TIP4 O1   OW0      0.000000       15.9990           
   12622 A    3156 TIP4 H1   HW0      0.679100        1.0080           
   12623 A    3156 TIP4 H2   HW0      0.679100        1.0080           
   12624 A    3156 TIP4 BD1  LP0     -1.358200        0.0000           
   12625 A    3157 TIP4 O1   OW0      0.000000       15.9990           
   12626 A    3157 TIP4 H1   HW0      0.679100        1.0080           
   12627 A    3157 TIP4 H2   HW0      0.679100        1.0080           
   12628 A    3157 TIP4 BD1  LP0     -1.358200        0.0000           
   12629 A    3158 TIP4 O1   OW0      0.000000       15.9990           
   12630 A    3158 TIP4 H1   HW0      0.679100        1.0080           
   12631 A    3158 TIP4 H2   HW0      0.679100        1.0080           
   12632 A    3158 TIP4 BD1  LP0     -1.358200        0.0000           
   12633 A    3159 TIP4 O1   OW0      0.000000       15.9990           
   12634 A    3159 TIP4 H1   HW0      0.679100        1.0080           
   12635 A    3159 TIP4 H2   HW0      0.679100        1.0080           
   12636 A    3159 TIP4 BD1  LP0     -1.358200        0.0000           
   12637 A    3160 TIP4 O1   OW0      0.000000       15.9990           
   12638 A    3160 TIP4 H1   HW0      0.679100        1.0080           
   12639 A    3160 TIP4 H2   HW0      0.679100        1.0080           
   12640 A    3160 TIP4 BD1  LP0     -1.358200        0.0000           
   12641 A    3161 TIP4 O1   OW0      0.000000       15.9990           
   12642 A    3161 TIP4 H1   HW0      0.679100        1.0080           
   12643 A    3161 TIP4 H2   HW0      0.679100        1.0080           
   12644 A    3161 TIP4 BD1  LP0     -1.358200        0.0000           
   12645 A    3162 TIP4 O1   OW0      0.000000       15.9990           
   12646 A    3162 TIP4 H1   HW0      0.679100        1.0080           
   12647 A    3162 TIP4 H2   HW0      0.679100        1.0080           
   12648 A    3162 TIP4 BD1  LP0     -1.358200        0.0000           
   12649 A    3163 TIP4 O1   OW0      0.000000       15.9990           
   12650 A    3163 TIP4 H1   HW0      0.679100        1.0080           
   12651 A    3163 TIP4 H2   HW0      0.679100        1.0080           
   12652 A    3163 TIP4 BD1  LP0     -1.358200        0.0000           
   12653 A    3164 TIP4 O1   OW0      0.000000       15.9990           
   12654 A    3164 TIP4 H1   HW0      0.679100        1.0080           
   12655 A    3164 TIP4 H2   HW0      0.679100        1.0080           
   12656 A    3164 TIP4 BD1  LP0     -1.358200        0.0000           
   12657 A    3165 TIP4 O1   OW0      0.000000       15.9990           
   12658 A    3165 TIP4 H1   HW0      0.679100        1.0080           
   12659 A    3165 TIP4 H2   HW0      0.679100        1.0080           
   12660 A    3165 TIP4 BD1  LP0     -1.358200        0.0000           
   12661 A    3166 TIP4 O1   OW0      0.000000       15.9990           
   12662 A    3166 TIP4 H1   HW0      0.679100        1.0080           
   12663 A    3166 TIP4 H2   HW0      0.679100        1.0080           
   12664 A    3166 TIP4 BD1  LP0     -1.358200        0.0000           
   12665 A    3167 TIP4 O1   OW0      0.000000       15.9990           
   12666 A    3167 TIP4 H1   HW0      0.679100        1.0080           
   12667 A    3167 TIP4 H2   HW0      0.679100        1.0080           
   12668 A    3167 TIP4 BD1  LP0     -1.358200        0.0000           
   12669 A    3168 TIP4 O1   OW0      0.000000       15.9990           
   12670 A    3168 TIP4 H1   HW0      0.679100        1.0080           
   12671 A    3168 TIP4 H2   HW0      0.679100        1.0080           
   12672 A    3168 TIP4 BD1  LP0     -1.358200        0.0000           
   12673 A    3169 TIP4 O1   OW0      0.000000       15.9990           
   12674 A    3169 TIP4 H1   HW0      0.679100        1.0080           
   12675 A    3169 TIP4 H2   HW0      0.679100        1.0080           
   12676 A    3169 TIP4 BD1  LP0     -1.358200        0.0000           
   12677 A    3170 TIP4 O1   OW0      0.000000       15.9990           
   12678 A    3170 TIP4 H1   HW0      0.679100        1.0080           
   12679 A    3170 TIP4 H2   HW0      0.679100        1.0080           
   12680 A    3170 TIP4 BD1  LP0     -1.358200        0.0000           
   12681 A    3171 TIP4 O1   OW0      0.000000       15.9990           
   12682 A    3171 TIP4 H1   HW0      0.679100        1.0080           
   12683 A    3171 TIP4 H2   HW0      0.679100        1.0080           
   12684 A    3171 TIP4 BD1  LP0     -1.358200        0.0000           
   12685 A    3172 TIP4 O1   OW0      0.000000       15.9990           
   12686 A    3172 TIP4 H1   HW0      0.679100        1.0080           
   12687 A    3172 TIP4 H2   HW0      0.679100        1.0080           
   12688 A    3172 TIP4 BD1  LP0     -1.358200        0.0000           
   12689 A    3173 TIP4 O1   OW0      0.000000       15.9990           
   12690 A    3173 TIP4 H1   HW0      0.679100        1.0080           
   12691 A    3173 TIP4 H2   HW0      0.679100        1.0080           
   12692 A    3173 TIP4 BD1  LP0     -1.358200        0.0000           
   12693 A    3174 TIP4 O1   OW0      0.000000       15.9990           
   12694 A    3174 TIP4 H1   HW0      0.679100        1.0080           
   12695 A    3174 TIP4 H2   HW0      0.679100        1.0080           
   12696 A    3174 TIP4 BD1  LP0     -1.358200        0.0000           
   12697 A    3175 TIP4 O1   OW0      0.000000       15.9990           
   12698 A    3175 TIP4 H1   HW0      0.679100        1.0080           
   12699 A    3175 TIP4 H2   HW0      0.679100        1.0080           
   12700 A    3175 TIP4 BD1  LP0     -1.358200        0.0000           
   12701 A    3176 TIP4 O1   OW0      0.000000       15.9990           
   12702 A    3176 TIP4 H1   HW0      0.679100        1.0080           
   12703 A    3176 TIP4 H2   HW0      0.679100        1.0080           
   12704 A    3176 TIP4 BD1  LP0     -1.358200        0.0000           
   12705 A    3177 TIP4 O1   OW0      0.000000       15.9990           
   12706 A    3177 TIP4 H1   HW0      0.679100        1.0080           
   12707 A    3177 TIP4 H2   HW0      0.679100        1.0080           
   12708 A    3177 TIP4 BD1  LP0     -1.358200        0.0000           
   12709 A    3178 TIP4 O1   OW0      0.000000       15.9990           
   12710 A    3178 TIP4 H1   HW0      0.679100        1.0080           
   12711 A    3178 TIP4 H2   HW0      0.679100        1.0080           
   12712 A    3178 TIP4 BD1  LP0     -1.358200        0.0000           
   12713 A    3179 TIP4 O1   OW0      0.000000       15.9990           
   12714 A    3179 TIP4 H1   HW0      0.679100        1.0080           
   12715 A    3179 TIP4 H2   HW0      0.679100        1.0080           
   12716 A    3179 TIP4 BD1  LP0     -1.358200        0.0000           
   12717 A    3180 TIP4 O1   OW0      0.000000       15.9990           
   12718 A    3180 TIP4 H1   HW0      0.679100        1.0080           
   12719 A    3180 TIP4 H2   HW0      0.679100        1.0080           
   12720 A    3180 TIP4 BD1  LP0     -1.358200        0.0000           
   12721 A    3181 TIP4 O1   OW0      0.000000       15.9990           
   12722 A    3181 TIP4 H1   HW0      0.679100        1.0080           
   12723 A    3181 TIP4 H2   HW0      0.679100        1.0080           
   12724 A    3181 TIP4 BD1  LP0     -1.358200        0.0000           
   12725 A    3182 TIP4 O1   OW0      0.000000       15.9990           
   12726 A    3182 TIP4 H1   HW0      0.679100        1.0080           
   12727 A    3182 TIP4 H2   HW0      0.679100        1.0080           
   12728 A    3182 TIP4 BD1  LP0     -1.358200        0.0000           
   12729 A    3183 TIP4 O1   OW0      0.000000       15.9990           
   12730 A    3183 TIP4 H1   HW0      0.679100        1.0080           
   12731 A    3183 TIP4 H2   HW0      0.679100        1.0080           
   12732 A    3183 TIP4 BD1  LP0     -1.358200        0.0000           
   12733 A    3184 TIP4 O1   OW0      0.000000       15.9990           
   12734 A    3184 TIP4 H1   HW0      0.679100        1.0080           
   12735 A    3184 TIP4 H2   HW0      0.679100        1.0080           
   12736 A    3184 TIP4 BD1  LP0     -1.358200        0.0000           
   12737 A    3185 TIP4 O1   OW0      0.000000       15.9990           
   12738 A    3185 TIP4 H1   HW0      0.679100        1.0080           
   12739 A    3185 TIP4 H2   HW0      0.679100        1.0080           
   12740 A    3185 TIP4 BD1  LP0     -1.358200        0.0000           
   12741 A    3186 TIP4 O1   OW0      0.000000       15.9990           
   12742 A    3186 TIP4 H1   HW0      0.679100        1.0080           
   12743 A    3186 TIP4 H2   HW0      0.679100        1.0080           
   12744 A    3186 TIP4 BD1  LP0     -1.358200        0.0000           
   12745 A    3187 TIP4 O1   OW0      0.000000       15.9990           
   12746 A    3187 TIP4 H1   HW0      0.679100        1.0080           
   12747 A    3187 TIP4 H2   HW0      0.679100        1.0080           
   12748 A    3187 TIP4 BD1  LP0     -1.358200        0.0000           
   12749 A    3188 TIP4 O1   OW0      0.000000       15.9990           
   12750 A    3188 TIP4 H1   HW0      0.679100        1.0080           
   12751 A    3188 TIP4 H2   HW0      0.679100        1.0080           
   12752 A    3188 TIP4 BD1  LP0     -1.358200        0.0000           
   12753 A    3189 TIP4 O1   OW0      0.000000       15.9990           
   12754 A    3189 TIP4 H1   HW0      0.679100        1.0080           
   12755 A    3189 TIP4 H2   HW0      0.679100        1.0080           
   12756 A    3189 TIP4 BD1  LP0     -1.358200        0.0000           
   12757 A    3190 TIP4 O1   OW0      0.000000       15.9990           
   12758 A    3190 TIP4 H1   HW0      0.679100        1.0080           
   12759 A    3190 TIP4 H2   HW0      0.679100        1.0080           
   12760 A    3190 TIP4 BD1  LP0     -1.358200        0.0000           
   12761 A    3191 TIP4 O1   OW0      0.000000       15.9990           
   12762 A    3191 TIP4 H1   HW0      0.679100        1.0080           
   12763 A    3191 TIP4 H2   HW0      0.679100        1.0080           
   12764 A    3191 TIP4 BD1  LP0     -1.358200        0.0000           
   12765 A    3192 TIP4 O1   OW0      0.000000       15.9990           
   12766 A    3192 TIP4 H1   HW0      0.679100        1.0080           
   12767 A    3192 TIP4 H2   HW0      0.679100        1.0080           
   12768 A    3192 TIP4 BD1  LP0     -1.358200        0.0000           
   12769 A    3193 TIP4 O1   OW0      0.000000       15.9990           
   12770 A    3193 TIP4 H1   HW0      0.679100        1.0080           
   12771 A    3193 TIP4 H2   HW0      0.679100        1.0080           
   12772 A    3193 TIP4 BD1  LP0     -1.358200        0.0000           
   12773 A    3194 TIP4 O1   OW0      0.000000       15.9990           
   12774 A    3194 TIP4 H1   HW0      0.679100        1.0080           
   12775 A    3194 TIP4 H2   HW0      0.679100        1.0080           
   12776 A    3194 TIP4 BD1  LP0     -1.358200        0.0000           
   12777 A    3195 TIP4 O1   OW0      0.000000       15.9990           
   12778 A    3195 TIP4 H1   HW0      0.679100        1.0080           
   12779 A    3195 TIP4 H2   HW0      0.679100        1.0080           
   12780 A    3195 TIP4 BD1  LP0     -1.358200        0.0000           
   12781 A    3196 TIP4 O1   OW0      0.000000       15.9990           
   12782 A    3196 TIP4 H1   HW0      0.679100        1.0080           
   12783 A    3196 TIP4 H2   HW0      0.679100        1.0080           
   12784 A    3196 TIP4 BD1  LP0     -1.358200        0.0000           
   12785 A    3197 TIP4 O1   OW0      0.000000       15.9990           
   12786 A    3197 TIP4 H1   HW0      0.679100        1.0080           
   12787 A    3197 TIP4 H2   HW0      0.679100        1.0080           
   12788 A    3197 TIP4 BD1  LP0     -1.358200        0.0000           
   12789 A    3198 TIP4 O1   OW0      0.000000       15.9990           
   12790 A    3198 TIP4 H1   HW0      0.679100        1.0080           
   12791 A    3198 TIP4 H2   HW0      0.679100        1.0080           
   12792 A    3198 TIP4 BD1  LP0     -1.358200        0.0000           
   12793 A    3199 TIP4 O1   OW0      0.000000       15.9990           
   12794 A    3199 TIP4 H1   HW0      0.679100        1.0080           
   12795 A    3199 TIP4 H2   HW0      0.679100        1.0080           
   12796 A    3199 TIP4 BD1  LP0     -1.358200        0.0000           
   12797 A    3200 TIP4 O1   OW0      0.000000       15.9990           
   12798 A    3200 TIP4 H1   HW0      0.679100        1.0080           
   12799 A    3200 TIP4 H2   HW0      0.679100        1.0080           
   12800 A    3200 TIP4 BD1  LP0     -1.358200        0.0000           
   12801 A    3201 TIP4 O1   OW0      0.000000       15.9990           
   12802 A    3201 TIP4 H1   HW0      0.679100        1.0080           
   12803 A    3201 TIP4 H2   HW0      0.679100        1.0080           
   12804 A    3201 TIP4 BD1  LP0     -1.358200        0.0000           
   12805 A    3202 TIP4 O1   OW0      0.000000       15.9990           
   12806 A    3202 TIP4 H1   HW0      0.679100        1.0080           
   12807 A    3202 TIP4 H2   HW0      0.679100        1.0080           
   12808 A    3202 TIP4 BD1  LP0     -1.358200        0.0000           
   12809 A    3203 TIP4 O1   OW0      0.000000       15.9990           
   12810 A    3203 TIP4 H1   HW0      0.679100        1.0080           
   12811 A    3203 TIP4 H2   HW0      0.679100        1.0080           
   12812 A    3203 TIP4 BD1  LP0     -1.358200        0.0000           
   12813 A    3204 TIP4 O1   OW0      0.000000       15.9990           
   12814 A    3204 TIP4 H1   HW0      0.679100        1.0080           
   12815 A    3204 TIP4 H2   HW0      0.679100        1.0080           
   12816 A    3204 TIP4 BD1  LP0     -1.358200        0.0000           
   12817 A    3205 TIP4 O1   OW0      0.000000       15.9990           
   12818 A    3205 TIP4 H1   HW0      0.679100        1.0080           
   12819 A    3205 TIP4 H2   HW0      0.679100        1.0080           
   12820 A    3205 TIP4 BD1  LP0     -1.358200        0.0000           
   12821 A    3206 TIP4 O1   OW0      0.000000       15.9990           
   12822 A    3206 TIP4 H1   HW0      0.679100        1.0080           
   12823 A    3206 TIP4 H2   HW0      0.679100        1.0080           
   12824 A    3206 TIP4 BD1  LP0     -1.358200        0.0000           
   12825 A    3207 TIP4 O1   OW0      0.000000       15.9990           
   12826 A    3207 TIP4 H1   HW0      0.679100        1.0080           
   12827 A    3207 TIP4 H2   HW0      0.679100        1.0080           
   12828 A    3207 TIP4 BD1  LP0     -1.358200        0.0000           
   12829 A    3208 TIP4 O1   OW0      0.000000       15.9990           
   12830 A    3208 TIP4 H1   HW0      0.679100        1.0080           
   12831 A    3208 TIP4 H2   HW0      0.679100        1.0080           
   12832 A    3208 TIP4 BD1  LP0     -1.358200        0.0000           
   12833 A    3209 TIP4 O1   OW0      0.000000       15.9990           
   12834 A    3209 TIP4 H1   HW0      0.679100        1.0080           
   12835 A    3209 TIP4 H2   HW0      0.679100        1.0080           
   12836 A    3209 TIP4 BD1  LP0     -1.358200        0.0000           
   12837 A    3210 TIP4 O1   OW0      0.000000       15.9990           
   12838 A    3210 TIP4 H1   HW0      0.679100        1.0080           
   12839 A    3210 TIP4 H2   HW0      0.679100        1.0080           
   12840 A    3210 TIP4 BD1  LP0     -1.358200        0.0000           
   12841 A    3211 TIP4 O1   OW0      0.000000       15.9990           
   12842 A    3211 TIP4 H1   HW0      0.679100        1.0080           
   12843 A    3211 TIP4 H2   HW0      0.679100        1.0080           
   12844 A    3211 TIP4 BD1  LP0     -1.358200        0.0000           
   12845 A    3212 TIP4 O1   OW0      0.000000       15.9990           
   12846 A    3212 TIP4 H1   HW0      0.679100        1.0080           
   12847 A    3212 TIP4 H2   HW0      0.679100        1.0080           
   12848 A    3212 TIP4 BD1  LP0     -1.358200        0.0000           
   12849 A    3213 TIP4 O1   OW0      0.000000       15.9990           
   12850 A    3213 TIP4 H1   HW0      0.679100        1.0080           
   12851 A    3213 TIP4 H2   HW0      0.679100        1.0080           
   12852 A    3213 TIP4 BD1  LP0     -1.358200        0.0000           
   12853 A    3214 TIP4 O1   OW0      0.000000       15.9990           
   12854 A    3214 TIP4 H1   HW0      0.679100        1.0080           
   12855 A    3214 TIP4 H2   HW0      0.679100        1.0080           
   12856 A    3214 TIP4 BD1  LP0     -1.358200        0.0000           
   12857 A    3215 TIP4 O1   OW0      0.000000       15.9990           
   12858 A    3215 TIP4 H1   HW0      0.679100        1.0080           
   12859 A    3215 TIP4 H2   HW0      0.679100        1.0080           
   12860 A    3215 TIP4 BD1  LP0     -1.358200        0.0000           
   12861 A    3216 TIP4 O1   OW0      0.000000       15.9990           
   12862 A    3216 TIP4 H1   HW0      0.679100        1.0080           
   12863 A    3216 TIP4 H2   HW0      0.679100        1.0080           
   12864 A    3216 TIP4 BD1  LP0     -1.358200        0.0000           
   12865 A    3217 TIP4 O1   OW0      0.000000       15.9990           
   12866 A    3217 TIP4 H1   HW0      0.679100        1.0080           
   12867 A    3217 TIP4 H2   HW0      0.679100        1.0080           
   12868 A    3217 TIP4 BD1  LP0     -1.358200        0.0000           
   12869 A    3218 TIP4 O1   OW0      0.000000       15.9990           
   12870 A    3218 TIP4 H1   HW0      0.679100        1.0080           
   12871 A    3218 TIP4 H2   HW0      0.679100        1.0080           
   12872 A    3218 TIP4 BD1  LP0     -1.358200        0.0000           
   12873 A    3219 TIP4 O1   OW0      0.000000       15.9990           
   12874 A    3219 TIP4 H1   HW0      0.679100        1.0080           
   12875 A    3219 TIP4 H2   HW0      0.679100        1.0080           
   12876 A    3219 TIP4 BD1  LP0     -1.358200        0.0000           
   12877 A    3220 TIP4 O1   OW0      0.000000       15.9990           
   12878 A    3220 TIP4 H1   HW0      0.679100        1.0080           
   12879 A    3220 TIP4 H2   HW0      0.679100        1.0080           
   12880 A    3220 TIP4 BD1  LP0     -1.358200        0.0000           
   12881 A    3221 TIP4 O1   OW0      0.000000       15.9990           
   12882 A    3221 TIP4 H1   HW0      0.679100        1.0080           
   12883 A    3221 TIP4 H2   HW0      0.679100        1.0080           
   12884 A    3221 TIP4 BD1  LP0     -1.358200        0.0000           
   12885 A    3222 TIP4 O1   OW0      0.000000       15.9990           
   12886 A    3222 TIP4 H1   HW0      0.679100        1.0080           
   12887 A    3222 TIP4 H2   HW0      0.679100        1.0080           
   12888 A    3222 TIP4 BD1  LP0     -1.358200        0.0000           
   12889 A    3223 TIP4 O1   OW0      0.000000       15.9990           
   12890 A    3223 TIP4 H1   HW0      0.679100        1.0080           
   12891 A    3223 TIP4 H2   HW0      0.679100        1.0080           
   12892 A    3223 TIP4 BD1  LP0     -1.358200        0.0000           
   12893 A    3224 TIP4 O1   OW0      0.000000       15.9990           
   12894 A    3224 TIP4 H1   HW0      0.679100        1.0080           
   12895 A    3224 TIP4 H2   HW0      0.679100        1.0080           
   12896 A    3224 TIP4 BD1  LP0     -1.358200        0.0000           
   12897 A    3225 TIP4 O1   OW0      0.000000       15.9990           
   12898 A    3225 TIP4 H1   HW0      0.679100        1.0080           
   12899 A    3225 TIP4 H2   HW0      0.679100        1.0080           
   12900 A    3225 TIP4 BD1  LP0     -1.358200        0.0000           
   12901 A    3226 TIP4 O1   OW0      0.000000       15.9990           
   12902 A    3226 TIP4 H1   HW0      0.679100        1.0080           
   12903 A    3226 TIP4 H2   HW0      0.679100        1.0080           
   12904 A    3226 TIP4 BD1  LP0     -1.358200        0.0000           
   12905 A    3227 TIP4 O1   OW0      0.000000       15.9990           
   12906 A    3227 TIP4 H1   HW0      0.679100        1.0080           
   12907 A    3227 TIP4 H2   HW0      0.679100        1.0080           
   12908 A    3227 TIP4 BD1  LP0     -1.358200        0.0000           
   12909 A    3228 TIP4 O1   OW0      0.000000       15.9990           
   12910 A    3228 TIP4 H1   HW0      0.679100        1.0080           
   12911 A    3228 TIP4 H2   HW0      0.679100        1.0080           
   12912 A    3228 TIP4 BD1  LP0     -1.358200        0.0000           
   12913 A    3229 TIP4 O1   OW0      0.000000       15.9990           
   12914 A    3229 TIP4 H1   HW0      0.679100        1.0080           
   12915 A    3229 TIP4 H2   HW0      0.679100        1.0080           
   12916 A    3229 TIP4 BD1  LP0     -1.358200        0.0000           
   12917 A    3230 TIP4 O1   OW0      0.000000       15.9990           
   12918 A    3230 TIP4 H1   HW0      0.679100        1.0080           
   12919 A    3230 TIP4 H2   HW0      0.679100        1.0080           
   12920 A    3230 TIP4 BD1  LP0     -1.358200        0.0000           
   12921 A    3231 TIP4 O1   OW0      0.000000       15.9990           
   12922 A    3231 TIP4 H1   HW0      0.679100        1.0080           
   12923 A    3231 TIP4 H2   HW0      0.679100        1.0080           
   12924 A    3231 TIP4 BD1  LP0     -1.358200        0.0000           
   12925 A    3232 TIP4 O1   OW0      0.000000       15.9990           
   12926 A    3232 TIP4 H1   HW0      0.679100        1.0080           
   12927 A    3232 TIP4 H2   HW0      0.679100        1.0080           
   12928 A    3232 TIP4 BD1  LP0     -1.358200        0.0000           
   12929 A    3233 TIP4 O1   OW0      0.000000       15.9990           
   12930 A    3233 TIP4 H1   HW0      0.679100        1.0080           
   12931 A    3233 TIP4 H2   HW0      0.679100        1.0080           
   12932 A    3233 TIP4 BD1  LP0     -1.358200        0.0000           
   12933 A    3234 TIP4 O1   OW0      0.000000       15.9990           
   12934 A    3234 TIP4 H1   HW0      0.679100        1.0080           
   12935 A    3234 TIP4 H2   HW0      0.679100        1.0080           
   12936 A    3234 TIP4 BD1  LP0     -1.358200        0.0000           
   12937 A    3235 TIP4 O1   OW0      0.000000       15.9990           
   12938 A    3235 TIP4 H1   HW0      0.679100        1.0080           
   12939 A    3235 TIP4 H2   HW0      0.679100        1.0080           
   12940 A    3235 TIP4 BD1  LP0     -1.358200        0.0000           
   12941 A    3236 TIP4 O1   OW0      0.000000       15.9990           
   12942 A    3236 TIP4 H1   HW0      0.679100        1.0080           
   12943 A    3236 TIP4 H2   HW0      0.679100        1.0080           
   12944 A    3236 TIP4 BD1  LP0     -1.358200        0.0000           
   12945 A    3237 TIP4 O1   OW0      0.000000       15.9990           
   12946 A    3237 TIP4 H1   HW0      0.679100        1.0080           
   12947 A    3237 TIP4 H2   HW0      0.679100        1.0080           
   12948 A    3237 TIP4 BD1  LP0     -1.358200        0.0000           
   12949 A    3238 TIP4 O1   OW0      0.000000       15.9990           
   12950 A    3238 TIP4 H1   HW0      0.679100        1.0080           
   12951 A    3238 TIP4 H2   HW0      0.679100        1.0080           
   12952 A    3238 TIP4 BD1  LP0     -1.358200        0.0000           
   12953 A    3239 TIP4 O1   OW0      0.000000       15.9990           
   12954 A    3239 TIP4 H1   HW0      0.679100        1.0080           
   12955 A    3239 TIP4 H2   HW0      0.679100        1.0080           
   12956 A    3239 TIP4 BD1  LP0     -1.358200        0.0000           
   12957 A    3240 TIP4 O1   OW0      0.000000       15.9990           
   12958 A    3240 TIP4 H1   HW0      0.679100        1.0080           
   12959 A    3240 TIP4 H2   HW0      0.679100        1.0080           
   12960 A    3240 TIP4 BD1  LP0     -1.358200        0.0000           
   12961 A    3241 TIP4 O1   OW0      0.000000       15.9990           
   12962 A    3241 TIP4 H1   HW0      0.679100        1.0080           
   12963 A    3241 TIP4 H2   HW0      0.679100        1.0080           
   12964 A    3241 TIP4 BD1  LP0     -1.358200        0.0000           
   12965 A    3242 TIP4 O1   OW0      0.000000       15.9990           
   12966 A    3242 TIP4 H1   HW0      0.679100        1.0080           
   12967 A    3242 TIP4 H2   HW0      0.679100        1.0080           
   12968 A    3242 TIP4 BD1  LP0     -1.358200        0.0000           
   12969 A    3243 TIP4 O1   OW0      0.000000       15.9990           
   12970 A    3243 TIP4 H1   HW0      0.679100        1.0080           
   12971 A    3243 TIP4 H2   HW0      0.679100        1.0080           
   12972 A    3243 TIP4 BD1  LP0     -1.358200        0.0000           
   12973 A    3244 TIP4 O1   OW0      0.000000       15.9990           
   12974 A    3244 TIP4 H1   HW0      0.679100        1.0080           
   12975 A    3244 TIP4 H2   HW0      0.679100        1.0080           
   12976 A    3244 TIP4 BD1  LP0     -1.358200        0.0000           
   12977 A    3245 TIP4 O1   OW0      0.000000       15.9990           
   12978 A    3245 TIP4 H1   HW0      0.679100        1.0080           
   12979 A    3245 TIP4 H2   HW0      0.679100        1.0080           
   12980 A    3245 TIP4 BD1  LP0     -1.358200        0.0000           
   12981 A    3246 TIP4 O1   OW0      0.000000       15.9990           
   12982 A    3246 TIP4 H1   HW0      0.679100        1.0080           
   12983 A    3246 TIP4 H2   HW0      0.679100        1.0080           
   12984 A    3246 TIP4 BD1  LP0     -1.358200        0.0000           
   12985 A    3247 TIP4 O1   OW0      0.000000       15.9990           
   12986 A    3247 TIP4 H1   HW0      0.679100        1.0080           
   12987 A    3247 TIP4 H2   HW0      0.679100        1.0080           
   12988 A    3247 TIP4 BD1  LP0     -1.358200        0.0000           
   12989 A    3248 TIP4 O1   OW0      0.000000       15.9990           
   12990 A    3248 TIP4 H1   HW0      0.679100        1.0080           
   12991 A    3248 TIP4 H2   HW0      0.679100        1.0080           
   12992 A    3248 TIP4 BD1  LP0     -1.358200        0.0000           
   12993 A    3249 TIP4 O1   OW0      0.000000       15.9990           
   12994 A    3249 TIP4 H1   HW0      0.679100        1.0080           
   12995 A    3249 TIP4 H2   HW0      0.679100        1.0080           
   12996 A    3249 TIP4 BD1  LP0     -1.358200        0.0000           
   12997 A    3250 TIP4 O1   OW0      0.000000       15.9990           
   12998 A    3250 TIP4 H1   HW0      0.679100        1.0080           
   12999 A    3250 TIP4 H2   HW0      0.679100        1.0080           
   13000 A    3250 TIP4 BD1  LP0     -1.358200        0.0000           
   13001 A    3251 TIP4 O1   OW0      0.000000       15.9990           
   13002 A    3251 TIP4 H1   HW0      0.679100        1.0080           
   13003 A    3251 TIP4 H2   HW0      0.679100        1.0080           
   13004 A    3251 TIP4 BD1  LP0     -1.358200        0.0000           
   13005 A    3252 TIP4 O1   OW0      0.000000       15.9990           
   13006 A    3252 TIP4 H1   HW0      0.679100        1.0080           
   13007 A    3252 TIP4 H2   HW0      0.679100        1.0080           
   13008 A    3252 TIP4 BD1  LP0     -1.358200        0.0000           
   13009 A    3253 TIP4 O1   OW0      0.000000       15.9990           
   13010 A    3253 TIP4 H1   HW0      0.679100        1.0080           
   13011 A    3253 TIP4 H2   HW0      0.679100        1.0080           
   13012 A    3253 TIP4 BD1  LP0     -1.358200        0.0000           
   13013 A    3254 TIP4 O1   OW0      0.000000       15.9990           
   13014 A    3254 TIP4 H1   HW0      0.679100        1.0080           
   13015 A    3254 TIP4 H2   HW0      0.679100        1.0080           
   13016 A    3254 TIP4 BD1  LP0     -1.358200        0.0000           
   13017 A    3255 TIP4 O1   OW0      0.000000       15.9990           
   13018 A    3255 TIP4 H1   HW0      0.679100        1.0080           
   13019 A    3255 TIP4 H2   HW0      0.679100        1.0080           
   13020 A    3255 TIP4 BD1  LP0     -1.358200        0.0000           
   13021 A    3256 TIP4 O1   OW0      0.000000       15.9990           
   13022 A    3256 TIP4 H1   HW0      0.679100        1.0080           
   13023 A    3256 TIP4 H2   HW0      0.679100        1.0080           
   13024 A    3256 TIP4 BD1  LP0     -1.358200        0.0000           
   13025 A    3257 TIP4 O1   OW0      0.000000       15.9990           
   13026 A    3257 TIP4 H1   HW0      0.679100        1.0080           
   13027 A    3257 TIP4 H2   HW0      0.679100        1.0080           
   13028 A    3257 TIP4 BD1  LP0     -1.358200        0.0000           
   13029 A    3258 TIP4 O1   OW0      0.000000       15.9990           
   13030 A    3258 TIP4 H1   HW0      0.679100        1.0080           
   13031 A    3258 TIP4 H2   HW0      0.679100        1.0080           
   13032 A    3258 TIP4 BD1  LP0     -1.358200        0.0000           
   13033 A    3259 TIP4 O1   OW0      0.000000       15.9990           
   13034 A    3259 TIP4 H1   HW0      0.679100        1.0080           
   13035 A    3259 TIP4 H2   HW0      0.679100        1.0080           
   13036 A    3259 TIP4 BD1  LP0     -1.358200        0.0000           
   13037 A    3260 TIP4 O1   OW0      0.000000       15.9990           
   13038 A    3260 TIP4 H1   HW0      0.679100        1.0080           
   13039 A    3260 TIP4 H2   HW0      0.679100        1.0080           
   13040 A    3260 TIP4 BD1  LP0     -1.358200        0.0000           
   13041 A    3261 TIP4 O1   OW0      0.000000       15.9990           
   13042 A    3261 TIP4 H1   HW0      0.679100        1.0080           
   13043 A    3261 TIP4 H2   HW0      0.679100        1.0080           
   13044 A    3261 TIP4 BD1  LP0     -1.358200        0.0000           
   13045 A    3262 TIP4 O1   OW0      0.000000       15.9990           
   13046 A    3262 TIP4 H1   HW0      0.679100        1.0080           
   13047 A    3262 TIP4 H2   HW0      0.679100        1.0080           
   13048 A    3262 TIP4 BD1  LP0     -1.358200        0.0000           
   13049 A    3263 TIP4 O1   OW0      0.000000       15.9990           
   13050 A    3263 TIP4 H1   HW0      0.679100        1.0080           
   13051 A    3263 TIP4 H2   HW0      0.679100        1.0080           
   13052 A    3263 TIP4 BD1  LP0     -1.358200        0.0000           
   13053 A    3264 TIP4 O1   OW0      0.000000       15.9990           
   13054 A    3264 TIP4 H1   HW0      0.679100        1.0080           
   13055 A    3264 TIP4 H2   HW0      0.679100        1.0080           
   13056 A    3264 TIP4 BD1  LP0     -1.358200        0.0000           
   13057 A    3265 TIP4 O1   OW0      0.000000       15.9990           
   13058 A    3265 TIP4 H1   HW0      0.679100        1.0080           
   13059 A    3265 TIP4 H2   HW0      0.679100        1.0080           
   13060 A    3265 TIP4 BD1  LP0     -1.358200        0.0000           
   13061 A    3266 TIP4 O1   OW0      0.000000       15.9990           
   13062 A    3266 TIP4 H1   HW0      0.679100        1.0080           
   13063 A    3266 TIP4 H2   HW0      0.679100        1.0080           
   13064 A    3266 TIP4 BD1  LP0     -1.358200        0.0000           
   13065 A    3267 TIP4 O1   OW0      0.000000       15.9990           
   13066 A    3267 TIP4 H1   HW0      0.679100        1.0080           
   13067 A    3267 TIP4 H2   HW0      0.679100        1.0080           
   13068 A    3267 TIP4 BD1  LP0     -1.358200        0.0000           
   13069 A    3268 TIP4 O1   OW0      0.000000       15.9990           
   13070 A    3268 TIP4 H1   HW0      0.679100        1.0080           
   13071 A    3268 TIP4 H2   HW0      0.679100        1.0080           
   13072 A    3268 TIP4 BD1  LP0     -1.358200        0.0000           
   13073 A    3269 TIP4 O1   OW0      0.000000       15.9990           
   13074 A    3269 TIP4 H1   HW0      0.679100        1.0080           
   13075 A    3269 TIP4 H2   HW0      0.679100        1.0080           
   13076 A    3269 TIP4 BD1  LP0     -1.358200        0.0000           
   13077 A    3270 TIP4 O1   OW0      0.000000       15.9990           
   13078 A    3270 TIP4 H1   HW0      0.679100        1.0080           
   13079 A    3270 TIP4 H2   HW0      0.679100        1.0080           
   13080 A    3270 TIP4 BD1  LP0     -1.358200        0.0000           
   13081 A    3271 TIP4 O1   OW0      0.000000       15.9990           
   13082 A    3271 TIP4 H1   HW0      0.679100        1.0080           
   13083 A    3271 TIP4 H2   HW0      0.679100        1.0080           
   13084 A    3271 TIP4 BD1  LP0     -1.358200        0.0000           
   13085 A    3272 TIP4 O1   OW0      0.000000       15.9990           
   13086 A    3272 TIP4 H1   HW0      0.679100        1.0080           
   13087 A    3272 TIP4 H2   HW0      0.679100        1.0080           
   13088 A    3272 TIP4 BD1  LP0     -1.358200        0.0000           
   13089 A    3273 TIP4 O1   OW0      0.000000       15.9990           
   13090 A    3273 TIP4 H1   HW0      0.679100        1.0080           
   13091 A    3273 TIP4 H2   HW0      0.679100        1.0080           
   13092 A    3273 TIP4 BD1  LP0     -1.358200        0.0000           
   13093 A    3274 TIP4 O1   OW0      0.000000       15.9990           
   13094 A    3274 TIP4 H1   HW0      0.679100        1.0080           
   13095 A    3274 TIP4 H2   HW0      0.679100        1.0080           
   13096 A    3274 TIP4 BD1  LP0     -1.358200        0.0000           
   13097 A    3275 TIP4 O1   OW0      0.000000       15.9990           
   13098 A    3275 TIP4 H1   HW0      0.679100        1.0080           
   13099 A    3275 TIP4 H2   HW0      0.679100        1.0080           
   13100 A    3275 TIP4 BD1  LP0     -1.358200        0.0000           
   13101 A    3276 TIP4 O1   OW0      0.000000       15.9990           
   13102 A    3276 TIP4 H1   HW0      0.679100        1.0080           
   13103 A    3276 TIP4 H2   HW0      0.679100        1.0080           
   13104 A    3276 TIP4 BD1  LP0     -1.358200        0.0000           
   13105 A    3277 TIP4 O1   OW0      0.000000       15.9990           
   13106 A    3277 TIP4 H1   HW0      0.679100        1.0080           
   13107 A    3277 TIP4 H2   HW0      0.679100        1.0080           
   13108 A    3277 TIP4 BD1  LP0     -1.358200        0.0000           
   13109 A    3278 TIP4 O1   OW0      0.000000       15.9990           
   13110 A    3278 TIP4 H1   HW0      0.679100        1.0080           
   13111 A    3278 TIP4 H2   HW0      0.679100        1.0080           
   13112 A    3278 TIP4 BD1  LP0     -1.358200        0.0000           
   13113 A    3279 TIP4 O1   OW0      0.000000       15.9990           
   13114 A    3279 TIP4 H1   HW0      0.679100        1.0080           
   13115 A    3279 TIP4 H2   HW0      0.679100        1.0080           
   13116 A    3279 TIP4 BD1  LP0     -1.358200        0.0000           
   13117 A    3280 TIP4 O1   OW0      0.000000       15.9990           
   13118 A    3280 TIP4 H1   HW0      0.679100        1.0080           
   13119 A    3280 TIP4 H2   HW0      0.679100        1.0080           
   13120 A    3280 TIP4 BD1  LP0     -1.358200        0.0000           
   13121 A    3281 TIP4 O1   OW0      0.000000       15.9990           
   13122 A    3281 TIP4 H1   HW0      0.679100        1.0080           
   13123 A    3281 TIP4 H2   HW0      0.679100        1.0080           
   13124 A    3281 TIP4 BD1  LP0     -1.358200        0.0000           
   13125 A    3282 TIP4 O1   OW0      0.000000       15.9990           
   13126 A    3282 TIP4 H1   HW0      0.679100        1.0080           
   13127 A    3282 TIP4 H2   HW0      0.679100        1.0080           
   13128 A    3282 TIP4 BD1  LP0     -1.358200        0.0000           
   13129 A    3283 TIP4 O1   OW0      0.000000       15.9990           
   13130 A    3283 TIP4 H1   HW0      0.679100        1.0080           
   13131 A    3283 TIP4 H2   HW0      0.679100        1.0080           
   13132 A    3283 TIP4 BD1  LP0     -1.358200        0.0000           
   13133 A    3284 TIP4 O1   OW0      0.000000       15.9990           
   13134 A    3284 TIP4 H1   HW0      0.679100        1.0080           
   13135 A    3284 TIP4 H2   HW0      0.679100        1.0080           
   13136 A    3284 TIP4 BD1  LP0     -1.358200        0.0000           
   13137 A    3285 TIP4 O1   OW0      0.000000       15.9990           
   13138 A    3285 TIP4 H1   HW0      0.679100        1.0080           
   13139 A    3285 TIP4 H2   HW0      0.679100        1.0080           
   13140 A    3285 TIP4 BD1  LP0     -1.358200        0.0000           
   13141 A    3286 TIP4 O1   OW0      0.000000       15.9990           
   13142 A    3286 TIP4 H1   HW0      0.679100        1.0080           
   13143 A    3286 TIP4 H2   HW0      0.679100        1.0080           
   13144 A    3286 TIP4 BD1  LP0     -1.358200        0.0000           
   13145 A    3287 TIP4 O1   OW0      0.000000       15.9990           
   13146 A    3287 TIP4 H1   HW0      0.679100        1.0080           
   13147 A    3287 TIP4 H2   HW0      0.679100        1.0080           
   13148 A    3287 TIP4 BD1  LP0     -1.358200        0.0000           
   13149 A    3288 TIP4 O1   OW0      0.000000       15.9990           
   13150 A    3288 TIP4 H1   HW0      0.679100        1.0080           
   13151 A    3288 TIP4 H2   HW0      0.679100        1.0080           
   13152 A    3288 TIP4 BD1  LP0     -1.358200        0.0000           
   13153 A    3289 TIP4 O1   OW0      0.000000       15.9990           
   13154 A    3289 TIP4 H1   HW0      0.679100        1.0080           
   13155 A    3289 TIP4 H2   HW0      0.679100        1.0080           
   13156 A    3289 TIP4 BD1  LP0     -1.358200        0.0000           
   13157 A    3290 TIP4 O1   OW0      0.000000       15.9990           
   13158 A    3290 TIP4 H1   HW0      0.679100        1.0080           
   13159 A    3290 TIP4 H2   HW0      0.679100        1.0080           
   13160 A    3290 TIP4 BD1  LP0     -1.358200        0.0000           
   13161 A    3291 TIP4 O1   OW0      0.000000       15.9990           
   13162 A    3291 TIP4 H1   HW0      0.679100        1.0080           
   13163 A    3291 TIP4 H2   HW0      0.679100        1.0080           
   13164 A    3291 TIP4 BD1  LP0     -1.358200        0.0000           
   13165 A    3292 TIP4 O1   OW0      0.000000       15.9990           
   13166 A    3292 TIP4 H1   HW0      0.679100        1.0080           
   13167 A    3292 TIP4 H2   HW0      0.679100        1.0080           
   13168 A    3292 TIP4 BD1  LP0     -1.358200        0.0000           
   13169 A    3293 TIP4 O1   OW0      0.000000       15.9990           
   13170 A    3293 TIP4 H1   HW0      0.679100        1.0080           
   13171 A    3293 TIP4 H2   HW0      0.679100        1.0080           
   13172 A    3293 TIP4 BD1  LP0     -1.358200        0.0000           
   13173 A    3294 TIP4 O1   OW0      0.000000       15.9990           
   13174 A    3294 TIP4 H1   HW0      0.679100        1.0080           
   13175 A    3294 TIP4 H2   HW0      0.679100        1.0080           
   13176 A    3294 TIP4 BD1  LP0     -1.358200        0.0000           
   13177 A    3295 TIP4 O1   OW0      0.000000       15.9990           
   13178 A    3295 TIP4 H1   HW0      0.679100        1.0080           
   13179 A    3295 TIP4 H2   HW0      0.679100        1.0080           
   13180 A    3295 TIP4 BD1  LP0     -1.358200        0.0000           
   13181 A    3296 TIP4 O1   OW0      0.000000       15.9990           
   13182 A    3296 TIP4 H1   HW0      0.679100        1.0080           
   13183 A    3296 TIP4 H2   HW0      0.679100        1.0080           
   13184 A    3296 TIP4 BD1  LP0     -1.358200        0.0000           
   13185 A    3297 TIP4 O1   OW0      0.000000       15.9990           
   13186 A    3297 TIP4 H1   HW0      0.679100        1.0080           
   13187 A    3297 TIP4 H2   HW0      0.679100        1.0080           
   13188 A    3297 TIP4 BD1  LP0     -1.358200        0.0000           
   13189 A    3298 TIP4 O1   OW0      0.000000       15.9990           
   13190 A    3298 TIP4 H1   HW0      0.679100        1.0080           
   13191 A    3298 TIP4 H2   HW0      0.679100        1.0080           
   13192 A    3298 TIP4 BD1  LP0     -1.358200        0.0000           
   13193 A    3299 TIP4 O1   OW0      0.000000       15.9990           
   13194 A    3299 TIP4 H1   HW0      0.679100        1.0080           
   13195 A    3299 TIP4 H2   HW0      0.679100        1.0080           
   13196 A    3299 TIP4 BD1  LP0     -1.358200        0.0000           
   13197 A    3300 TIP4 O1   OW0      0.000000       15.9990           
   13198 A    3300 TIP4 H1   HW0      0.679100        1.0080           
   13199 A    3300 TIP4 H2   HW0      0.679100        1.0080           
   13200 A    3300 TIP4 BD1  LP0     -1.358200        0.0000           
   13201 A    3301 TIP4 O1   OW0      0.000000       15.9990           
   13202 A    3301 TIP4 H1   HW0      0.679100        1.0080           
   13203 A    3301 TIP4 H2   HW0      0.679100        1.0080           
   13204 A    3301 TIP4 BD1  LP0     -1.358200        0.0000           
   13205 A    3302 TIP4 O1   OW0      0.000000       15.9990           
   13206 A    3302 TIP4 H1   HW0      0.679100        1.0080           
   13207 A    3302 TIP4 H2   HW0      0.679100        1.0080           
   13208 A    3302 TIP4 BD1  LP0     -1.358200        0.0000           
   13209 A    3303 TIP4 O1   OW0      0.000000       15.9990           
   13210 A    3303 TIP4 H1   HW0      0.679100        1.0080           
   13211 A    3303 TIP4 H2   HW0      0.679100        1.0080           
   13212 A    3303 TIP4 BD1  LP0     -1.358200        0.0000           
   13213 A    3304 TIP4 O1   OW0      0.000000       15.9990           
   13214 A    3304 TIP4 H1   HW0      0.679100        1.0080           
   13215 A    3304 TIP4 H2   HW0      0.679100        1.0080           
   13216 A    3304 TIP4 BD1  LP0     -1.358200        0.0000           
   13217 A    3305 TIP4 O1   OW0      0.000000       15.9990           
   13218 A    3305 TIP4 H1   HW0      0.679100        1.0080           
   13219 A    3305 TIP4 H2   HW0      0.679100        1.0080           
   13220 A    3305 TIP4 BD1  LP0     -1.358200        0.0000           
   13221 A    3306 TIP4 O1   OW0      0.000000       15.9990           
   13222 A    3306 TIP4 H1   HW0      0.679100        1.0080           
   13223 A    3306 TIP4 H2   HW0      0.679100        1.0080           
   13224 A    3306 TIP4 BD1  LP0     -1.358200        0.0000           
   13225 A    3307 TIP4 O1   OW0      0.000000       15.9990           
   13226 A    3307 TIP4 H1   HW0      0.679100        1.0080           
   13227 A    3307 TIP4 H2   HW0      0.679100        1.0080           
   13228 A    3307 TIP4 BD1  LP0     -1.358200        0.0000           
   13229 A    3308 TIP4 O1   OW0      0.000000       15.9990           
   13230 A    3308 TIP4 H1   HW0      0.679100        1.0080           
   13231 A    3308 TIP4 H2   HW0      0.679100        1.0080           
   13232 A    3308 TIP4 BD1  LP0     -1.358200        0.0000           
   13233 A    3309 TIP4 O1   OW0      0.000000       15.9990           
   13234 A    3309 TIP4 H1   HW0      0.679100        1.0080           
   13235 A    3309 TIP4 H2   HW0      0.679100        1.0080           
   13236 A    3309 TIP4 BD1  LP0     -1.358200        0.0000           
   13237 A    3310 TIP4 O1   OW0      0.000000       15.9990           
   13238 A    3310 TIP4 H1   HW0      0.679100        1.0080           
   13239 A    3310 TIP4 H2   HW0      0.679100        1.0080           
   13240 A    3310 TIP4 BD1  LP0     -1.358200        0.0000           
   13241 A    3311 TIP4 O1   OW0      0.000000       15.9990           
   13242 A    3311 TIP4 H1   HW0      0.679100        1.0080           
   13243 A    3311 TIP4 H2   HW0      0.679100        1.0080           
   13244 A    3311 TIP4 BD1  LP0     -1.358200        0.0000           
   13245 A    3312 TIP4 O1   OW0      0.000000       15.9990           
   13246 A    3312 TIP4 H1   HW0      0.679100        1.0080           
   13247 A    3312 TIP4 H2   HW0      0.679100        1.0080           
   13248 A    3312 TIP4 BD1  LP0     -1.358200        0.0000           
   13249 A    3313 TIP4 O1   OW0      0.000000       15.9990           
   13250 A    3313 TIP4 H1   HW0      0.679100        1.0080           
   13251 A    3313 TIP4 H2   HW0      0.679100        1.0080           
   13252 A    3313 TIP4 BD1  LP0     -1.358200        0.0000           
   13253 A    3314 TIP4 O1   OW0      0.000000       15.9990           
   13254 A    3314 TIP4 H1   HW0      0.679100        1.0080           
   13255 A    3314 TIP4 H2   HW0      0.679100        1.0080           
   13256 A    3314 TIP4 BD1  LP0     -1.358200        0.0000           
   13257 A    3315 TIP4 O1   OW0      0.000000       15.9990           
   13258 A    3315 TIP4 H1   HW0      0.679100        1.0080           
   13259 A    3315 TIP4 H2   HW0      0.679100        1.0080           
   13260 A    3315 TIP4 BD1  LP0     -1.358200        0.0000           
   13261 A    3316 TIP4 O1   OW0      0.000000       15.9990           
   13262 A    3316 TIP4 H1   HW0      0.679100        1.0080           
   13263 A    3316 TIP4 H2   HW0      0.679100        1.0080           
   13264 A    3316 TIP4 BD1  LP0     -1.358200        0.0000           
   13265 A    3317 TIP4 O1   OW0      0.000000       15.9990           
   13266 A    3317 TIP4 H1   HW0      0.679100        1.0080           
   13267 A    3317 TIP4 H2   HW0      0.679100        1.0080           
   13268 A    3317 TIP4 BD1  LP0     -1.358200        0.0000           
   13269 A    3318 TIP4 O1   OW0      0.000000       15.9990           
   13270 A    3318 TIP4 H1   HW0      0.679100        1.0080           
   13271 A    3318 TIP4 H2   HW0      0.679100        1.0080           
   13272 A    3318 TIP4 BD1  LP0     -1.358200        0.0000           
   13273 A    3319 TIP4 O1   OW0      0.000000       15.9990           
   13274 A    3319 TIP4 H1   HW0      0.679100        1.0080           
   13275 A    3319 TIP4 H2   HW0      0.679100        1.0080           
   13276 A    3319 TIP4 BD1  LP0     -1.358200        0.0000           
   13277 A    3320 TIP4 O1   OW0      0.000000       15.9990           
   13278 A    3320 TIP4 H1   HW0      0.679100        1.0080           
   13279 A    3320 TIP4 H2   HW0      0.679100        1.0080           
   13280 A    3320 TIP4 BD1  LP0     -1.358200        0.0000           
   13281 A    3321 TIP4 O1   OW0      0.000000       15.9990           
   13282 A    3321 TIP4 H1   HW0      0.679100        1.0080           
   13283 A    3321 TIP4 H2   HW0      0.679100        1.0080           
   13284 A    3321 TIP4 BD1  LP0     -1.358200        0.0000           
   13285 A    3322 TIP4 O1   OW0      0.000000       15.9990           
   13286 A    3322 TIP4 H1   HW0      0.679100        1.0080           
   13287 A    3322 TIP4 H2   HW0      0.679100        1.0080           
   13288 A    3322 TIP4 BD1  LP0     -1.358200        0.0000           
   13289 A    3323 TIP4 O1   OW0      0.000000       15.9990           
   13290 A    3323 TIP4 H1   HW0      0.679100        1.0080           
   13291 A    3323 TIP4 H2   HW0      0.679100        1.0080           
   13292 A    3323 TIP4 BD1  LP0     -1.358200        0.0000           
   13293 A    3324 TIP4 O1   OW0      0.000000       15.9990           
   13294 A    3324 TIP4 H1   HW0      0.679100        1.0080           
   13295 A    3324 TIP4 H2   HW0      0.679100        1.0080           
   13296 A    3324 TIP4 BD1  LP0     -1.358200        0.0000           
   13297 A    3325 TIP4 O1   OW0      0.000000       15.9990           
   13298 A    3325 TIP4 H1   HW0      0.679100        1.0080           
   13299 A    3325 TIP4 H2   HW0      0.679100        1.0080           
   13300 A    3325 TIP4 BD1  LP0     -1.358200        0.0000           
   13301 A    3326 TIP4 O1   OW0      0.000000       15.9990           
   13302 A    3326 TIP4 H1   HW0      0.679100        1.0080           
   13303 A    3326 TIP4 H2   HW0      0.679100        1.0080           
   13304 A    3326 TIP4 BD1  LP0     -1.358200        0.0000           
   13305 A    3327 TIP4 O1   OW0      0.000000       15.9990           
   13306 A    3327 TIP4 H1   HW0      0.679100        1.0080           
   13307 A    3327 TIP4 H2   HW0      0.679100        1.0080           
   13308 A    3327 TIP4 BD1  LP0     -1.358200        0.0000           
   13309 A    3328 TIP4 O1   OW0      0.000000       15.9990           
   13310 A    3328 TIP4 H1   HW0      0.679100        1.0080           
   13311 A    3328 TIP4 H2   HW0      0.679100        1.0080           
   13312 A    3328 TIP4 BD1  LP0     -1.358200        0.0000           
   13313 A    3329 TIP4 O1   OW0      0.000000       15.9990           
   13314 A    3329 TIP4 H1   HW0      0.679100        1.0080           
   13315 A    3329 TIP4 H2   HW0      0.679100        1.0080           
   13316 A    3329 TIP4 BD1  LP0     -1.358200        0.0000           
   13317 A    3330 TIP4 O1   OW0      0.000000       15.9990           
   13318 A    3330 TIP4 H1   HW0      0.679100        1.0080           
   13319 A    3330 TIP4 H2   HW0      0.679100        1.0080           
   13320 A    3330 TIP4 BD1  LP0     -1.358200        0.0000           
   13321 A    3331 TIP4 O1   OW0      0.000000       15.9990           
   13322 A    3331 TIP4 H1   HW0      0.679100        1.0080           
   13323 A    3331 TIP4 H2   HW0      0.679100        1.0080           
   13324 A    3331 TIP4 BD1  LP0     -1.358200        0.0000           
   13325 A    3332 TIP4 O1   OW0      0.000000       15.9990           
   13326 A    3332 TIP4 H1   HW0      0.679100        1.0080           
   13327 A    3332 TIP4 H2   HW0      0.679100        1.0080           
   13328 A    3332 TIP4 BD1  LP0     -1.358200        0.0000           
   13329 A    3333 TIP4 O1   OW0      0.000000       15.9990           
   13330 A    3333 TIP4 H1   HW0      0.679100        1.0080           
   13331 A    3333 TIP4 H2   HW0      0.679100        1.0080           
   13332 A    3333 TIP4 BD1  LP0     -1.358200        0.0000           
   13333 A    3334 TIP4 O1   OW0      0.000000       15.9990           
   13334 A    3334 TIP4 H1   HW0      0.679100        1.0080           
   13335 A    3334 TIP4 H2   HW0      0.679100        1.0080           
   13336 A    3334 TIP4 BD1  LP0     -1.358200        0.0000           
   13337 A    3335 TIP4 O1   OW0      0.000000       15.9990           
   13338 A    3335 TIP4 H1   HW0      0.679100        1.0080           
   13339 A    3335 TIP4 H2   HW0      0.679100        1.0080           
   13340 A    3335 TIP4 BD1  LP0     -1.358200        0.0000           
   13341 A    3336 TIP4 O1   OW0      0.000000       15.9990           
   13342 A    3336 TIP4 H1   HW0      0.679100        1.0080           
   13343 A    3336 TIP4 H2   HW0      0.679100        1.0080           
   13344 A    3336 TIP4 BD1  LP0     -1.358200        0.0000           
   13345 A    3337 TIP4 O1   OW0      0.000000       15.9990           
   13346 A    3337 TIP4 H1   HW0      0.679100        1.0080           
   13347 A    3337 TIP4 H2   HW0      0.679100        1.0080           
   13348 A    3337 TIP4 BD1  LP0     -1.358200        0.0000           
   13349 A    3338 TIP4 O1   OW0      0.000000       15.9990           
   13350 A    3338 TIP4 H1   HW0      0.679100        1.0080           
   13351 A    3338 TIP4 H2   HW0      0.679100        1.0080           
   13352 A    3338 TIP4 BD1  LP0     -1.358200        0.0000           
   13353 A    3339 TIP4 O1   OW0      0.000000       15.9990           
   13354 A    3339 TIP4 H1   HW0      0.679100        1.0080           
   13355 A    3339 TIP4 H2   HW0      0.679100        1.0080           
   13356 A    3339 TIP4 BD1  LP0     -1.358200        0.0000           
   13357 A    3340 TIP4 O1   OW0      0.000000       15.9990           
   13358 A    3340 TIP4 H1   HW0      0.679100        1.0080           
   13359 A    3340 TIP4 H2   HW0      0.679100        1.0080           
   13360 A    3340 TIP4 BD1  LP0     -1.358200        0.0000           
   13361 A    3341 TIP4 O1   OW0      0.000000       15.9990           
   13362 A    3341 TIP4 H1   HW0      0.679100        1.0080           
   13363 A    3341 TIP4 H2   HW0      0.679100        1.0080           
   13364 A    3341 TIP4 BD1  LP0     -1.358200        0.0000           
   13365 A    3342 TIP4 O1   OW0      0.000000       15.9990           
   13366 A    3342 TIP4 H1   HW0      0.679100        1.0080           
   13367 A    3342 TIP4 H2   HW0      0.679100        1.0080           
   13368 A    3342 TIP4 BD1  LP0     -1.358200        0.0000           
   13369 A    3343 TIP4 O1   OW0      0.000000       15.9990           
   13370 A    3343 TIP4 H1   HW0      0.679100        1.0080           
   13371 A    3343 TIP4 H2   HW0      0.679100        1.0080           
   13372 A    3343 TIP4 BD1  LP0     -1.358200        0.0000           
   13373 A    3344 TIP4 O1   OW0      0.000000       15.9990           
   13374 A    3344 TIP4 H1   HW0      0.679100        1.0080           
   13375 A    3344 TIP4 H2   HW0      0.679100        1.0080           
   13376 A    3344 TIP4 BD1  LP0     -1.358200        0.0000           
   13377 A    3345 TIP4 O1   OW0      0.000000       15.9990           
   13378 A    3345 TIP4 H1   HW0      0.679100        1.0080           
   13379 A    3345 TIP4 H2   HW0      0.679100        1.0080           
   13380 A    3345 TIP4 BD1  LP0     -1.358200        0.0000           
   13381 A    3346 TIP4 O1   OW0      0.000000       15.9990           
   13382 A    3346 TIP4 H1   HW0      0.679100        1.0080           
   13383 A    3346 TIP4 H2   HW0      0.679100        1.0080           
   13384 A    3346 TIP4 BD1  LP0     -1.358200        0.0000           
   13385 A    3347 TIP4 O1   OW0      0.000000       15.9990           
   13386 A    3347 TIP4 H1   HW0      0.679100        1.0080           
   13387 A    3347 TIP4 H2   HW0      0.679100        1.0080           
   13388 A    3347 TIP4 BD1  LP0     -1.358200        0.0000           
   13389 A    3348 TIP4 O1   OW0      0.000000       15.9990           
   13390 A    3348 TIP4 H1   HW0      0.679100        1.0080           
   13391 A    3348 TIP4 H2   HW0      0.679100        1.0080           
   13392 A    3348 TIP4 BD1  LP0     -1.358200        0.0000           
   13393 A    3349 TIP4 O1   OW0      0.000000       15.9990           
   13394 A    3349 TIP4 H1   HW0      0.679100        1.0080           
   13395 A    3349 TIP4 H2   HW0      0.679100        1.0080           
   13396 A    3349 TIP4 BD1  LP0     -1.358200        0.0000           
   13397 A    3350 TIP4 O1   OW0      0.000000       15.9990           
   13398 A    3350 TIP4 H1   HW0      0.679100        1.0080           
   13399 A    3350 TIP4 H2   HW0      0.679100        1.0080           
   13400 A    3350 TIP4 BD1  LP0     -1.358200        0.0000           
   13401 A    3351 TIP4 O1   OW0      0.000000       15.9990           
   13402 A    3351 TIP4 H1   HW0      0.679100        1.0080           
   13403 A    3351 TIP4 H2   HW0      0.679100        1.0080           
   13404 A    3351 TIP4 BD1  LP0     -1.358200        0.0000           
   13405 A    3352 TIP4 O1   OW0      0.000000       15.9990           
   13406 A    3352 TIP4 H1   HW0      0.679100        1.0080           
   13407 A    3352 TIP4 H2   HW0      0.679100        1.0080           
   13408 A    3352 TIP4 BD1  LP0     -1.358200        0.0000           
   13409 A    3353 TIP4 O1   OW0      0.000000       15.9990           
   13410 A    3353 TIP4 H1   HW0      0.679100        1.0080           
   13411 A    3353 TIP4 H2   HW0      0.679100        1.0080           
   13412 A    3353 TIP4 BD1  LP0     -1.358200        0.0000           
   13413 A    3354 TIP4 O1   OW0      0.000000       15.9990           
   13414 A    3354 TIP4 H1   HW0      0.679100        1.0080           
   13415 A    3354 TIP4 H2   HW0      0.679100        1.0080           
   13416 A    3354 TIP4 BD1  LP0     -1.358200        0.0000           
   13417 A    3355 TIP4 O1   OW0      0.000000       15.9990           
   13418 A    3355 TIP4 H1   HW0      0.679100        1.0080           
   13419 A    3355 TIP4 H2   HW0      0.679100        1.0080           
   13420 A    3355 TIP4 BD1  LP0     -1.358200        0.0000           
   13421 A    3356 TIP4 O1   OW0      0.000000       15.9990           
   13422 A    3356 TIP4 H1   HW0      0.679100        1.0080           
   13423 A    3356 TIP4 H2   HW0      0.679100        1.0080           
   13424 A    3356 TIP4 BD1  LP0     -1.358200        0.0000           
   13425 A    3357 TIP4 O1   OW0      0.000000       15.9990           
   13426 A    3357 TIP4 H1   HW0      0.679100        1.0080           
   13427 A    3357 TIP4 H2   HW0      0.679100        1.0080           
   13428 A    3357 TIP4 BD1  LP0     -1.358200        0.0000           
   13429 A    3358 TIP4 O1   OW0      0.000000       15.9990           
   13430 A    3358 TIP4 H1   HW0      0.679100        1.0080           
   13431 A    3358 TIP4 H2   HW0      0.679100        1.0080           
   13432 A    3358 TIP4 BD1  LP0     -1.358200        0.0000           
   13433 A    3359 TIP4 O1   OW0      0.000000       15.9990           
   13434 A    3359 TIP4 H1   HW0      0.679100        1.0080           
   13435 A    3359 TIP4 H2   HW0      0.679100        1.0080           
   13436 A    3359 TIP4 BD1  LP0     -1.358200        0.0000           
   13437 A    3360 TIP4 O1   OW0      0.000000       15.9990           
   13438 A    3360 TIP4 H1   HW0      0.679100        1.0080           
   13439 A    3360 TIP4 H2   HW0      0.679100        1.0080           
   13440 A    3360 TIP4 BD1  LP0     -1.358200        0.0000           
   13441 A    3361 TIP4 O1   OW0      0.000000       15.9990           
   13442 A    3361 TIP4 H1   HW0      0.679100        1.0080           
   13443 A    3361 TIP4 H2   HW0      0.679100        1.0080           
   13444 A    3361 TIP4 BD1  LP0     -1.358200        0.0000           
   13445 A    3362 TIP4 O1   OW0      0.000000       15.9990           
   13446 A    3362 TIP4 H1   HW0      0.679100        1.0080           
   13447 A    3362 TIP4 H2   HW0      0.679100        1.0080           
   13448 A    3362 TIP4 BD1  LP0     -1.358200        0.0000           
   13449 A    3363 TIP4 O1   OW0      0.000000       15.9990           
   13450 A    3363 TIP4 H1   HW0      0.679100        1.0080           
   13451 A    3363 TIP4 H2   HW0      0.679100        1.0080           
   13452 A    3363 TIP4 BD1  LP0     -1.358200        0.0000           
   13453 A    3364 TIP4 O1   OW0      0.000000       15.9990           
   13454 A    3364 TIP4 H1   HW0      0.679100        1.0080           
   13455 A    3364 TIP4 H2   HW0      0.679100        1.0080           
   13456 A    3364 TIP4 BD1  LP0     -1.358200        0.0000           
   13457 A    3365 TIP4 O1   OW0      0.000000       15.9990           
   13458 A    3365 TIP4 H1   HW0      0.679100        1.0080           
   13459 A    3365 TIP4 H2   HW0      0.679100        1.0080           
   13460 A    3365 TIP4 BD1  LP0     -1.358200        0.0000           
   13461 A    3366 TIP4 O1   OW0      0.000000       15.9990           
   13462 A    3366 TIP4 H1   HW0      0.679100        1.0080           
   13463 A    3366 TIP4 H2   HW0      0.679100        1.0080           
   13464 A    3366 TIP4 BD1  LP0     -1.358200        0.0000           
   13465 A    3367 TIP4 O1   OW0      0.000000       15.9990           
   13466 A    3367 TIP4 H1   HW0      0.679100        1.0080           
   13467 A    3367 TIP4 H2   HW0      0.679100        1.0080           
   13468 A    3367 TIP4 BD1  LP0     -1.358200        0.0000           
   13469 A    3368 TIP4 O1   OW0      0.000000       15.9990           
   13470 A    3368 TIP4 H1   HW0      0.679100        1.0080           
   13471 A    3368 TIP4 H2   HW0      0.679100        1.0080           
   13472 A    3368 TIP4 BD1  LP0     -1.358200        0.0000           
   13473 A    3369 TIP4 O1   OW0      0.000000       15.9990           
   13474 A    3369 TIP4 H1   HW0      0.679100        1.0080           
   13475 A    3369 TIP4 H2   HW0      0.679100        1.0080           
   13476 A    3369 TIP4 BD1  LP0     -1.358200        0.0000           
   13477 A    3370 TIP4 O1   OW0      0.000000       15.9990           
   13478 A    3370 TIP4 H1   HW0      0.679100        1.0080           
   13479 A    3370 TIP4 H2   HW0      0.679100        1.0080           
   13480 A    3370 TIP4 BD1  LP0     -1.358200        0.0000           
   13481 A    3371 TIP4 O1   OW0      0.000000       15.9990           
   13482 A    3371 TIP4 H1   HW0      0.679100        1.0080           
   13483 A    3371 TIP4 H2   HW0      0.679100        1.0080           
   13484 A    3371 TIP4 BD1  LP0     -1.358200        0.0000           
   13485 A    3372 TIP4 O1   OW0      0.000000       15.9990           
   13486 A    3372 TIP4 H1   HW0      0.679100        1.0080           
   13487 A    3372 TIP4 H2   HW0      0.679100        1.0080           
   13488 A    3372 TIP4 BD1  LP0     -1.358200        0.0000           
   13489 A    3373 TIP4 O1   OW0      0.000000       15.9990           
   13490 A    3373 TIP4 H1   HW0      0.679100        1.0080           
   13491 A    3373 TIP4 H2   HW0      0.679100        1.0080           
   13492 A    3373 TIP4 BD1  LP0     -1.358200        0.0000           
   13493 A    3374 TIP4 O1   OW0      0.000000       15.9990           
   13494 A    3374 TIP4 H1   HW0      0.679100        1.0080           
   13495 A    3374 TIP4 H2   HW0      0.679100        1.0080           
   13496 A    3374 TIP4 BD1  LP0     -1.358200        0.0000           
   13497 A    3375 TIP4 O1   OW0      0.000000       15.9990           
   13498 A    3375 TIP4 H1   HW0      0.679100        1.0080           
   13499 A    3375 TIP4 H2   HW0      0.679100        1.0080           
   13500 A    3375 TIP4 BD1  LP0     -1.358200        0.0000           
   13501 A    3376 TIP4 O1   OW0      0.000000       15.9990           
   13502 A    3376 TIP4 H1   HW0      0.679100        1.0080           
   13503 A    3376 TIP4 H2   HW0      0.679100        1.0080           
   13504 A    3376 TIP4 BD1  LP0     -1.358200        0.0000           
   13505 A    3377 TIP4 O1   OW0      0.000000       15.9990           
   13506 A    3377 TIP4 H1   HW0      0.679100        1.0080           
   13507 A    3377 TIP4 H2   HW0      0.679100        1.0080           
   13508 A    3377 TIP4 BD1  LP0     -1.358200        0.0000           
   13509 A    3378 TIP4 O1   OW0      0.000000       15.9990           
   13510 A    3378 TIP4 H1   HW0      0.679100        1.0080           
   13511 A    3378 TIP4 H2   HW0      0.679100        1.0080           
   13512 A    3378 TIP4 BD1  LP0     -1.358200        0.0000           
   13513 A    3379 TIP4 O1   OW0      0.000000       15.9990           
   13514 A    3379 TIP4 H1   HW0      0.679100        1.0080           
   13515 A    3379 TIP4 H2   HW0      0.679100        1.0080           
   13516 A    3379 TIP4 BD1  LP0     -1.358200        0.0000           
   13517 A    3380 TIP4 O1   OW0      0.000000       15.9990           
   13518 A    3380 TIP4 H1   HW0      0.679100        1.0080           
   13519 A    3380 TIP4 H2   HW0      0.679100        1.0080           
   13520 A    3380 TIP4 BD1  LP0     -1.358200        0.0000           
   13521 A    3381 TIP4 O1   OW0      0.000000       15.9990           
   13522 A    3381 TIP4 H1   HW0      0.679100        1.0080           
   13523 A    3381 TIP4 H2   HW0      0.679100        1.0080           
   13524 A    3381 TIP4 BD1  LP0     -1.358200        0.0000           
   13525 A    3382 TIP4 O1   OW0      0.000000       15.9990           
   13526 A    3382 TIP4 H1   HW0      0.679100        1.0080           
   13527 A    3382 TIP4 H2   HW0      0.679100        1.0080           
   13528 A    3382 TIP4 BD1  LP0     -1.358200        0.0000           
   13529 A    3383 TIP4 O1   OW0      0.000000       15.9990           
   13530 A    3383 TIP4 H1   HW0      0.679100        1.0080           
   13531 A    3383 TIP4 H2   HW0      0.679100        1.0080           
   13532 A    3383 TIP4 BD1  LP0     -1.358200        0.0000           
   13533 A    3384 TIP4 O1   OW0      0.000000       15.9990           
   13534 A    3384 TIP4 H1   HW0      0.679100        1.0080           
   13535 A    3384 TIP4 H2   HW0      0.679100        1.0080           
   13536 A    3384 TIP4 BD1  LP0     -1.358200        0.0000           
   13537 A    3385 TIP4 O1   OW0      0.000000       15.9990           
   13538 A    3385 TIP4 H1   HW0      0.679100        1.0080           
   13539 A    3385 TIP4 H2   HW0      0.679100        1.0080           
   13540 A    3385 TIP4 BD1  LP0     -1.358200        0.0000           
   13541 A    3386 TIP4 O1   OW0      0.000000       15.9990           
   13542 A    3386 TIP4 H1   HW0      0.679100        1.0080           
   13543 A    3386 TIP4 H2   HW0      0.679100        1.0080           
   13544 A    3386 TIP4 BD1  LP0     -1.358200        0.0000           
   13545 A    3387 TIP4 O1   OW0      0.000000       15.9990           
   13546 A    3387 TIP4 H1   HW0      0.679100        1.0080           
   13547 A    3387 TIP4 H2   HW0      0.679100        1.0080           
   13548 A    3387 TIP4 BD1  LP0     -1.358200        0.0000           
   13549 A    3388 TIP4 O1   OW0      0.000000       15.9990           
   13550 A    3388 TIP4 H1   HW0      0.679100        1.0080           
   13551 A    3388 TIP4 H2   HW0      0.679100        1.0080           
   13552 A    3388 TIP4 BD1  LP0     -1.358200        0.0000           
   13553 A    3389 TIP4 O1   OW0      0.000000       15.9990           
   13554 A    3389 TIP4 H1   HW0      0.679100        1.0080           
   13555 A    3389 TIP4 H2   HW0      0.679100        1.0080           
   13556 A    3389 TIP4 BD1  LP0     -1.358200        0.0000           
   13557 A    3390 TIP4 O1   OW0      0.000000       15.9990           
   13558 A    3390 TIP4 H1   HW0      0.679100        1.0080           
   13559 A    3390 TIP4 H2   HW0      0.679100        1.0080           
   13560 A    3390 TIP4 BD1  LP0     -1.358200        0.0000           
   13561 A    3391 TIP4 O1   OW0      0.000000       15.9990           
   13562 A    3391 TIP4 H1   HW0      0.679100        1.0080           
   13563 A    3391 TIP4 H2   HW0      0.679100        1.0080           
   13564 A    3391 TIP4 BD1  LP0     -1.358200        0.0000           
   13565 A    3392 TIP4 O1   OW0      0.000000       15.9990           
   13566 A    3392 TIP4 H1   HW0      0.679100        1.0080           
   13567 A    3392 TIP4 H2   HW0      0.679100        1.0080           
   13568 A    3392 TIP4 BD1  LP0     -1.358200        0.0000           
   13569 A    3393 TIP4 O1   OW0      0.000000       15.9990           
   13570 A    3393 TIP4 H1   HW0      0.679100        1.0080           
   13571 A    3393 TIP4 H2   HW0      0.679100        1.0080           
   13572 A    3393 TIP4 BD1  LP0     -1.358200        0.0000           
   13573 A    3394 TIP4 O1   OW0      0.000000       15.9990           
   13574 A    3394 TIP4 H1   HW0      0.679100        1.0080           
   13575 A    3394 TIP4 H2   HW0      0.679100        1.0080           
   13576 A    3394 TIP4 BD1  LP0     -1.358200        0.0000           
   13577 A    3395 TIP4 O1   OW0      0.000000       15.9990           
   13578 A    3395 TIP4 H1   HW0      0.679100        1.0080           
   13579 A    3395 TIP4 H2   HW0      0.679100        1.0080           
   13580 A    3395 TIP4 BD1  LP0     -1.358200        0.0000           
   13581 A    3396 TIP4 O1   OW0      0.000000       15.9990           
   13582 A    3396 TIP4 H1   HW0      0.679100        1.0080           
   13583 A    3396 TIP4 H2   HW0      0.679100        1.0080           
   13584 A    3396 TIP4 BD1  LP0     -1.358200        0.0000           
   13585 A    3397 TIP4 O1   OW0      0.000000       15.9990           
   13586 A    3397 TIP4 H1   HW0      0.679100        1.0080           
   13587 A    3397 TIP4 H2   HW0      0.679100        1.0080           
   13588 A    3397 TIP4 BD1  LP0     -1.358200        0.0000           
   13589 A    3398 TIP4 O1   OW0      0.000000       15.9990           
   13590 A    3398 TIP4 H1   HW0      0.679100        1.0080           
   13591 A    3398 TIP4 H2   HW0      0.679100        1.0080           
   13592 A    3398 TIP4 BD1  LP0     -1.358200        0.0000           
   13593 A    3399 TIP4 O1   OW0      0.000000       15.9990           
   13594 A    3399 TIP4 H1   HW0      0.679100        1.0080           
   13595 A    3399 TIP4 H2   HW0      0.679100        1.0080           
   13596 A    3399 TIP4 BD1  LP0     -1.358200        0.0000           
   13597 A    3400 TIP4 O1   OW0      0.000000       15.9990           
   13598 A    3400 TIP4 H1   HW0      0.679100        1.0080           
   13599 A    3400 TIP4 H2   HW0      0.679100        1.0080           
   13600 A    3400 TIP4 BD1  LP0     -1.358200        0.0000           
   13601 A    3401 TIP4 O1   OW0      0.000000       15.9990           
   13602 A    3401 TIP4 H1   HW0      0.679100        1.0080           
   13603 A    3401 TIP4 H2   HW0      0.679100        1.0080           
   13604 A    3401 TIP4 BD1  LP0     -1.358200        0.0000           
   13605 A    3402 TIP4 O1   OW0      0.000000       15.9990           
   13606 A    3402 TIP4 H1   HW0      0.679100        1.0080           
   13607 A    3402 TIP4 H2   HW0      0.679100        1.0080           
   13608 A    3402 TIP4 BD1  LP0     -1.358200        0.0000           
   13609 A    3403 TIP4 O1   OW0      0.000000       15.9990           
   13610 A    3403 TIP4 H1   HW0      0.679100        1.0080           
   13611 A    3403 TIP4 H2   HW0      0.679100        1.0080           
   13612 A    3403 TIP4 BD1  LP0     -1.358200        0.0000           
   13613 A    3404 TIP4 O1   OW0      0.000000       15.9990           
   13614 A    3404 TIP4 H1   HW0      0.679100        1.0080           
   13615 A    3404 TIP4 H2   HW0      0.679100        1.0080           
   13616 A    3404 TIP4 BD1  LP0     -1.358200        0.0000           
   13617 A    3405 TIP4 O1   OW0      0.000000       15.9990           
   13618 A    3405 TIP4 H1   HW0      0.679100        1.0080           
   13619 A    3405 TIP4 H2   HW0      0.679100        1.0080           
   13620 A    3405 TIP4 BD1  LP0     -1.358200        0.0000           
   13621 A    3406 TIP4 O1   OW0      0.000000       15.9990           
   13622 A    3406 TIP4 H1   HW0      0.679100        1.0080           
   13623 A    3406 TIP4 H2   HW0      0.679100        1.0080           
   13624 A    3406 TIP4 BD1  LP0     -1.358200        0.0000           
   13625 A    3407 TIP4 O1   OW0      0.000000       15.9990           
   13626 A    3407 TIP4 H1   HW0      0.679100        1.0080           
   13627 A    3407 TIP4 H2   HW0      0.679100        1.0080           
   13628 A    3407 TIP4 BD1  LP0     -1.358200        0.0000           
   13629 A    3408 TIP4 O1   OW0      0.000000       15.9990           
   13630 A    3408 TIP4 H1   HW0      0.679100        1.0080           
   13631 A    3408 TIP4 H2   HW0      0.679100        1.0080           
   13632 A    3408 TIP4 BD1  LP0     -1.358200        0.0000           
   13633 A    3409 TIP4 O1   OW0      0.000000       15.9990           
   13634 A    3409 TIP4 H1   HW0      0.679100        1.0080           
   13635 A    3409 TIP4 H2   HW0      0.679100        1.0080           
   13636 A    3409 TIP4 BD1  LP0     -1.358200        0.0000           
   13637 A    3410 TIP4 O1   OW0      0.000000       15.9990           
   13638 A    3410 TIP4 H1   HW0      0.679100        1.0080           
   13639 A    3410 TIP4 H2   HW0      0.679100        1.0080           
   13640 A    3410 TIP4 BD1  LP0     -1.358200        0.0000           
   13641 A    3411 TIP4 O1   OW0      0.000000       15.9990           
   13642 A    3411 TIP4 H1   HW0      0.679100        1.0080           
   13643 A    3411 TIP4 H2   HW0      0.679100        1.0080           
   13644 A    3411 TIP4 BD1  LP0     -1.358200        0.0000           
   13645 A    3412 TIP4 O1   OW0      0.000000       15.9990           
   13646 A    3412 TIP4 H1   HW0      0.679100        1.0080           
   13647 A    3412 TIP4 H2   HW0      0.679100        1.0080           
   13648 A    3412 TIP4 BD1  LP0     -1.358200        0.0000           
   13649 A    3413 TIP4 O1   OW0      0.000000       15.9990           
   13650 A    3413 TIP4 H1   HW0      0.679100        1.0080           
   13651 A    3413 TIP4 H2   HW0      0.679100        1.0080           
   13652 A    3413 TIP4 BD1  LP0     -1.358200        0.0000           
   13653 A    3414 TIP4 O1   OW0      0.000000       15.9990           
   13654 A    3414 TIP4 H1   HW0      0.679100        1.0080           
   13655 A    3414 TIP4 H2   HW0      0.679100        1.0080           
   13656 A    3414 TIP4 BD1  LP0     -1.358200        0.0000           
   13657 A    3415 TIP4 O1   OW0      0.000000       15.9990           
   13658 A    3415 TIP4 H1   HW0      0.679100        1.0080           
   13659 A    3415 TIP4 H2   HW0      0.679100        1.0080           
   13660 A    3415 TIP4 BD1  LP0     -1.358200        0.0000           
   13661 A    3416 TIP4 O1   OW0      0.000000       15.9990           
   13662 A    3416 TIP4 H1   HW0      0.679100        1.0080           
   13663 A    3416 TIP4 H2   HW0      0.679100        1.0080           
   13664 A    3416 TIP4 BD1  LP0     -1.358200        0.0000           
   13665 A    3417 TIP4 O1   OW0      0.000000       15.9990           
   13666 A    3417 TIP4 H1   HW0      0.679100        1.0080           
   13667 A    3417 TIP4 H2   HW0      0.679100        1.0080           
   13668 A    3417 TIP4 BD1  LP0     -1.358200        0.0000           
   13669 A    3418 TIP4 O1   OW0      0.000000       15.9990           
   13670 A    3418 TIP4 H1   HW0      0.679100        1.0080           
   13671 A    3418 TIP4 H2   HW0      0.679100        1.0080           
   13672 A    3418 TIP4 BD1  LP0     -1.358200        0.0000           
   13673 A    3419 TIP4 O1   OW0      0.000000       15.9990           
   13674 A    3419 TIP4 H1   HW0      0.679100        1.0080           
   13675 A    3419 TIP4 H2   HW0      0.679100        1.0080           
   13676 A    3419 TIP4 BD1  LP0     -1.358200        0.0000           
   13677 A    3420 TIP4 O1   OW0      0.000000       15.9990           
   13678 A    3420 TIP4 H1   HW0      0.679100        1.0080           
   13679 A    3420 TIP4 H2   HW0      0.679100        1.0080           
   13680 A    3420 TIP4 BD1  LP0     -1.358200        0.0000           
   13681 A    3421 TIP4 O1   OW0      0.000000       15.9990           
   13682 A    3421 TIP4 H1   HW0      0.679100        1.0080           
   13683 A    3421 TIP4 H2   HW0      0.679100        1.0080           
   13684 A    3421 TIP4 BD1  LP0     -1.358200        0.0000           
   13685 A    3422 TIP4 O1   OW0      0.000000       15.9990           
   13686 A    3422 TIP4 H1   HW0      0.679100        1.0080           
   13687 A    3422 TIP4 H2   HW0      0.679100        1.0080           
   13688 A    3422 TIP4 BD1  LP0     -1.358200        0.0000           
   13689 A    3423 TIP4 O1   OW0      0.000000       15.9990           
   13690 A    3423 TIP4 H1   HW0      0.679100        1.0080           
   13691 A    3423 TIP4 H2   HW0      0.679100        1.0080           
   13692 A    3423 TIP4 BD1  LP0     -1.358200        0.0000           
   13693 A    3424 TIP4 O1   OW0      0.000000       15.9990           
   13694 A    3424 TIP4 H1   HW0      0.679100        1.0080           
   13695 A    3424 TIP4 H2   HW0      0.679100        1.0080           
   13696 A    3424 TIP4 BD1  LP0     -1.358200        0.0000           
   13697 A    3425 TIP4 O1   OW0      0.000000       15.9990           
   13698 A    3425 TIP4 H1   HW0      0.679100        1.0080           
   13699 A    3425 TIP4 H2   HW0      0.679100        1.0080           
   13700 A    3425 TIP4 BD1  LP0     -1.358200        0.0000           
   13701 A    3426 TIP4 O1   OW0      0.000000       15.9990           
   13702 A    3426 TIP4 H1   HW0      0.679100        1.0080           
   13703 A    3426 TIP4 H2   HW0      0.679100        1.0080           
   13704 A    3426 TIP4 BD1  LP0     -1.358200        0.0000           
   13705 A    3427 TIP4 O1   OW0      0.000000       15.9990           
   13706 A    3427 TIP4 H1   HW0      0.679100        1.0080           
   13707 A    3427 TIP4 H2   HW0      0.679100        1.0080           
   13708 A    3427 TIP4 BD1  LP0     -1.358200        0.0000           
   13709 A    3428 TIP4 O1   OW0      0.000000       15.9990           
   13710 A    3428 TIP4 H1   HW0      0.679100        1.0080           
   13711 A    3428 TIP4 H2   HW0      0.679100        1.0080           
   13712 A    3428 TIP4 BD1  LP0     -1.358200        0.0000           
   13713 A    3429 TIP4 O1   OW0      0.000000       15.9990           
   13714 A    3429 TIP4 H1   HW0      0.679100        1.0080           
   13715 A    3429 TIP4 H2   HW0      0.679100        1.0080           
   13716 A    3429 TIP4 BD1  LP0     -1.358200        0.0000           
   13717 A    3430 TIP4 O1   OW0      0.000000       15.9990           
   13718 A    3430 TIP4 H1   HW0      0.679100        1.0080           
   13719 A    3430 TIP4 H2   HW0      0.679100        1.0080           
   13720 A    3430 TIP4 BD1  LP0     -1.358200        0.0000           
   13721 A    3431 TIP4 O1   OW0      0.000000       15.9990           
   13722 A    3431 TIP4 H1   HW0      0.679100        1.0080           
   13723 A    3431 TIP4 H2   HW0      0.679100        1.0080           
   13724 A    3431 TIP4 BD1  LP0     -1.358200        0.0000           
   13725 A    3432 TIP4 O1   OW0      0.000000       15.9990           
   13726 A    3432 TIP4 H1   HW0      0.679100        1.0080           
   13727 A    3432 TIP4 H2   HW0      0.679100        1.0080           
   13728 A    3432 TIP4 BD1  LP0     -1.358200        0.0000           
   13729 A    3433 TIP4 O1   OW0      0.000000       15.9990           
   13730 A    3433 TIP4 H1   HW0      0.679100        1.0080           
   13731 A    3433 TIP4 H2   HW0      0.679100        1.0080           
   13732 A    3433 TIP4 BD1  LP0     -1.358200        0.0000           
   13733 A    3434 TIP4 O1   OW0      0.000000       15.9990           
   13734 A    3434 TIP4 H1   HW0      0.679100        1.0080           
   13735 A    3434 TIP4 H2   HW0      0.679100        1.0080           
   13736 A    3434 TIP4 BD1  LP0     -1.358200        0.0000           
   13737 A    3435 TIP4 O1   OW0      0.000000       15.9990           
   13738 A    3435 TIP4 H1   HW0      0.679100        1.0080           
   13739 A    3435 TIP4 H2   HW0      0.679100        1.0080           
   13740 A    3435 TIP4 BD1  LP0     -1.358200        0.0000           
   13741 A    3436 TIP4 O1   OW0      0.000000       15.9990           
   13742 A    3436 TIP4 H1   HW0      0.679100        1.0080           
   13743 A    3436 TIP4 H2   HW0      0.679100        1.0080           
   13744 A    3436 TIP4 BD1  LP0     -1.358200        0.0000           
   13745 A    3437 TIP4 O1   OW0      0.000000       15.9990           
   13746 A    3437 TIP4 H1   HW0      0.679100        1.0080           
   13747 A    3437 TIP4 H2   HW0      0.679100        1.0080           
   13748 A    3437 TIP4 BD1  LP0     -1.358200        0.0000           
   13749 A    3438 TIP4 O1   OW0      0.000000       15.9990           
   13750 A    3438 TIP4 H1   HW0      0.679100        1.0080           
   13751 A    3438 TIP4 H2   HW0      0.679100        1.0080           
   13752 A    3438 TIP4 BD1  LP0     -1.358200        0.0000           
   13753 A    3439 TIP4 O1   OW0      0.000000       15.9990           
   13754 A    3439 TIP4 H1   HW0      0.679100        1.0080           
   13755 A    3439 TIP4 H2   HW0      0.679100        1.0080           
   13756 A    3439 TIP4 BD1  LP0     -1.358200        0.0000           
   13757 A    3440 TIP4 O1   OW0      0.000000       15.9990           
   13758 A    3440 TIP4 H1   HW0      0.679100        1.0080           
   13759 A    3440 TIP4 H2   HW0      0.679100        1.0080           
   13760 A    3440 TIP4 BD1  LP0     -1.358200        0.0000           
   13761 A    3441 TIP4 O1   OW0      0.000000       15.9990           
   13762 A    3441 TIP4 H1   HW0      0.679100        1.0080           
   13763 A    3441 TIP4 H2   HW0      0.679100        1.0080           
   13764 A    3441 TIP4 BD1  LP0     -1.358200        0.0000           
   13765 A    3442 TIP4 O1   OW0      0.000000       15.9990           
   13766 A    3442 TIP4 H1   HW0      0.679100        1.0080           
   13767 A    3442 TIP4 H2   HW0      0.679100        1.0080           
   13768 A    3442 TIP4 BD1  LP0     -1.358200        0.0000           
   13769 A    3443 TIP4 O1   OW0      0.000000       15.9990           
   13770 A    3443 TIP4 H1   HW0      0.679100        1.0080           
   13771 A    3443 TIP4 H2   HW0      0.679100        1.0080           
   13772 A    3443 TIP4 BD1  LP0     -1.358200        0.0000           
   13773 A    3444 TIP4 O1   OW0      0.000000       15.9990           
   13774 A    3444 TIP4 H1   HW0      0.679100        1.0080           
   13775 A    3444 TIP4 H2   HW0      0.679100        1.0080           
   13776 A    3444 TIP4 BD1  LP0     -1.358200        0.0000           
   13777 A    3445 TIP4 O1   OW0      0.000000       15.9990           
   13778 A    3445 TIP4 H1   HW0      0.679100        1.0080           
   13779 A    3445 TIP4 H2   HW0      0.679100        1.0080           
   13780 A    3445 TIP4 BD1  LP0     -1.358200        0.0000           
   13781 A    3446 TIP4 O1   OW0      0.000000       15.9990           
   13782 A    3446 TIP4 H1   HW0      0.679100        1.0080           
   13783 A    3446 TIP4 H2   HW0      0.679100        1.0080           
   13784 A    3446 TIP4 BD1  LP0     -1.358200        0.0000           
   13785 A    3447 TIP4 O1   OW0      0.000000       15.9990           
   13786 A    3447 TIP4 H1   HW0      0.679100        1.0080           
   13787 A    3447 TIP4 H2   HW0      0.679100        1.0080           
   13788 A    3447 TIP4 BD1  LP0     -1.358200        0.0000           
   13789 A    3448 TIP4 O1   OW0      0.000000       15.9990           
   13790 A    3448 TIP4 H1   HW0      0.679100        1.0080           
   13791 A    3448 TIP4 H2   HW0      0.679100        1.0080           
   13792 A    3448 TIP4 BD1  LP0     -1.358200        0.0000           
   13793 A    3449 TIP4 O1   OW0      0.000000       15.9990           
   13794 A    3449 TIP4 H1   HW0      0.679100        1.0080           
   13795 A    3449 TIP4 H2   HW0      0.679100        1.0080           
   13796 A    3449 TIP4 BD1  LP0     -1.358200        0.0000           
   13797 A    3450 TIP4 O1   OW0      0.000000       15.9990           
   13798 A    3450 TIP4 H1   HW0      0.679100        1.0080           
   13799 A    3450 TIP4 H2   HW0      0.679100        1.0080           
   13800 A    3450 TIP4 BD1  LP0     -1.358200        0.0000           
   13801 A    3451 TIP4 O1   OW0      0.000000       15.9990           
   13802 A    3451 TIP4 H1   HW0      0.679100        1.0080           
   13803 A    3451 TIP4 H2   HW0      0.679100        1.0080           
   13804 A    3451 TIP4 BD1  LP0     -1.358200        0.0000           
   13805 A    3452 TIP4 O1   OW0      0.000000       15.9990           
   13806 A    3452 TIP4 H1   HW0      0.679100        1.0080           
   13807 A    3452 TIP4 H2   HW0      0.679100        1.0080           
   13808 A    3452 TIP4 BD1  LP0     -1.358200        0.0000           
   13809 A    3453 TIP4 O1   OW0      0.000000       15.9990           
   13810 A    3453 TIP4 H1   HW0      0.679100        1.0080           
   13811 A    3453 TIP4 H2   HW0      0.679100        1.0080           
   13812 A    3453 TIP4 BD1  LP0     -1.358200        0.0000           
   13813 A    3454 TIP4 O1   OW0      0.000000       15.9990           
   13814 A    3454 TIP4 H1   HW0      0.679100        1.0080           
   13815 A    3454 TIP4 H2   HW0      0.679100        1.0080           
   13816 A    3454 TIP4 BD1  LP0     -1.358200        0.0000           
   13817 A    3455 TIP4 O1   OW0      0.000000       15.9990           
   13818 A    3455 TIP4 H1   HW0      0.679100        1.0080           
   13819 A    3455 TIP4 H2   HW0      0.679100        1.0080           
   13820 A    3455 TIP4 BD1  LP0     -1.358200        0.0000           
   13821 A    3456 TIP4 O1   OW0      0.000000       15.9990           
   13822 A    3456 TIP4 H1   HW0      0.679100        1.0080           
   13823 A    3456 TIP4 H2   HW0      0.679100        1.0080           
   13824 A    3456 TIP4 BD1  LP0     -1.358200        0.0000           
   13825 A    3457 TIP4 O1   OW0      0.000000       15.9990           
   13826 A    3457 TIP4 H1   HW0      0.679100        1.0080           
   13827 A    3457 TIP4 H2   HW0      0.679100        1.0080           
   13828 A    3457 TIP4 BD1  LP0     -1.358200        0.0000           
   13829 A    3458 TIP4 O1   OW0      0.000000       15.9990           
   13830 A    3458 TIP4 H1   HW0      0.679100        1.0080           
   13831 A    3458 TIP4 H2   HW0      0.679100        1.0080           
   13832 A    3458 TIP4 BD1  LP0     -1.358200        0.0000           
   13833 A    3459 TIP4 O1   OW0      0.000000       15.9990           
   13834 A    3459 TIP4 H1   HW0      0.679100        1.0080           
   13835 A    3459 TIP4 H2   HW0      0.679100        1.0080           
   13836 A    3459 TIP4 BD1  LP0     -1.358200        0.0000           
   13837 A    3460 TIP4 O1   OW0      0.000000       15.9990           
   13838 A    3460 TIP4 H1   HW0      0.679100        1.0080           
   13839 A    3460 TIP4 H2   HW0      0.679100        1.0080           
   13840 A    3460 TIP4 BD1  LP0     -1.358200        0.0000           
   13841 A    3461 TIP4 O1   OW0      0.000000       15.9990           
   13842 A    3461 TIP4 H1   HW0      0.679100        1.0080           
   13843 A    3461 TIP4 H2   HW0      0.679100        1.0080           
   13844 A    3461 TIP4 BD1  LP0     -1.358200        0.0000           
   13845 A    3462 TIP4 O1   OW0      0.000000       15.9990           
   13846 A    3462 TIP4 H1   HW0      0.679100        1.0080           
   13847 A    3462 TIP4 H2   HW0      0.679100        1.0080           
   13848 A    3462 TIP4 BD1  LP0     -1.358200        0.0000           
   13849 A    3463 TIP4 O1   OW0      0.000000       15.9990           
   13850 A    3463 TIP4 H1   HW0      0.679100        1.0080           
   13851 A    3463 TIP4 H2   HW0      0.679100        1.0080           
   13852 A    3463 TIP4 BD1  LP0     -1.358200        0.0000           
   13853 A    3464 TIP4 O1   OW0      0.000000       15.9990           
   13854 A    3464 TIP4 H1   HW0      0.679100        1.0080           
   13855 A    3464 TIP4 H2   HW0      0.679100        1.0080           
   13856 A    3464 TIP4 BD1  LP0     -1.358200        0.0000           
   13857 A    3465 TIP4 O1   OW0      0.000000       15.9990           
   13858 A    3465 TIP4 H1   HW0      0.679100        1.0080           
   13859 A    3465 TIP4 H2   HW0      0.679100        1.0080           
   13860 A    3465 TIP4 BD1  LP0     -1.358200        0.0000           
   13861 A    3466 TIP4 O1   OW0      0.000000       15.9990           
   13862 A    3466 TIP4 H1   HW0      0.679100        1.0080           
   13863 A    3466 TIP4 H2   HW0      0.679100        1.0080           
   13864 A    3466 TIP4 BD1  LP0     -1.358200        0.0000           
   13865 A    3467 TIP4 O1   OW0      0.000000       15.9990           
   13866 A    3467 TIP4 H1   HW0      0.679100        1.0080           
   13867 A    3467 TIP4 H2   HW0      0.679100        1.0080           
   13868 A    3467 TIP4 BD1  LP0     -1.358200        0.0000           
   13869 A    3468 TIP4 O1   OW0      0.000000       15.9990           
   13870 A    3468 TIP4 H1   HW0      0.679100        1.0080           
   13871 A    3468 TIP4 H2   HW0      0.679100        1.0080           
   13872 A    3468 TIP4 BD1  LP0     -1.358200        0.0000           
   13873 A    3469 TIP4 O1   OW0      0.000000       15.9990           
   13874 A    3469 TIP4 H1   HW0      0.679100        1.0080           
   13875 A    3469 TIP4 H2   HW0      0.679100        1.0080           
   13876 A    3469 TIP4 BD1  LP0     -1.358200        0.0000           
   13877 A    3470 TIP4 O1   OW0      0.000000       15.9990           
   13878 A    3470 TIP4 H1   HW0      0.679100        1.0080           
   13879 A    3470 TIP4 H2   HW0      0.679100        1.0080           
   13880 A    3470 TIP4 BD1  LP0     -1.358200        0.0000           
   13881 A    3471 TIP4 O1   OW0      0.000000       15.9990           
   13882 A    3471 TIP4 H1   HW0      0.679100        1.0080           
   13883 A    3471 TIP4 H2   HW0      0.679100        1.0080           
   13884 A    3471 TIP4 BD1  LP0     -1.358200        0.0000           
   13885 A    3472 TIP4 O1   OW0      0.000000       15.9990           
   13886 A    3472 TIP4 H1   HW0      0.679100        1.0080           
   13887 A    3472 TIP4 H2   HW0      0.679100        1.0080           
   13888 A    3472 TIP4 BD1  LP0     -1.358200        0.0000           
   13889 A    3473 TIP4 O1   OW0      0.000000       15.9990           
   13890 A    3473 TIP4 H1   HW0      0.679100        1.0080           
   13891 A    3473 TIP4 H2   HW0      0.679100        1.0080           
   13892 A    3473 TIP4 BD1  LP0     -1.358200        0.0000           
   13893 A    3474 TIP4 O1   OW0      0.000000       15.9990           
   13894 A    3474 TIP4 H1   HW0      0.679100        1.0080           
   13895 A    3474 TIP4 H2   HW0      0.679100        1.0080           
   13896 A    3474 TIP4 BD1  LP0     -1.358200        0.0000           
   13897 A    3475 TIP4 O1   OW0      0.000000       15.9990           
   13898 A    3475 TIP4 H1   HW0      0.679100        1.0080           
   13899 A    3475 TIP4 H2   HW0      0.679100        1.0080           
   13900 A    3475 TIP4 BD1  LP0     -1.358200        0.0000           
   13901 A    3476 TIP4 O1   OW0      0.000000       15.9990           
   13902 A    3476 TIP4 H1   HW0      0.679100        1.0080           
   13903 A    3476 TIP4 H2   HW0      0.679100        1.0080           
   13904 A    3476 TIP4 BD1  LP0     -1.358200        0.0000           
   13905 A    3477 TIP4 O1   OW0      0.000000       15.9990           
   13906 A    3477 TIP4 H1   HW0      0.679100        1.0080           
   13907 A    3477 TIP4 H2   HW0      0.679100        1.0080           
   13908 A    3477 TIP4 BD1  LP0     -1.358200        0.0000           
   13909 A    3478 TIP4 O1   OW0      0.000000       15.9990           
   13910 A    3478 TIP4 H1   HW0      0.679100        1.0080           
   13911 A    3478 TIP4 H2   HW0      0.679100        1.0080           
   13912 A    3478 TIP4 BD1  LP0     -1.358200        0.0000           
   13913 A    3479 TIP4 O1   OW0      0.000000       15.9990           
   13914 A    3479 TIP4 H1   HW0      0.679100        1.0080           
   13915 A    3479 TIP4 H2   HW0      0.679100        1.0080           
   13916 A    3479 TIP4 BD1  LP0     -1.358200        0.0000           
   13917 A    3480 TIP4 O1   OW0      0.000000       15.9990           
   13918 A    3480 TIP4 H1   HW0      0.679100        1.0080           
   13919 A    3480 TIP4 H2   HW0      0.679100        1.0080           
   13920 A    3480 TIP4 BD1  LP0     -1.358200        0.0000           
   13921 A    3481 TIP4 O1   OW0      0.000000       15.9990           
   13922 A    3481 TIP4 H1   HW0      0.679100        1.0080           
   13923 A    3481 TIP4 H2   HW0      0.679100        1.0080           
   13924 A    3481 TIP4 BD1  LP0     -1.358200        0.0000           
   13925 A    3482 TIP4 O1   OW0      0.000000       15.9990           
   13926 A    3482 TIP4 H1   HW0      0.679100        1.0080           
   13927 A    3482 TIP4 H2   HW0      0.679100        1.0080           
   13928 A    3482 TIP4 BD1  LP0     -1.358200        0.0000           
   13929 A    3483 TIP4 O1   OW0      0.000000       15.9990           
   13930 A    3483 TIP4 H1   HW0      0.679100        1.0080           
   13931 A    3483 TIP4 H2   HW0      0.679100        1.0080           
   13932 A    3483 TIP4 BD1  LP0     -1.358200        0.0000           
   13933 A    3484 TIP4 O1   OW0      0.000000       15.9990           
   13934 A    3484 TIP4 H1   HW0      0.679100        1.0080           
   13935 A    3484 TIP4 H2   HW0      0.679100        1.0080           
   13936 A    3484 TIP4 BD1  LP0     -1.358200        0.0000           
   13937 A    3485 TIP4 O1   OW0      0.000000       15.9990           
   13938 A    3485 TIP4 H1   HW0      0.679100        1.0080           
   13939 A    3485 TIP4 H2   HW0      0.679100        1.0080           
   13940 A    3485 TIP4 BD1  LP0     -1.358200        0.0000           
   13941 A    3486 TIP4 O1   OW0      0.000000       15.9990           
   13942 A    3486 TIP4 H1   HW0      0.679100        1.0080           
   13943 A    3486 TIP4 H2   HW0      0.679100        1.0080           
   13944 A    3486 TIP4 BD1  LP0     -1.358200        0.0000           
   13945 A    3487 TIP4 O1   OW0      0.000000       15.9990           
   13946 A    3487 TIP4 H1   HW0      0.679100        1.0080           
   13947 A    3487 TIP4 H2   HW0      0.679100        1.0080           
   13948 A    3487 TIP4 BD1  LP0     -1.358200        0.0000           
   13949 A    3488 TIP4 O1   OW0      0.000000       15.9990           
   13950 A    3488 TIP4 H1   HW0      0.679100        1.0080           
   13951 A    3488 TIP4 H2   HW0      0.679100        1.0080           
   13952 A    3488 TIP4 BD1  LP0     -1.358200        0.0000           
   13953 A    3489 TIP4 O1   OW0      0.000000       15.9990           
   13954 A    3489 TIP4 H1   HW0      0.679100        1.0080           
   13955 A    3489 TIP4 H2   HW0      0.679100        1.0080           
   13956 A    3489 TIP4 BD1  LP0     -1.358200        0.0000           
   13957 A    3490 TIP4 O1   OW0      0.000000       15.9990           
   13958 A    3490 TIP4 H1   HW0      0.679100        1.0080           
   13959 A    3490 TIP4 H2   HW0      0.679100        1.0080           
   13960 A    3490 TIP4 BD1  LP0     -1.358200        0.0000           
   13961 A    3491 TIP4 O1   OW0      0.000000       15.9990           
   13962 A    3491 TIP4 H1   HW0      0.679100        1.0080           
   13963 A    3491 TIP4 H2   HW0      0.679100        1.0080           
   13964 A    3491 TIP4 BD1  LP0     -1.358200        0.0000           
   13965 A    3492 TIP4 O1   OW0      0.000000       15.9990           
   13966 A    3492 TIP4 H1   HW0      0.679100        1.0080           
   13967 A    3492 TIP4 H2   HW0      0.679100        1.0080           
   13968 A    3492 TIP4 BD1  LP0     -1.358200        0.0000           
   13969 A    3493 TIP4 O1   OW0      0.000000       15.9990           
   13970 A    3493 TIP4 H1   HW0      0.679100        1.0080           
   13971 A    3493 TIP4 H2   HW0      0.679100        1.0080           
   13972 A    3493 TIP4 BD1  LP0     -1.358200        0.0000           
   13973 A    3494 TIP4 O1   OW0      0.000000       15.9990           
   13974 A    3494 TIP4 H1   HW0      0.679100        1.0080           
   13975 A    3494 TIP4 H2   HW0      0.679100        1.0080           
   13976 A    3494 TIP4 BD1  LP0     -1.358200        0.0000           
   13977 A    3495 TIP4 O1   OW0      0.000000       15.9990           
   13978 A    3495 TIP4 H1   HW0      0.679100        1.0080           
   13979 A    3495 TIP4 H2   HW0      0.679100        1.0080           
   13980 A    3495 TIP4 BD1  LP0     -1.358200        0.0000           
   13981 A    3496 TIP4 O1   OW0      0.000000       15.9990           
   13982 A    3496 TIP4 H1   HW0      0.679100        1.0080           
   13983 A    3496 TIP4 H2   HW0      0.679100        1.0080           
   13984 A    3496 TIP4 BD1  LP0     -1.358200        0.0000           
   13985 A    3497 TIP4 O1   OW0      0.000000       15.9990           
   13986 A    3497 TIP4 H1   HW0      0.679100        1.0080           
   13987 A    3497 TIP4 H2   HW0      0.679100        1.0080           
   13988 A    3497 TIP4 BD1  LP0     -1.358200        0.0000           
   13989 A    3498 TIP4 O1   OW0      0.000000       15.9990           
   13990 A    3498 TIP4 H1   HW0      0.679100        1.0080           
   13991 A    3498 TIP4 H2   HW0      0.679100        1.0080           
   13992 A    3498 TIP4 BD1  LP0     -1.358200        0.0000           
   13993 A    3499 TIP4 O1   OW0      0.000000       15.9990           
   13994 A    3499 TIP4 H1   HW0      0.679100        1.0080           
   13995 A    3499 TIP4 H2   HW0      0.679100        1.0080           
   13996 A    3499 TIP4 BD1  LP0     -1.358200        0.0000           
   13997 A    3500 TIP4 O1   OW0      0.000000       15.9990           
   13998 A    3500 TIP4 H1   HW0      0.679100        1.0080           
   13999 A    3500 TIP4 H2   HW0      0.679100        1.0080           
   14000 A    3500 TIP4 BD1  LP0     -1.358200        0.0000           
   14001 A    3501 TIP4 O1   OW0      0.000000       15.9990           
   14002 A    3501 TIP4 H1   HW0      0.679100        1.0080           
   14003 A    3501 TIP4 H2   HW0      0.679100        1.0080           
   14004 A    3501 TIP4 BD1  LP0     -1.358200        0.0000           
   14005 A    3502 TIP4 O1   OW0      0.000000       15.9990           
   14006 A    3502 TIP4 H1   HW0      0.679100        1.0080           
   14007 A    3502 TIP4 H2   HW0      0.679100        1.0080           
   14008 A    3502 TIP4 BD1  LP0     -1.358200        0.0000           
   14009 A    3503 TIP4 O1   OW0      0.000000       15.9990           
   14010 A    3503 TIP4 H1   HW0      0.679100        1.0080           
   14011 A    3503 TIP4 H2   HW0      0.679100        1.0080           
   14012 A    3503 TIP4 BD1  LP0     -1.358200        0.0000           
   14013 A    3504 TIP4 O1   OW0      0.000000       15.9990           
   14014 A    3504 TIP4 H1   HW0      0.679100        1.0080           
   14015 A    3504 TIP4 H2   HW0      0.679100        1.0080           
   14016 A    3504 TIP4 BD1  LP0     -1.358200        0.0000           
   14017 A    3505 TIP4 O1   OW0      0.000000       15.9990           
   14018 A    3505 TIP4 H1   HW0      0.679100        1.0080           
   14019 A    3505 TIP4 H2   HW0      0.679100        1.0080           
   14020 A    3505 TIP4 BD1  LP0     -1.358200        0.0000           
   14021 A    3506 TIP4 O1   OW0      0.000000       15.9990           
   14022 A    3506 TIP4 H1   HW0      0.679100        1.0080           
   14023 A    3506 TIP4 H2   HW0      0.679100        1.0080           
   14024 A    3506 TIP4 BD1  LP0     -1.358200        0.0000           
   14025 A    3507 TIP4 O1   OW0      0.000000       15.9990           
   14026 A    3507 TIP4 H1   HW0      0.679100        1.0080           
   14027 A    3507 TIP4 H2   HW0      0.679100        1.0080           
   14028 A    3507 TIP4 BD1  LP0     -1.358200        0.0000           
   14029 A    3508 TIP4 O1   OW0      0.000000       15.9990           
   14030 A    3508 TIP4 H1   HW0      0.679100        1.0080           
   14031 A    3508 TIP4 H2   HW0      0.679100        1.0080           
   14032 A    3508 TIP4 BD1  LP0     -1.358200        0.0000           
   14033 A    3509 TIP4 O1   OW0      0.000000       15.9990           
   14034 A    3509 TIP4 H1   HW0      0.679100        1.0080           
   14035 A    3509 TIP4 H2   HW0      0.679100        1.0080           
   14036 A    3509 TIP4 BD1  LP0     -1.358200        0.0000           
   14037 A    3510 TIP4 O1   OW0      0.000000       15.9990           
   14038 A    3510 TIP4 H1   HW0      0.679100        1.0080           
   14039 A    3510 TIP4 H2   HW0      0.679100        1.0080           
   14040 A    3510 TIP4 BD1  LP0     -1.358200        0.0000           
   14041 A    3511 TIP4 O1   OW0      0.000000       15.9990           
   14042 A    3511 TIP4 H1   HW0      0.679100        1.0080           
   14043 A    3511 TIP4 H2   HW0      0.679100        1.0080           
   14044 A    3511 TIP4 BD1  LP0     -1.358200        0.0000           
   14045 A    3512 TIP4 O1   OW0      0.000000       15.9990           
   14046 A    3512 TIP4 H1   HW0      0.679100        1.0080           
   14047 A    3512 TIP4 H2   HW0      0.679100        1.0080           
   14048 A    3512 TIP4 BD1  LP0     -1.358200        0.0000           
   14049 A    3513 TIP4 O1   OW0      0.000000       15.9990           
   14050 A    3513 TIP4 H1   HW0      0.679100        1.0080           
   14051 A    3513 TIP4 H2   HW0      0.679100        1.0080           
   14052 A    3513 TIP4 BD1  LP0     -1.358200        0.0000           
   14053 A    3514 TIP4 O1   OW0      0.000000       15.9990           
   14054 A    3514 TIP4 H1   HW0      0.679100        1.0080           
   14055 A    3514 TIP4 H2   HW0      0.679100        1.0080           
   14056 A    3514 TIP4 BD1  LP0     -1.358200        0.0000           
   14057 A    3515 TIP4 O1   OW0      0.000000       15.9990           
   14058 A    3515 TIP4 H1   HW0      0.679100        1.0080           
   14059 A    3515 TIP4 H2   HW0      0.679100        1.0080           
   14060 A    3515 TIP4 BD1  LP0     -1.358200        0.0000           
   14061 A    3516 TIP4 O1   OW0      0.000000       15.9990           
   14062 A    3516 TIP4 H1   HW0      0.679100        1.0080           
   14063 A    3516 TIP4 H2   HW0      0.679100        1.0080           
   14064 A    3516 TIP4 BD1  LP0     -1.358200        0.0000           
   14065 A    3517 TIP4 O1   OW0      0.000000       15.9990           
   14066 A    3517 TIP4 H1   HW0      0.679100        1.0080           
   14067 A    3517 TIP4 H2   HW0      0.679100        1.0080           
   14068 A    3517 TIP4 BD1  LP0     -1.358200        0.0000           
   14069 A    3518 TIP4 O1   OW0      0.000000       15.9990           
   14070 A    3518 TIP4 H1   HW0      0.679100        1.0080           
   14071 A    3518 TIP4 H2   HW0      0.679100        1.0080           
   14072 A    3518 TIP4 BD1  LP0     -1.358200        0.0000           
   14073 A    3519 TIP4 O1   OW0      0.000000       15.9990           
   14074 A    3519 TIP4 H1   HW0      0.679100        1.0080           
   14075 A    3519 TIP4 H2   HW0      0.679100        1.0080           
   14076 A    3519 TIP4 BD1  LP0     -1.358200        0.0000           
   14077 A    3520 TIP4 O1   OW0      0.000000       15.9990           
   14078 A    3520 TIP4 H1   HW0      0.679100        1.0080           
   14079 A    3520 TIP4 H2   HW0      0.679100        1.0080           
   14080 A    3520 TIP4 BD1  LP0     -1.358200        0.0000           
   14081 A    3521 TIP4 O1   OW0      0.000000       15.9990           
   14082 A    3521 TIP4 H1   HW0      0.679100        1.0080           
   14083 A    3521 TIP4 H2   HW0      0.679100        1.0080           
   14084 A    3521 TIP4 BD1  LP0     -1.358200        0.0000           
   14085 A    3522 TIP4 O1   OW0      0.000000       15.9990           
   14086 A    3522 TIP4 H1   HW0      0.679100        1.0080           
   14087 A    3522 TIP4 H2   HW0      0.679100        1.0080           
   14088 A    3522 TIP4 BD1  LP0     -1.358200        0.0000           
   14089 A    3523 TIP4 O1   OW0      0.000000       15.9990           
   14090 A    3523 TIP4 H1   HW0      0.679100        1.0080           
   14091 A    3523 TIP4 H2   HW0      0.679100        1.0080           
   14092 A    3523 TIP4 BD1  LP0     -1.358200        0.0000           
   14093 A    3524 TIP4 O1   OW0      0.000000       15.9990           
   14094 A    3524 TIP4 H1   HW0      0.679100        1.0080           
   14095 A    3524 TIP4 H2   HW0      0.679100        1.0080           
   14096 A    3524 TIP4 BD1  LP0     -1.358200        0.0000           
   14097 A    3525 TIP4 O1   OW0      0.000000       15.9990           
   14098 A    3525 TIP4 H1   HW0      0.679100        1.0080           
   14099 A    3525 TIP4 H2   HW0      0.679100        1.0080           
   14100 A    3525 TIP4 BD1  LP0     -1.358200        0.0000           
   14101 A    3526 TIP4 O1   OW0      0.000000       15.9990           
   14102 A    3526 TIP4 H1   HW0      0.679100        1.0080           
   14103 A    3526 TIP4 H2   HW0      0.679100        1.0080           
   14104 A    3526 TIP4 BD1  LP0     -1.358200        0.0000           
   14105 A    3527 TIP4 O1   OW0      0.000000       15.9990           
   14106 A    3527 TIP4 H1   HW0      0.679100        1.0080           
   14107 A    3527 TIP4 H2   HW0      0.679100        1.0080           
   14108 A    3527 TIP4 BD1  LP0     -1.358200        0.0000           
   14109 A    3528 TIP4 O1   OW0      0.000000       15.9990           
   14110 A    3528 TIP4 H1   HW0      0.679100        1.0080           
   14111 A    3528 TIP4 H2   HW0      0.679100        1.0080           
   14112 A    3528 TIP4 BD1  LP0     -1.358200        0.0000           
   14113 A    3529 TIP4 O1   OW0      0.000000       15.9990           
   14114 A    3529 TIP4 H1   HW0      0.679100        1.0080           
   14115 A    3529 TIP4 H2   HW0      0.679100        1.0080           
   14116 A    3529 TIP4 BD1  LP0     -1.358200        0.0000           
   14117 A    3530 TIP4 O1   OW0      0.000000       15.9990           
   14118 A    3530 TIP4 H1   HW0      0.679100        1.0080           
   14119 A    3530 TIP4 H2   HW0      0.679100        1.0080           
   14120 A    3530 TIP4 BD1  LP0     -1.358200        0.0000           
   14121 A    3531 TIP4 O1   OW0      0.000000       15.9990           
   14122 A    3531 TIP4 H1   HW0      0.679100        1.0080           
   14123 A    3531 TIP4 H2   HW0      0.679100        1.0080           
   14124 A    3531 TIP4 BD1  LP0     -1.358200        0.0000           
   14125 A    3532 TIP4 O1   OW0      0.000000       15.9990           
   14126 A    3532 TIP4 H1   HW0      0.679100        1.0080           
   14127 A    3532 TIP4 H2   HW0      0.679100        1.0080           
   14128 A    3532 TIP4 BD1  LP0     -1.358200        0.0000           
   14129 A    3533 TIP4 O1   OW0      0.000000       15.9990           
   14130 A    3533 TIP4 H1   HW0      0.679100        1.0080           
   14131 A    3533 TIP4 H2   HW0      0.679100        1.0080           
   14132 A    3533 TIP4 BD1  LP0     -1.358200        0.0000           
   14133 A    3534 TIP4 O1   OW0      0.000000       15.9990           
   14134 A    3534 TIP4 H1   HW0      0.679100        1.0080           
   14135 A    3534 TIP4 H2   HW0      0.679100        1.0080           
   14136 A    3534 TIP4 BD1  LP0     -1.358200        0.0000           
   14137 A    3535 TIP4 O1   OW0      0.000000       15.9990           
   14138 A    3535 TIP4 H1   HW0      0.679100        1.0080           
   14139 A    3535 TIP4 H2   HW0      0.679100        1.0080           
   14140 A    3535 TIP4 BD1  LP0     -1.358200        0.0000           
   14141 A    3536 TIP4 O1   OW0      0.000000       15.9990           
   14142 A    3536 TIP4 H1   HW0      0.679100        1.0080           
   14143 A    3536 TIP4 H2   HW0      0.679100        1.0080           
   14144 A    3536 TIP4 BD1  LP0     -1.358200        0.0000           
   14145 A    3537 TIP4 O1   OW0      0.000000       15.9990           
   14146 A    3537 TIP4 H1   HW0      0.679100        1.0080           
   14147 A    3537 TIP4 H2   HW0      0.679100        1.0080           
   14148 A    3537 TIP4 BD1  LP0     -1.358200        0.0000           
   14149 A    3538 TIP4 O1   OW0      0.000000       15.9990           
   14150 A    3538 TIP4 H1   HW0      0.679100        1.0080           
   14151 A    3538 TIP4 H2   HW0      0.679100        1.0080           
   14152 A    3538 TIP4 BD1  LP0     -1.358200        0.0000           
   14153 A    3539 TIP4 O1   OW0      0.000000       15.9990           
   14154 A    3539 TIP4 H1   HW0      0.679100        1.0080           
   14155 A    3539 TIP4 H2   HW0      0.679100        1.0080           
   14156 A    3539 TIP4 BD1  LP0     -1.358200        0.0000           
   14157 A    3540 TIP4 O1   OW0      0.000000       15.9990           
   14158 A    3540 TIP4 H1   HW0      0.679100        1.0080           
   14159 A    3540 TIP4 H2   HW0      0.679100        1.0080           
   14160 A    3540 TIP4 BD1  LP0     -1.358200        0.0000           
   14161 A    3541 TIP4 O1   OW0      0.000000       15.9990           
   14162 A    3541 TIP4 H1   HW0      0.679100        1.0080           
   14163 A    3541 TIP4 H2   HW0      0.679100        1.0080           
   14164 A    3541 TIP4 BD1  LP0     -1.358200        0.0000           
   14165 A    3542 TIP4 O1   OW0      0.000000       15.9990           
   14166 A    3542 TIP4 H1   HW0      0.679100        1.0080           
   14167 A    3542 TIP4 H2   HW0      0.679100        1.0080           
   14168 A    3542 TIP4 BD1  LP0     -1.358200        0.0000           
   14169 A    3543 TIP4 O1   OW0      0.000000       15.9990           
   14170 A    3543 TIP4 H1   HW0      0.679100        1.0080           
   14171 A    3543 TIP4 H2   HW0      0.679100        1.0080           
   14172 A    3543 TIP4 BD1  LP0     -1.358200        0.0000           
   14173 A    3544 TIP4 O1   OW0      0.000000       15.9990           
   14174 A    3544 TIP4 H1   HW0      0.679100        1.0080           
   14175 A    3544 TIP4 H2   HW0      0.679100        1.0080           
   14176 A    3544 TIP4 BD1  LP0     -1.358200        0.0000           
   14177 A    3545 TIP4 O1   OW0      0.000000       15.9990           
   14178 A    3545 TIP4 H1   HW0      0.679100        1.0080           
   14179 A    3545 TIP4 H2   HW0      0.679100        1.0080           
   14180 A    3545 TIP4 BD1  LP0     -1.358200        0.0000           
   14181 A    3546 TIP4 O1   OW0      0.000000       15.9990           
   14182 A    3546 TIP4 H1   HW0      0.679100        1.0080           
   14183 A    3546 TIP4 H2   HW0      0.679100        1.0080           
   14184 A    3546 TIP4 BD1  LP0     -1.358200        0.0000           
   14185 A    3547 TIP4 O1   OW0      0.000000       15.9990           
   14186 A    3547 TIP4 H1   HW0      0.679100        1.0080           
   14187 A    3547 TIP4 H2   HW0      0.679100        1.0080           
   14188 A    3547 TIP4 BD1  LP0     -1.358200        0.0000           
   14189 A    3548 TIP4 O1   OW0      0.000000       15.9990           
   14190 A    3548 TIP4 H1   HW0      0.679100        1.0080           
   14191 A    3548 TIP4 H2   HW0      0.679100        1.0080           
   14192 A    3548 TIP4 BD1  LP0     -1.358200        0.0000           
   14193 A    3549 TIP4 O1   OW0      0.000000       15.9990           
   14194 A    3549 TIP4 H1   HW0      0.679100        1.0080           
   14195 A    3549 TIP4 H2   HW0      0.679100        1.0080           
   14196 A    3549 TIP4 BD1  LP0     -1.358200        0.0000           
   14197 A    3550 TIP4 O1   OW0      0.000000       15.9990           
   14198 A    3550 TIP4 H1   HW0      0.679100        1.0080           
   14199 A    3550 TIP4 H2   HW0      0.679100        1.0080           
   14200 A    3550 TIP4 BD1  LP0     -1.358200        0.0000           
   14201 A    3551 TIP4 O1   OW0      0.000000       15.9990           
   14202 A    3551 TIP4 H1   HW0      0.679100        1.0080           
   14203 A    3551 TIP4 H2   HW0      0.679100        1.0080           
   14204 A    3551 TIP4 BD1  LP0     -1.358200        0.0000           
   14205 A    3552 TIP4 O1   OW0      0.000000       15.9990           
   14206 A    3552 TIP4 H1   HW0      0.679100        1.0080           
   14207 A    3552 TIP4 H2   HW0      0.679100        1.0080           
   14208 A    3552 TIP4 BD1  LP0     -1.358200        0.0000           
   14209 A    3553 TIP4 O1   OW0      0.000000       15.9990           
   14210 A    3553 TIP4 H1   HW0      0.679100        1.0080           
   14211 A    3553 TIP4 H2   HW0      0.679100        1.0080           
   14212 A    3553 TIP4 BD1  LP0     -1.358200        0.0000           
   14213 A    3554 TIP4 O1   OW0      0.000000       15.9990           
   14214 A    3554 TIP4 H1   HW0      0.679100        1.0080           
   14215 A    3554 TIP4 H2   HW0      0.679100        1.0080           
   14216 A    3554 TIP4 BD1  LP0     -1.358200        0.0000           
   14217 A    3555 TIP4 O1   OW0      0.000000       15.9990           
   14218 A    3555 TIP4 H1   HW0      0.679100        1.0080           
   14219 A    3555 TIP4 H2   HW0      0.679100        1.0080           
   14220 A    3555 TIP4 BD1  LP0     -1.358200        0.0000           
   14221 A    3556 TIP4 O1   OW0      0.000000       15.9990           
   14222 A    3556 TIP4 H1   HW0      0.679100        1.0080           
   14223 A    3556 TIP4 H2   HW0      0.679100        1.0080           
   14224 A    3556 TIP4 BD1  LP0     -1.358200        0.0000           
   14225 A    3557 TIP4 O1   OW0      0.000000       15.9990           
   14226 A    3557 TIP4 H1   HW0      0.679100        1.0080           
   14227 A    3557 TIP4 H2   HW0      0.679100        1.0080           
   14228 A    3557 TIP4 BD1  LP0     -1.358200        0.0000           
   14229 A    3558 TIP4 O1   OW0      0.000000       15.9990           
   14230 A    3558 TIP4 H1   HW0      0.679100        1.0080           
   14231 A    3558 TIP4 H2   HW0      0.679100        1.0080           
   14232 A    3558 TIP4 BD1  LP0     -1.358200        0.0000           
   14233 A    3559 TIP4 O1   OW0      0.000000       15.9990           
   14234 A    3559 TIP4 H1   HW0      0.679100        1.0080           
   14235 A    3559 TIP4 H2   HW0      0.679100        1.0080           
   14236 A    3559 TIP4 BD1  LP0     -1.358200        0.0000           
   14237 A    3560 TIP4 O1   OW0      0.000000       15.9990           
   14238 A    3560 TIP4 H1   HW0      0.679100        1.0080           
   14239 A    3560 TIP4 H2   HW0      0.679100        1.0080           
   14240 A    3560 TIP4 BD1  LP0     -1.358200        0.0000           
   14241 A    3561 TIP4 O1   OW0      0.000000       15.9990           
   14242 A    3561 TIP4 H1   HW0      0.679100        1.0080           
   14243 A    3561 TIP4 H2   HW0      0.679100        1.0080           
   14244 A    3561 TIP4 BD1  LP0     -1.358200        0.0000           
   14245 A    3562 TIP4 O1   OW0      0.000000       15.9990           
   14246 A    3562 TIP4 H1   HW0      0.679100        1.0080           
   14247 A    3562 TIP4 H2   HW0      0.679100        1.0080           
   14248 A    3562 TIP4 BD1  LP0     -1.358200        0.0000           
   14249 A    3563 TIP4 O1   OW0      0.000000       15.9990           
   14250 A    3563 TIP4 H1   HW0      0.679100        1.0080           
   14251 A    3563 TIP4 H2   HW0      0.679100        1.0080           
   14252 A    3563 TIP4 BD1  LP0     -1.358200        0.0000           
   14253 A    3564 TIP4 O1   OW0      0.000000       15.9990           
   14254 A    3564 TIP4 H1   HW0      0.679100        1.0080           
   14255 A    3564 TIP4 H2   HW0      0.679100        1.0080           
   14256 A    3564 TIP4 BD1  LP0     -1.358200        0.0000           
   14257 A    3565 TIP4 O1   OW0      0.000000       15.9990           
   14258 A    3565 TIP4 H1   HW0      0.679100        1.0080           
   14259 A    3565 TIP4 H2   HW0      0.679100        1.0080           
   14260 A    3565 TIP4 BD1  LP0     -1.358200        0.0000           
   14261 A    3566 TIP4 O1   OW0      0.000000       15.9990           
   14262 A    3566 TIP4 H1   HW0      0.679100        1.0080           
   14263 A    3566 TIP4 H2   HW0      0.679100        1.0080           
   14264 A    3566 TIP4 BD1  LP0     -1.358200        0.0000           
   14265 A    3567 TIP4 O1   OW0      0.000000       15.9990           
   14266 A    3567 TIP4 H1   HW0      0.679100        1.0080           
   14267 A    3567 TIP4 H2   HW0      0.679100        1.0080           
   14268 A    3567 TIP4 BD1  LP0     -1.358200        0.0000           
   14269 A    3568 TIP4 O1   OW0      0.000000       15.9990           
   14270 A    3568 TIP4 H1   HW0      0.679100        1.0080           
   14271 A    3568 TIP4 H2   HW0      0.679100        1.0080           
   14272 A    3568 TIP4 BD1  LP0     -1.358200        0.0000           
   14273 A    3569 TIP4 O1   OW0      0.000000       15.9990           
   14274 A    3569 TIP4 H1   HW0      0.679100        1.0080           
   14275 A    3569 TIP4 H2   HW0      0.679100        1.0080           
   14276 A    3569 TIP4 BD1  LP0     -1.358200        0.0000           
   14277 A    3570 TIP4 O1   OW0      0.000000       15.9990           
   14278 A    3570 TIP4 H1   HW0      0.679100        1.0080           
   14279 A    3570 TIP4 H2   HW0      0.679100        1.0080           
   14280 A    3570 TIP4 BD1  LP0     -1.358200        0.0000           
   14281 A    3571 TIP4 O1   OW0      0.000000       15.9990           
   14282 A    3571 TIP4 H1   HW0      0.679100        1.0080           
   14283 A    3571 TIP4 H2   HW0      0.679100        1.0080           
   14284 A    3571 TIP4 BD1  LP0     -1.358200        0.0000           
   14285 A    3572 TIP4 O1   OW0      0.000000       15.9990           
   14286 A    3572 TIP4 H1   HW0      0.679100        1.0080           
   14287 A    3572 TIP4 H2   HW0      0.679100        1.0080           
   14288 A    3572 TIP4 BD1  LP0     -1.358200        0.0000           
   14289 A    3573 TIP4 O1   OW0      0.000000       15.9990           
   14290 A    3573 TIP4 H1   HW0      0.679100        1.0080           
   14291 A    3573 TIP4 H2   HW0      0.679100        1.0080           
   14292 A    3573 TIP4 BD1  LP0     -1.358200        0.0000           
   14293 A    3574 TIP4 O1   OW0      0.000000       15.9990           
   14294 A    3574 TIP4 H1   HW0      0.679100        1.0080           
   14295 A    3574 TIP4 H2   HW0      0.679100        1.0080           
   14296 A    3574 TIP4 BD1  LP0     -1.358200        0.0000           
   14297 A    3575 TIP4 O1   OW0      0.000000       15.9990           
   14298 A    3575 TIP4 H1   HW0      0.679100        1.0080           
   14299 A    3575 TIP4 H2   HW0      0.679100        1.0080           
   14300 A    3575 TIP4 BD1  LP0     -1.358200        0.0000           
   14301 A    3576 TIP4 O1   OW0      0.000000       15.9990           
   14302 A    3576 TIP4 H1   HW0      0.679100        1.0080           
   14303 A    3576 TIP4 H2   HW0      0.679100        1.0080           
   14304 A    3576 TIP4 BD1  LP0     -1.358200        0.0000           
   14305 A    3577 TIP4 O1   OW0      0.000000       15.9990           
   14306 A    3577 TIP4 H1   HW0      0.679100        1.0080           
   14307 A    3577 TIP4 H2   HW0      0.679100        1.0080           
   14308 A    3577 TIP4 BD1  LP0     -1.358200        0.0000           
   14309 A    3578 TIP4 O1   OW0      0.000000       15.9990           
   14310 A    3578 TIP4 H1   HW0      0.679100        1.0080           
   14311 A    3578 TIP4 H2   HW0      0.679100        1.0080           
   14312 A    3578 TIP4 BD1  LP0     -1.358200        0.0000           
   14313 A    3579 TIP4 O1   OW0      0.000000       15.9990           
   14314 A    3579 TIP4 H1   HW0      0.679100        1.0080           
   14315 A    3579 TIP4 H2   HW0      0.679100        1.0080           
   14316 A    3579 TIP4 BD1  LP0     -1.358200        0.0000           
   14317 A    3580 TIP4 O1   OW0      0.000000       15.9990           
   14318 A    3580 TIP4 H1   HW0      0.679100        1.0080           
   14319 A    3580 TIP4 H2   HW0      0.679100        1.0080           
   14320 A    3580 TIP4 BD1  LP0     -1.358200        0.0000           
   14321 A    3581 TIP4 O1   OW0      0.000000       15.9990           
   14322 A    3581 TIP4 H1   HW0      0.679100        1.0080           
   14323 A    3581 TIP4 H2   HW0      0.679100        1.0080           
   14324 A    3581 TIP4 BD1  LP0     -1.358200        0.0000           
   14325 A    3582 TIP4 O1   OW0      0.000000       15.9990           
   14326 A    3582 TIP4 H1   HW0      0.679100        1.0080           
   14327 A    3582 TIP4 H2   HW0      0.679100        1.0080           
   14328 A    3582 TIP4 BD1  LP0     -1.358200        0.0000           
   14329 A    3583 TIP4 O1   OW0      0.000000       15.9990           
   14330 A    3583 TIP4 H1   HW0      0.679100        1.0080           
   14331 A    3583 TIP4 H2   HW0      0.679100        1.0080           
   14332 A    3583 TIP4 BD1  LP0     -1.358200        0.0000           
   14333 A    3584 TIP4 O1   OW0      0.000000       15.9990           
   14334 A    3584 TIP4 H1   HW0      0.679100        1.0080           
   14335 A    3584 TIP4 H2   HW0      0.679100        1.0080           
   14336 A    3584 TIP4 BD1  LP0     -1.358200        0.0000           
   14337 A    3585 TIP4 O1   OW0      0.000000       15.9990           
   14338 A    3585 TIP4 H1   HW0      0.679100        1.0080           
   14339 A    3585 TIP4 H2   HW0      0.679100        1.0080           
   14340 A    3585 TIP4 BD1  LP0     -1.358200        0.0000           
   14341 A    3586 TIP4 O1   OW0      0.000000       15.9990           
   14342 A    3586 TIP4 H1   HW0      0.679100        1.0080           
   14343 A    3586 TIP4 H2   HW0      0.679100        1.0080           
   14344 A    3586 TIP4 BD1  LP0     -1.358200        0.0000           
   14345 A    3587 TIP4 O1   OW0      0.000000       15.9990           
   14346 A    3587 TIP4 H1   HW0      0.679100        1.0080           
   14347 A    3587 TIP4 H2   HW0      0.679100        1.0080           
   14348 A    3587 TIP4 BD1  LP0     -1.358200        0.0000           
   14349 A    3588 TIP4 O1   OW0      0.000000       15.9990           
   14350 A    3588 TIP4 H1   HW0      0.679100        1.0080           
   14351 A    3588 TIP4 H2   HW0      0.679100        1.0080           
   14352 A    3588 TIP4 BD1  LP0     -1.358200        0.0000           
   14353 A    3589 TIP4 O1   OW0      0.000000       15.9990           
   14354 A    3589 TIP4 H1   HW0      0.679100        1.0080           
   14355 A    3589 TIP4 H2   HW0      0.679100        1.0080           
   14356 A    3589 TIP4 BD1  LP0     -1.358200        0.0000           
   14357 A    3590 TIP4 O1   OW0      0.000000       15.9990           
   14358 A    3590 TIP4 H1   HW0      0.679100        1.0080           
   14359 A    3590 TIP4 H2   HW0      0.679100        1.0080           
   14360 A    3590 TIP4 BD1  LP0     -1.358200        0.0000           
   14361 A    3591 TIP4 O1   OW0      0.000000       15.9990           
   14362 A    3591 TIP4 H1   HW0      0.679100        1.0080           
   14363 A    3591 TIP4 H2   HW0      0.679100        1.0080           
   14364 A    3591 TIP4 BD1  LP0     -1.358200        0.0000           
   14365 A    3592 TIP4 O1   OW0      0.000000       15.9990           
   14366 A    3592 TIP4 H1   HW0      0.679100        1.0080           
   14367 A    3592 TIP4 H2   HW0      0.679100        1.0080           
   14368 A    3592 TIP4 BD1  LP0     -1.358200        0.0000           
   14369 A    3593 TIP4 O1   OW0      0.000000       15.9990           
   14370 A    3593 TIP4 H1   HW0      0.679100        1.0080           
   14371 A    3593 TIP4 H2   HW0      0.679100        1.0080           
   14372 A    3593 TIP4 BD1  LP0     -1.358200        0.0000           
   14373 A    3594 TIP4 O1   OW0      0.000000       15.9990           
   14374 A    3594 TIP4 H1   HW0      0.679100        1.0080           
   14375 A    3594 TIP4 H2   HW0      0.679100        1.0080           
   14376 A    3594 TIP4 BD1  LP0     -1.358200        0.0000           
   14377 A    3595 TIP4 O1   OW0      0.000000       15.9990           
   14378 A    3595 TIP4 H1   HW0      0.679100        1.0080           
   14379 A    3595 TIP4 H2   HW0      0.679100        1.0080           
   14380 A    3595 TIP4 BD1  LP0     -1.358200        0.0000           
   14381 A    3596 TIP4 O1   OW0      0.000000       15.9990           
   14382 A    3596 TIP4 H1   HW0      0.679100        1.0080           
   14383 A    3596 TIP4 H2   HW0      0.679100        1.0080           
   14384 A    3596 TIP4 BD1  LP0     -1.358200        0.0000           
   14385 A    3597 TIP4 O1   OW0      0.000000       15.9990           
   14386 A    3597 TIP4 H1   HW0      0.679100        1.0080           
   14387 A    3597 TIP4 H2   HW0      0.679100        1.0080           
   14388 A    3597 TIP4 BD1  LP0     -1.358200        0.0000           
   14389 A    3598 TIP4 O1   OW0      0.000000       15.9990           
   14390 A    3598 TIP4 H1   HW0      0.679100        1.0080           
   14391 A    3598 TIP4 H2   HW0      0.679100        1.0080           
   14392 A    3598 TIP4 BD1  LP0     -1.358200        0.0000           
   14393 A    3599 TIP4 O1   OW0      0.000000       15.9990           
   14394 A    3599 TIP4 H1   HW0      0.679100        1.0080           
   14395 A    3599 TIP4 H2   HW0      0.679100        1.0080           
   14396 A    3599 TIP4 BD1  LP0     -1.358200        0.0000           
   14397 A    3600 TIP4 O1   OW0      0.000000       15.9990           
   14398 A    3600 TIP4 H1   HW0      0.679100        1.0080           
   14399 A    3600 TIP4 H2   HW0      0.679100        1.0080           
   14400 A    3600 TIP4 BD1  LP0     -1.358200        0.0000           
   14401 A    3601 TIP4 O1   OW0      0.000000       15.9990           
   14402 A    3601 TIP4 H1   HW0      0.679100        1.0080           
   14403 A    3601 TIP4 H2   HW0      0.679100        1.0080           
   14404 A    3601 TIP4 BD1  LP0     -1.358200        0.0000           
   14405 A    3602 TIP4 O1   OW0      0.000000       15.9990           
   14406 A    3602 TIP4 H1   HW0      0.679100        1.0080           
   14407 A    3602 TIP4 H2   HW0      0.679100        1.0080           
   14408 A    3602 TIP4 BD1  LP0     -1.358200        0.0000           
   14409 A    3603 TIP4 O1   OW0      0.000000       15.9990           
   14410 A    3603 TIP4 H1   HW0      0.679100        1.0080           
   14411 A    3603 TIP4 H2   HW0      0.679100        1.0080           
   14412 A    3603 TIP4 BD1  LP0     -1.358200        0.0000           
   14413 A    3604 TIP4 O1   OW0      0.000000       15.9990           
   14414 A    3604 TIP4 H1   HW0      0.679100        1.0080           
   14415 A    3604 TIP4 H2   HW0      0.679100        1.0080           
   14416 A    3604 TIP4 BD1  LP0     -1.358200        0.0000           
   14417 A    3605 TIP4 O1   OW0      0.000000       15.9990           
   14418 A    3605 TIP4 H1   HW0      0.679100        1.0080           
   14419 A    3605 TIP4 H2   HW0      0.679100        1.0080           
   14420 A    3605 TIP4 BD1  LP0     -1.358200        0.0000           
   14421 A    3606 TIP4 O1   OW0      0.000000       15.9990           
   14422 A    3606 TIP4 H1   HW0      0.679100        1.0080           
   14423 A    3606 TIP4 H2   HW0      0.679100        1.0080           
   14424 A    3606 TIP4 BD1  LP0     -1.358200        0.0000           
   14425 A    3607 TIP4 O1   OW0      0.000000       15.9990           
   14426 A    3607 TIP4 H1   HW0      0.679100        1.0080           
   14427 A    3607 TIP4 H2   HW0      0.679100        1.0080           
   14428 A    3607 TIP4 BD1  LP0     -1.358200        0.0000           
   14429 A    3608 TIP4 O1   OW0      0.000000       15.9990           
   14430 A    3608 TIP4 H1   HW0      0.679100        1.0080           
   14431 A    3608 TIP4 H2   HW0      0.679100        1.0080           
   14432 A    3608 TIP4 BD1  LP0     -1.358200        0.0000           
   14433 A    3609 TIP4 O1   OW0      0.000000       15.9990           
   14434 A    3609 TIP4 H1   HW0      0.679100        1.0080           
   14435 A    3609 TIP4 H2   HW0      0.679100        1.0080           
   14436 A    3609 TIP4 BD1  LP0     -1.358200        0.0000           
   14437 A    3610 TIP4 O1   OW0      0.000000       15.9990           
   14438 A    3610 TIP4 H1   HW0      0.679100        1.0080           
   14439 A    3610 TIP4 H2   HW0      0.679100        1.0080           
   14440 A    3610 TIP4 BD1  LP0     -1.358200        0.0000           
   14441 A    3611 TIP4 O1   OW0      0.000000       15.9990           
   14442 A    3611 TIP4 H1   HW0      0.679100        1.0080           
   14443 A    3611 TIP4 H2   HW0      0.679100        1.0080           
   14444 A    3611 TIP4 BD1  LP0     -1.358200        0.0000           
   14445 A    3612 TIP4 O1   OW0      0.000000       15.9990           
   14446 A    3612 TIP4 H1   HW0      0.679100        1.0080           
   14447 A    3612 TIP4 H2   HW0      0.679100        1.0080           
   14448 A    3612 TIP4 BD1  LP0     -1.358200        0.0000           
   14449 A    3613 TIP4 O1   OW0      0.000000       15.9990           
   14450 A    3613 TIP4 H1   HW0      0.679100        1.0080           
   14451 A    3613 TIP4 H2   HW0      0.679100        1.0080           
   14452 A    3613 TIP4 BD1  LP0     -1.358200        0.0000           
   14453 A    3614 TIP4 O1   OW0      0.000000       15.9990           
   14454 A    3614 TIP4 H1   HW0      0.679100        1.0080           
   14455 A    3614 TIP4 H2   HW0      0.679100        1.0080           
   14456 A    3614 TIP4 BD1  LP0     -1.358200        0.0000           
   14457 A    3615 TIP4 O1   OW0      0.000000       15.9990           
   14458 A    3615 TIP4 H1   HW0      0.679100        1.0080           
   14459 A    3615 TIP4 H2   HW0      0.679100        1.0080           
   14460 A    3615 TIP4 BD1  LP0     -1.358200        0.0000           
   14461 A    3616 TIP4 O1   OW0      0.000000       15.9990           
   14462 A    3616 TIP4 H1   HW0      0.679100        1.0080           
   14463 A    3616 TIP4 H2   HW0      0.679100        1.0080           
   14464 A    3616 TIP4 BD1  LP0     -1.358200        0.0000           
   14465 A    3617 TIP4 O1   OW0      0.000000       15.9990           
   14466 A    3617 TIP4 H1   HW0      0.679100        1.0080           
   14467 A    3617 TIP4 H2   HW0      0.679100        1.0080           
   14468 A    3617 TIP4 BD1  LP0     -1.358200        0.0000           
   14469 A    3618 TIP4 O1   OW0      0.000000       15.9990           
   14470 A    3618 TIP4 H1   HW0      0.679100        1.0080           
   14471 A    3618 TIP4 H2   HW0      0.679100        1.0080           
   14472 A    3618 TIP4 BD1  LP0     -1.358200        0.0000           
   14473 A    3619 TIP4 O1   OW0      0.000000       15.9990           
   14474 A    3619 TIP4 H1   HW0      0.679100        1.0080           
   14475 A    3619 TIP4 H2   HW0      0.679100        1.0080           
   14476 A    3619 TIP4 BD1  LP0     -1.358200        0.0000           
   14477 A    3620 TIP4 O1   OW0      0.000000       15.9990           
   14478 A    3620 TIP4 H1   HW0      0.679100        1.0080           
   14479 A    3620 TIP4 H2   HW0      0.679100        1.0080           
   14480 A    3620 TIP4 BD1  LP0     -1.358200        0.0000           
   14481 A    3621 TIP4 O1   OW0      0.000000       15.9990           
   14482 A    3621 TIP4 H1   HW0      0.679100        1.0080           
   14483 A    3621 TIP4 H2   HW0      0.679100        1.0080           
   14484 A    3621 TIP4 BD1  LP0     -1.358200        0.0000           
   14485 A    3622 TIP4 O1   OW0      0.000000       15.9990           
   14486 A    3622 TIP4 H1   HW0      0.679100        1.0080           
   14487 A    3622 TIP4 H2   HW0      0.679100        1.0080           
   14488 A    3622 TIP4 BD1  LP0     -1.358200        0.0000           
   14489 A    3623 TIP4 O1   OW0      0.000000       15.9990           
   14490 A    3623 TIP4 H1   HW0      0.679100        1.0080           
   14491 A    3623 TIP4 H2   HW0      0.679100        1.0080           
   14492 A    3623 TIP4 BD1  LP0     -1.358200        0.0000           
   14493 A    3624 TIP4 O1   OW0      0.000000       15.9990           
   14494 A    3624 TIP4 H1   HW0      0.679100        1.0080           
   14495 A    3624 TIP4 H2   HW0      0.679100        1.0080           
   14496 A    3624 TIP4 BD1  LP0     -1.358200        0.0000           
   14497 A    3625 TIP4 O1   OW0      0.000000       15.9990           
   14498 A    3625 TIP4 H1   HW0      0.679100        1.0080           
   14499 A    3625 TIP4 H2   HW0      0.679100        1.0080           
   14500 A    3625 TIP4 BD1  LP0     -1.358200        0.0000           
   14501 A    3626 TIP4 O1   OW0      0.000000       15.9990           
   14502 A    3626 TIP4 H1   HW0      0.679100        1.0080           
   14503 A    3626 TIP4 H2   HW0      0.679100        1.0080           
   14504 A    3626 TIP4 BD1  LP0     -1.358200        0.0000           
   14505 A    3627 TIP4 O1   OW0      0.000000       15.9990           
   14506 A    3627 TIP4 H1   HW0      0.679100        1.0080           
   14507 A    3627 TIP4 H2   HW0      0.679100        1.0080           
   14508 A    3627 TIP4 BD1  LP0     -1.358200        0.0000           
   14509 A    3628 TIP4 O1   OW0      0.000000       15.9990           
   14510 A    3628 TIP4 H1   HW0      0.679100        1.0080           
   14511 A    3628 TIP4 H2   HW0      0.679100        1.0080           
   14512 A    3628 TIP4 BD1  LP0     -1.358200        0.0000           
   14513 A    3629 TIP4 O1   OW0      0.000000       15.9990           
   14514 A    3629 TIP4 H1   HW0      0.679100        1.0080           
   14515 A    3629 TIP4 H2   HW0      0.679100        1.0080           
   14516 A    3629 TIP4 BD1  LP0     -1.358200        0.0000           
   14517 A    3630 TIP4 O1   OW0      0.000000       15.9990           
   14518 A    3630 TIP4 H1   HW0      0.679100        1.0080           
   14519 A    3630 TIP4 H2   HW0      0.679100        1.0080           
   14520 A    3630 TIP4 BD1  LP0     -1.358200        0.0000           
   14521 A    3631 TIP4 O1   OW0      0.000000       15.9990           
   14522 A    3631 TIP4 H1   HW0      0.679100        1.0080           
   14523 A    3631 TIP4 H2   HW0      0.679100        1.0080           
   14524 A    3631 TIP4 BD1  LP0     -1.358200        0.0000           
   14525 A    3632 TIP4 O1   OW0      0.000000       15.9990           
   14526 A    3632 TIP4 H1   HW0      0.679100        1.0080           
   14527 A    3632 TIP4 H2   HW0      0.679100        1.0080           
   14528 A    3632 TIP4 BD1  LP0     -1.358200        0.0000           
   14529 A    3633 TIP4 O1   OW0      0.000000       15.9990           
   14530 A    3633 TIP4 H1   HW0      0.679100        1.0080           
   14531 A    3633 TIP4 H2   HW0      0.679100        1.0080           
   14532 A    3633 TIP4 BD1  LP0     -1.358200        0.0000           
   14533 A    3634 TIP4 O1   OW0      0.000000       15.9990           
   14534 A    3634 TIP4 H1   HW0      0.679100        1.0080           
   14535 A    3634 TIP4 H2   HW0      0.679100        1.0080           
   14536 A    3634 TIP4 BD1  LP0     -1.358200        0.0000           
   14537 A    3635 TIP4 O1   OW0      0.000000       15.9990           
   14538 A    3635 TIP4 H1   HW0      0.679100        1.0080           
   14539 A    3635 TIP4 H2   HW0      0.679100        1.0080           
   14540 A    3635 TIP4 BD1  LP0     -1.358200        0.0000           
   14541 A    3636 TIP4 O1   OW0      0.000000       15.9990           
   14542 A    3636 TIP4 H1   HW0      0.679100        1.0080           
   14543 A    3636 TIP4 H2   HW0      0.679100        1.0080           
   14544 A    3636 TIP4 BD1  LP0     -1.358200        0.0000           
   14545 A    3637 TIP4 O1   OW0      0.000000       15.9990           
   14546 A    3637 TIP4 H1   HW0      0.679100        1.0080           
   14547 A    3637 TIP4 H2   HW0      0.679100        1.0080           
   14548 A    3637 TIP4 BD1  LP0     -1.358200        0.0000           
   14549 A    3638 TIP4 O1   OW0      0.000000       15.9990           
   14550 A    3638 TIP4 H1   HW0      0.679100        1.0080           
   14551 A    3638 TIP4 H2   HW0      0.679100        1.0080           
   14552 A    3638 TIP4 BD1  LP0     -1.358200        0.0000           
   14553 A    3639 TIP4 O1   OW0      0.000000       15.9990           
   14554 A    3639 TIP4 H1   HW0      0.679100        1.0080           
   14555 A    3639 TIP4 H2   HW0      0.679100        1.0080           
   14556 A    3639 TIP4 BD1  LP0     -1.358200        0.0000           
   14557 A    3640 TIP4 O1   OW0      0.000000       15.9990           
   14558 A    3640 TIP4 H1   HW0      0.679100        1.0080           
   14559 A    3640 TIP4 H2   HW0      0.679100        1.0080           
   14560 A    3640 TIP4 BD1  LP0     -1.358200        0.0000           
   14561 A    3641 TIP4 O1   OW0      0.000000       15.9990           
   14562 A    3641 TIP4 H1   HW0      0.679100        1.0080           
   14563 A    3641 TIP4 H2   HW0      0.679100        1.0080           
   14564 A    3641 TIP4 BD1  LP0     -1.358200        0.0000           
   14565 A    3642 TIP4 O1   OW0      0.000000       15.9990           
   14566 A    3642 TIP4 H1   HW0      0.679100        1.0080           
   14567 A    3642 TIP4 H2   HW0      0.679100        1.0080           
   14568 A    3642 TIP4 BD1  LP0     -1.358200        0.0000           
   14569 A    3643 TIP4 O1   OW0      0.000000       15.9990           
   14570 A    3643 TIP4 H1   HW0      0.679100        1.0080           
   14571 A    3643 TIP4 H2   HW0      0.679100        1.0080           
   14572 A    3643 TIP4 BD1  LP0     -1.358200        0.0000           
   14573 A    3644 TIP4 O1   OW0      0.000000       15.9990           
   14574 A    3644 TIP4 H1   HW0      0.679100        1.0080           
   14575 A    3644 TIP4 H2   HW0      0.679100        1.0080           
   14576 A    3644 TIP4 BD1  LP0     -1.358200        0.0000           
   14577 A    3645 TIP4 O1   OW0      0.000000       15.9990           
   14578 A    3645 TIP4 H1   HW0      0.679100        1.0080           
   14579 A    3645 TIP4 H2   HW0      0.679100        1.0080           
   14580 A    3645 TIP4 BD1  LP0     -1.358200        0.0000           
   14581 A    3646 TIP4 O1   OW0      0.000000       15.9990           
   14582 A    3646 TIP4 H1   HW0      0.679100        1.0080           
   14583 A    3646 TIP4 H2   HW0      0.679100        1.0080           
   14584 A    3646 TIP4 BD1  LP0     -1.358200        0.0000           
   14585 A    3647 TIP4 O1   OW0      0.000000       15.9990           
   14586 A    3647 TIP4 H1   HW0      0.679100        1.0080           
   14587 A    3647 TIP4 H2   HW0      0.679100        1.0080           
   14588 A    3647 TIP4 BD1  LP0     -1.358200        0.0000           
   14589 A    3648 TIP4 O1   OW0      0.000000       15.9990           
   14590 A    3648 TIP4 H1   HW0      0.679100        1.0080           
   14591 A    3648 TIP4 H2   HW0      0.679100        1.0080           
   14592 A    3648 TIP4 BD1  LP0     -1.358200        0.0000           
   14593 A    3649 TIP4 O1   OW0      0.000000       15.9990           
   14594 A    3649 TIP4 H1   HW0      0.679100        1.0080           
   14595 A    3649 TIP4 H2   HW0      0.679100        1.0080           
   14596 A    3649 TIP4 BD1  LP0     -1.358200        0.0000           
   14597 A    3650 TIP4 O1   OW0      0.000000       15.9990           
   14598 A    3650 TIP4 H1   HW0      0.679100        1.0080           
   14599 A    3650 TIP4 H2   HW0      0.679100        1.0080           
   14600 A    3650 TIP4 BD1  LP0     -1.358200        0.0000           
   14601 A    3651 TIP4 O1   OW0      0.000000       15.9990           
   14602 A    3651 TIP4 H1   HW0      0.679100        1.0080           
   14603 A    3651 TIP4 H2   HW0      0.679100        1.0080           
   14604 A    3651 TIP4 BD1  LP0     -1.358200        0.0000           
   14605 A    3652 TIP4 O1   OW0      0.000000       15.9990           
   14606 A    3652 TIP4 H1   HW0      0.679100        1.0080           
   14607 A    3652 TIP4 H2   HW0      0.679100        1.0080           
   14608 A    3652 TIP4 BD1  LP0     -1.358200        0.0000           
   14609 A    3653 TIP4 O1   OW0      0.000000       15.9990           
   14610 A    3653 TIP4 H1   HW0      0.679100        1.0080           
   14611 A    3653 TIP4 H2   HW0      0.679100        1.0080           
   14612 A    3653 TIP4 BD1  LP0     -1.358200        0.0000           
   14613 A    3654 TIP4 O1   OW0      0.000000       15.9990           
   14614 A    3654 TIP4 H1   HW0      0.679100        1.0080           
   14615 A    3654 TIP4 H2   HW0      0.679100        1.0080           
   14616 A    3654 TIP4 BD1  LP0     -1.358200        0.0000           
   14617 A    3655 TIP4 O1   OW0      0.000000       15.9990           
   14618 A    3655 TIP4 H1   HW0      0.679100        1.0080           
   14619 A    3655 TIP4 H2   HW0      0.679100        1.0080           
   14620 A    3655 TIP4 BD1  LP0     -1.358200        0.0000           
   14621 A    3656 TIP4 O1   OW0      0.000000       15.9990           
   14622 A    3656 TIP4 H1   HW0      0.679100        1.0080           
   14623 A    3656 TIP4 H2   HW0      0.679100        1.0080           
   14624 A    3656 TIP4 BD1  LP0     -1.358200        0.0000           
   14625 A    3657 TIP4 O1   OW0      0.000000       15.9990           
   14626 A    3657 TIP4 H1   HW0      0.679100        1.0080           
   14627 A    3657 TIP4 H2   HW0      0.679100        1.0080           
   14628 A    3657 TIP4 BD1  LP0     -1.358200        0.0000           
   14629 A    3658 TIP4 O1   OW0      0.000000       15.9990           
   14630 A    3658 TIP4 H1   HW0      0.679100        1.0080           
   14631 A    3658 TIP4 H2   HW0      0.679100        1.0080           
   14632 A    3658 TIP4 BD1  LP0     -1.358200        0.0000           
   14633 A    3659 TIP4 O1   OW0      0.000000       15.9990           
   14634 A    3659 TIP4 H1   HW0      0.679100        1.0080           
   14635 A    3659 TIP4 H2   HW0      0.679100        1.0080           
   14636 A    3659 TIP4 BD1  LP0     -1.358200        0.0000           
   14637 A    3660 TIP4 O1   OW0      0.000000       15.9990           
   14638 A    3660 TIP4 H1   HW0      0.679100        1.0080           
   14639 A    3660 TIP4 H2   HW0      0.679100        1.0080           
   14640 A    3660 TIP4 BD1  LP0     -1.358200        0.0000           
   14641 A    3661 TIP4 O1   OW0      0.000000       15.9990           
   14642 A    3661 TIP4 H1   HW0      0.679100        1.0080           
   14643 A    3661 TIP4 H2   HW0      0.679100        1.0080           
   14644 A    3661 TIP4 BD1  LP0     -1.358200        0.0000           
   14645 A    3662 TIP4 O1   OW0      0.000000       15.9990           
   14646 A    3662 TIP4 H1   HW0      0.679100        1.0080           
   14647 A    3662 TIP4 H2   HW0      0.679100        1.0080           
   14648 A    3662 TIP4 BD1  LP0     -1.358200        0.0000           
   14649 A    3663 TIP4 O1   OW0      0.000000       15.9990           
   14650 A    3663 TIP4 H1   HW0      0.679100        1.0080           
   14651 A    3663 TIP4 H2   HW0      0.679100        1.0080           
   14652 A    3663 TIP4 BD1  LP0     -1.358200        0.0000           
   14653 A    3664 TIP4 O1   OW0      0.000000       15.9990           
   14654 A    3664 TIP4 H1   HW0      0.679100        1.0080           
   14655 A    3664 TIP4 H2   HW0      0.679100        1.0080           
   14656 A    3664 TIP4 BD1  LP0     -1.358200        0.0000           
   14657 A    3665 TIP4 O1   OW0      0.000000       15.9990           
   14658 A    3665 TIP4 H1   HW0      0.679100        1.0080           
   14659 A    3665 TIP4 H2   HW0      0.679100        1.0080           
   14660 A    3665 TIP4 BD1  LP0     -1.358200        0.0000           
   14661 A    3666 TIP4 O1   OW0      0.000000       15.9990           
   14662 A    3666 TIP4 H1   HW0      0.679100        1.0080           
   14663 A    3666 TIP4 H2   HW0      0.679100        1.0080           
   14664 A    3666 TIP4 BD1  LP0     -1.358200        0.0000           
   14665 A    3667 TIP4 O1   OW0      0.000000       15.9990           
   14666 A    3667 TIP4 H1   HW0      0.679100        1.0080           
   14667 A    3667 TIP4 H2   HW0      0.679100        1.0080           
   14668 A    3667 TIP4 BD1  LP0     -1.358200        0.0000           
   14669 A    3668 TIP4 O1   OW0      0.000000       15.9990           
   14670 A    3668 TIP4 H1   HW0      0.679100        1.0080           
   14671 A    3668 TIP4 H2   HW0      0.679100        1.0080           
   14672 A    3668 TIP4 BD1  LP0     -1.358200        0.0000           
   14673 A    3669 TIP4 O1   OW0      0.000000       15.9990           
   14674 A    3669 TIP4 H1   HW0      0.679100        1.0080           
   14675 A    3669 TIP4 H2   HW0      0.679100        1.0080           
   14676 A    3669 TIP4 BD1  LP0     -1.358200        0.0000           
   14677 A    3670 TIP4 O1   OW0      0.000000       15.9990           
   14678 A    3670 TIP4 H1   HW0      0.679100        1.0080           
   14679 A    3670 TIP4 H2   HW0      0.679100        1.0080           
   14680 A    3670 TIP4 BD1  LP0     -1.358200        0.0000           
   14681 A    3671 TIP4 O1   OW0      0.000000       15.9990           
   14682 A    3671 TIP4 H1   HW0      0.679100        1.0080           
   14683 A    3671 TIP4 H2   HW0      0.679100        1.0080           
   14684 A    3671 TIP4 BD1  LP0     -1.358200        0.0000           
   14685 A    3672 TIP4 O1   OW0      0.000000       15.9990           
   14686 A    3672 TIP4 H1   HW0      0.679100        1.0080           
   14687 A    3672 TIP4 H2   HW0      0.679100        1.0080           
   14688 A    3672 TIP4 BD1  LP0     -1.358200        0.0000           
   14689 A    3673 TIP4 O1   OW0      0.000000       15.9990           
   14690 A    3673 TIP4 H1   HW0      0.679100        1.0080           
   14691 A    3673 TIP4 H2   HW0      0.679100        1.0080           
   14692 A    3673 TIP4 BD1  LP0     -1.358200        0.0000           
   14693 A    3674 TIP4 O1   OW0      0.000000       15.9990           
   14694 A    3674 TIP4 H1   HW0      0.679100        1.0080           
   14695 A    3674 TIP4 H2   HW0      0.679100        1.0080           
   14696 A    3674 TIP4 BD1  LP0     -1.358200        0.0000           
   14697 A    3675 TIP4 O1   OW0      0.000000       15.9990           
   14698 A    3675 TIP4 H1   HW0      0.679100        1.0080           
   14699 A    3675 TIP4 H2   HW0      0.679100        1.0080           
   14700 A    3675 TIP4 BD1  LP0     -1.358200        0.0000           
   14701 A    3676 TIP4 O1   OW0      0.000000       15.9990           
   14702 A    3676 TIP4 H1   HW0      0.679100        1.0080           
   14703 A    3676 TIP4 H2   HW0      0.679100        1.0080           
   14704 A    3676 TIP4 BD1  LP0     -1.358200        0.0000           
   14705 A    3677 TIP4 O1   OW0      0.000000       15.9990           
   14706 A    3677 TIP4 H1   HW0      0.679100        1.0080           
   14707 A    3677 TIP4 H2   HW0      0.679100        1.0080           
   14708 A    3677 TIP4 BD1  LP0     -1.358200        0.0000           
   14709 A    3678 TIP4 O1   OW0      0.000000       15.9990           
   14710 A    3678 TIP4 H1   HW0      0.679100        1.0080           
   14711 A    3678 TIP4 H2   HW0      0.679100        1.0080           
   14712 A    3678 TIP4 BD1  LP0     -1.358200        0.0000           
   14713 A    3679 TIP4 O1   OW0      0.000000       15.9990           
   14714 A    3679 TIP4 H1   HW0      0.679100        1.0080           
   14715 A    3679 TIP4 H2   HW0      0.679100        1.0080           
   14716 A    3679 TIP4 BD1  LP0     -1.358200        0.0000           
   14717 A    3680 TIP4 O1   OW0      0.000000       15.9990           
   14718 A    3680 TIP4 H1   HW0      0.679100        1.0080           
   14719 A    3680 TIP4 H2   HW0      0.679100        1.0080           
   14720 A    3680 TIP4 BD1  LP0     -1.358200        0.0000           
   14721 A    3681 TIP4 O1   OW0      0.000000       15.9990           
   14722 A    3681 TIP4 H1   HW0      0.679100        1.0080           
   14723 A    3681 TIP4 H2   HW0      0.679100        1.0080           
   14724 A    3681 TIP4 BD1  LP0     -1.358200        0.0000           
   14725 A    3682 TIP4 O1   OW0      0.000000       15.9990           
   14726 A    3682 TIP4 H1   HW0      0.679100        1.0080           
   14727 A    3682 TIP4 H2   HW0      0.679100        1.0080           
   14728 A    3682 TIP4 BD1  LP0     -1.358200        0.0000           
   14729 A    3683 TIP4 O1   OW0      0.000000       15.9990           
   14730 A    3683 TIP4 H1   HW0      0.679100        1.0080           
   14731 A    3683 TIP4 H2   HW0      0.679100        1.0080           
   14732 A    3683 TIP4 BD1  LP0     -1.358200        0.0000           
   14733 A    3684 TIP4 O1   OW0      0.000000       15.9990           
   14734 A    3684 TIP4 H1   HW0      0.679100        1.0080           
   14735 A    3684 TIP4 H2   HW0      0.679100        1.0080           
   14736 A    3684 TIP4 BD1  LP0     -1.358200        0.0000           
   14737 A    3685 TIP4 O1   OW0      0.000000       15.9990           
   14738 A    3685 TIP4 H1   HW0      0.679100        1.0080           
   14739 A    3685 TIP4 H2   HW0      0.679100        1.0080           
   14740 A    3685 TIP4 BD1  LP0     -1.358200        0.0000           
   14741 A    3686 TIP4 O1   OW0      0.000000       15.9990           
   14742 A    3686 TIP4 H1   HW0      0.679100        1.0080           
   14743 A    3686 TIP4 H2   HW0      0.679100        1.0080           
   14744 A    3686 TIP4 BD1  LP0     -1.358200        0.0000           
   14745 A    3687 TIP4 O1   OW0      0.000000       15.9990           
   14746 A    3687 TIP4 H1   HW0      0.679100        1.0080           
   14747 A    3687 TIP4 H2   HW0      0.679100        1.0080           
   14748 A    3687 TIP4 BD1  LP0     -1.358200        0.0000           
   14749 A    3688 TIP4 O1   OW0      0.000000       15.9990           
   14750 A    3688 TIP4 H1   HW0      0.679100        1.0080           
   14751 A    3688 TIP4 H2   HW0      0.679100        1.0080           
   14752 A    3688 TIP4 BD1  LP0     -1.358200        0.0000           
   14753 A    3689 TIP4 O1   OW0      0.000000       15.9990           
   14754 A    3689 TIP4 H1   HW0      0.679100        1.0080           
   14755 A    3689 TIP4 H2   HW0      0.679100        1.0080           
   14756 A    3689 TIP4 BD1  LP0     -1.358200        0.0000           
   14757 A    3690 TIP4 O1   OW0      0.000000       15.9990           
   14758 A    3690 TIP4 H1   HW0      0.679100        1.0080           
   14759 A    3690 TIP4 H2   HW0      0.679100        1.0080           
   14760 A    3690 TIP4 BD1  LP0     -1.358200        0.0000           
   14761 A    3691 TIP4 O1   OW0      0.000000       15.9990           
   14762 A    3691 TIP4 H1   HW0      0.679100        1.0080           
   14763 A    3691 TIP4 H2   HW0      0.679100        1.0080           
   14764 A    3691 TIP4 BD1  LP0     -1.358200        0.0000           
   14765 A    3692 TIP4 O1   OW0      0.000000       15.9990           
   14766 A    3692 TIP4 H1   HW0      0.679100        1.0080           
   14767 A    3692 TIP4 H2   HW0      0.679100        1.0080           
   14768 A    3692 TIP4 BD1  LP0     -1.358200        0.0000           
   14769 A    3693 TIP4 O1   OW0      0.000000       15.9990           
   14770 A    3693 TIP4 H1   HW0      0.679100        1.0080           
   14771 A    3693 TIP4 H2   HW0      0.679100        1.0080           
   14772 A    3693 TIP4 BD1  LP0     -1.358200        0.0000           
   14773 A    3694 TIP4 O1   OW0      0.000000       15.9990           
   14774 A    3694 TIP4 H1   HW0      0.679100        1.0080           
   14775 A    3694 TIP4 H2   HW0      0.679100        1.0080           
   14776 A    3694 TIP4 BD1  LP0     -1.358200        0.0000           
   14777 A    3695 TIP4 O1   OW0      0.000000       15.9990           
   14778 A    3695 TIP4 H1   HW0      0.679100        1.0080           
   14779 A    3695 TIP4 H2   HW0      0.679100        1.0080           
   14780 A    3695 TIP4 BD1  LP0     -1.358200        0.0000           
   14781 A    3696 TIP4 O1   OW0      0.000000       15.9990           
   14782 A    3696 TIP4 H1   HW0      0.679100        1.0080           
   14783 A    3696 TIP4 H2   HW0      0.679100        1.0080           
   14784 A    3696 TIP4 BD1  LP0     -1.358200        0.0000           
   14785 A    3697 TIP4 O1   OW0      0.000000       15.9990           
   14786 A    3697 TIP4 H1   HW0      0.679100        1.0080           
   14787 A    3697 TIP4 H2   HW0      0.679100        1.0080           
   14788 A    3697 TIP4 BD1  LP0     -1.358200        0.0000           
   14789 A    3698 TIP4 O1   OW0      0.000000       15.9990           
   14790 A    3698 TIP4 H1   HW0      0.679100        1.0080           
   14791 A    3698 TIP4 H2   HW0      0.679100        1.0080           
   14792 A    3698 TIP4 BD1  LP0     -1.358200        0.0000           
   14793 A    3699 TIP4 O1   OW0      0.000000       15.9990           
   14794 A    3699 TIP4 H1   HW0      0.679100        1.0080           
   14795 A    3699 TIP4 H2   HW0      0.679100        1.0080           
   14796 A    3699 TIP4 BD1  LP0     -1.358200        0.0000           
   14797 A    3700 TIP4 O1   OW0      0.000000       15.9990           
   14798 A    3700 TIP4 H1   HW0      0.679100        1.0080           
   14799 A    3700 TIP4 H2   HW0      0.679100        1.0080           
   14800 A    3700 TIP4 BD1  LP0     -1.358200        0.0000           
   14801 A    3701 TIP4 O1   OW0      0.000000       15.9990           
   14802 A    3701 TIP4 H1   HW0      0.679100        1.0080           
   14803 A    3701 TIP4 H2   HW0      0.679100        1.0080           
   14804 A    3701 TIP4 BD1  LP0     -1.358200        0.0000           
   14805 A    3702 TIP4 O1   OW0      0.000000       15.9990           
   14806 A    3702 TIP4 H1   HW0      0.679100        1.0080           
   14807 A    3702 TIP4 H2   HW0      0.679100        1.0080           
   14808 A    3702 TIP4 BD1  LP0     -1.358200        0.0000           
   14809 A    3703 TIP4 O1   OW0      0.000000       15.9990           
   14810 A    3703 TIP4 H1   HW0      0.679100        1.0080           
   14811 A    3703 TIP4 H2   HW0      0.679100        1.0080           
   14812 A    3703 TIP4 BD1  LP0     -1.358200        0.0000           
   14813 A    3704 TIP4 O1   OW0      0.000000       15.9990           
   14814 A    3704 TIP4 H1   HW0      0.679100        1.0080           
   14815 A    3704 TIP4 H2   HW0      0.679100        1.0080           
   14816 A    3704 TIP4 BD1  LP0     -1.358200        0.0000           
   14817 A    3705 TIP4 O1   OW0      0.000000       15.9990           
   14818 A    3705 TIP4 H1   HW0      0.679100        1.0080           
   14819 A    3705 TIP4 H2   HW0      0.679100        1.0080           
   14820 A    3705 TIP4 BD1  LP0     -1.358200        0.0000           
   14821 A    3706 TIP4 O1   OW0      0.000000       15.9990           
   14822 A    3706 TIP4 H1   HW0      0.679100        1.0080           
   14823 A    3706 TIP4 H2   HW0      0.679100        1.0080           
   14824 A    3706 TIP4 BD1  LP0     -1.358200        0.0000           
   14825 A    3707 TIP4 O1   OW0      0.000000       15.9990           
   14826 A    3707 TIP4 H1   HW0      0.679100        1.0080           
   14827 A    3707 TIP4 H2   HW0      0.679100        1.0080           
   14828 A    3707 TIP4 BD1  LP0     -1.358200        0.0000           
   14829 A    3708 TIP4 O1   OW0      0.000000       15.9990           
   14830 A    3708 TIP4 H1   HW0      0.679100        1.0080           
   14831 A    3708 TIP4 H2   HW0      0.679100        1.0080           
   14832 A    3708 TIP4 BD1  LP0     -1.358200        0.0000           
   14833 A    3709 TIP4 O1   OW0      0.000000       15.9990           
   14834 A    3709 TIP4 H1   HW0      0.679100        1.0080           
   14835 A    3709 TIP4 H2   HW0      0.679100        1.0080           
   14836 A    3709 TIP4 BD1  LP0     -1.358200        0.0000           
   14837 A    3710 TIP4 O1   OW0      0.000000       15.9990           
   14838 A    3710 TIP4 H1   HW0      0.679100        1.0080           
   14839 A    3710 TIP4 H2   HW0      0.679100        1.0080           
   14840 A    3710 TIP4 BD1  LP0     -1.358200        0.0000           
   14841 A    3711 TIP4 O1   OW0      0.000000       15.9990           
   14842 A    3711 TIP4 H1   HW0      0.679100        1.0080           
   14843 A    3711 TIP4 H2   HW0      0.679100        1.0080           
   14844 A    3711 TIP4 BD1  LP0     -1.358200        0.0000           
   14845 A    3712 TIP4 O1   OW0      0.000000       15.9990           
   14846 A    3712 TIP4 H1   HW0      0.679100        1.0080           
   14847 A    3712 TIP4 H2   HW0      0.679100        1.0080           
   14848 A    3712 TIP4 BD1  LP0     -1.358200        0.0000           
   14849 A    3713 TIP4 O1   OW0      0.000000       15.9990           
   14850 A    3713 TIP4 H1   HW0      0.679100        1.0080           
   14851 A    3713 TIP4 H2   HW0      0.679100        1.0080           
   14852 A    3713 TIP4 BD1  LP0     -1.358200        0.0000           
   14853 A    3714 TIP4 O1   OW0      0.000000       15.9990           
   14854 A    3714 TIP4 H1   HW0      0.679100        1.0080           
   14855 A    3714 TIP4 H2   HW0      0.679100        1.0080           
   14856 A    3714 TIP4 BD1  LP0     -1.358200        0.0000           
   14857 A    3715 TIP4 O1   OW0      0.000000       15.9990           
   14858 A    3715 TIP4 H1   HW0      0.679100        1.0080           
   14859 A    3715 TIP4 H2   HW0      0.679100        1.0080           
   14860 A    3715 TIP4 BD1  LP0     -1.358200        0.0000           
   14861 A    3716 TIP4 O1   OW0      0.000000       15.9990           
   14862 A    3716 TIP4 H1   HW0      0.679100        1.0080           
   14863 A    3716 TIP4 H2   HW0      0.679100        1.0080           
   14864 A    3716 TIP4 BD1  LP0     -1.358200        0.0000           
   14865 A    3717 TIP4 O1   OW0      0.000000       15.9990           
   14866 A    3717 TIP4 H1   HW0      0.679100        1.0080           
   14867 A    3717 TIP4 H2   HW0      0.679100        1.0080           
   14868 A    3717 TIP4 BD1  LP0     -1.358200        0.0000           
   14869 A    3718 TIP4 O1   OW0      0.000000       15.9990           
   14870 A    3718 TIP4 H1   HW0      0.679100        1.0080           
   14871 A    3718 TIP4 H2   HW0      0.679100        1.0080           
   14872 A    3718 TIP4 BD1  LP0     -1.358200        0.0000           
   14873 A    3719 TIP4 O1   OW0      0.000000       15.9990           
   14874 A    3719 TIP4 H1   HW0      0.679100        1.0080           
   14875 A    3719 TIP4 H2   HW0      0.679100        1.0080           
   14876 A    3719 TIP4 BD1  LP0     -1.358200        0.0000           
   14877 A    3720 TIP4 O1   OW0      0.000000       15.9990           
   14878 A    3720 TIP4 H1   HW0      0.679100        1.0080           
   14879 A    3720 TIP4 H2   HW0      0.679100        1.0080           
   14880 A    3720 TIP4 BD1  LP0     -1.358200        0.0000           
   14881 A    3721 TIP4 O1   OW0      0.000000       15.9990           
   14882 A    3721 TIP4 H1   HW0      0.679100        1.0080           
   14883 A    3721 TIP4 H2   HW0      0.679100        1.0080           
   14884 A    3721 TIP4 BD1  LP0     -1.358200        0.0000           
   14885 A    3722 TIP4 O1   OW0      0.000000       15.9990           
   14886 A    3722 TIP4 H1   HW0      0.679100        1.0080           
   14887 A    3722 TIP4 H2   HW0      0.679100        1.0080           
   14888 A    3722 TIP4 BD1  LP0     -1.358200        0.0000           
   14889 A    3723 TIP4 O1   OW0      0.000000       15.9990           
   14890 A    3723 TIP4 H1   HW0      0.679100        1.0080           
   14891 A    3723 TIP4 H2   HW0      0.679100        1.0080           
   14892 A    3723 TIP4 BD1  LP0     -1.358200        0.0000           
   14893 A    3724 TIP4 O1   OW0      0.000000       15.9990           
   14894 A    3724 TIP4 H1   HW0      0.679100        1.0080           
   14895 A    3724 TIP4 H2   HW0      0.679100        1.0080           
   14896 A    3724 TIP4 BD1  LP0     -1.358200        0.0000           
   14897 A    3725 TIP4 O1   OW0      0.000000       15.9990           
   14898 A    3725 TIP4 H1   HW0      0.679100        1.0080           
   14899 A    3725 TIP4 H2   HW0      0.679100        1.0080           
   14900 A    3725 TIP4 BD1  LP0     -1.358200        0.0000           
   14901 A    3726 TIP4 O1   OW0      0.000000       15.9990           
   14902 A    3726 TIP4 H1   HW0      0.679100        1.0080           
   14903 A    3726 TIP4 H2   HW0      0.679100        1.0080           
   14904 A    3726 TIP4 BD1  LP0     -1.358200        0.0000           
   14905 A    3727 TIP4 O1   OW0      0.000000       15.9990           
   14906 A    3727 TIP4 H1   HW0      0.679100        1.0080           
   14907 A    3727 TIP4 H2   HW0      0.679100        1.0080           
   14908 A    3727 TIP4 BD1  LP0     -1.358200        0.0000           
   14909 A    3728 TIP4 O1   OW0      0.000000       15.9990           
   14910 A    3728 TIP4 H1   HW0      0.679100        1.0080           
   14911 A    3728 TIP4 H2   HW0      0.679100        1.0080           
   14912 A    3728 TIP4 BD1  LP0     -1.358200        0.0000           
   14913 A    3729 TIP4 O1   OW0      0.000000       15.9990           
   14914 A    3729 TIP4 H1   HW0      0.679100        1.0080           
   14915 A    3729 TIP4 H2   HW0      0.679100        1.0080           
   14916 A    3729 TIP4 BD1  LP0     -1.358200        0.0000           
   14917 A    3730 TIP4 O1   OW0      0.000000       15.9990           
   14918 A    3730 TIP4 H1   HW0      0.679100        1.0080           
   14919 A    3730 TIP4 H2   HW0      0.679100        1.0080           
   14920 A    3730 TIP4 BD1  LP0     -1.358200        0.0000           
   14921 A    3731 TIP4 O1   OW0      0.000000       15.9990           
   14922 A    3731 TIP4 H1   HW0      0.679100        1.0080           
   14923 A    3731 TIP4 H2   HW0      0.679100        1.0080           
   14924 A    3731 TIP4 BD1  LP0     -1.358200        0.0000           
   14925 A    3732 TIP4 O1   OW0      0.000000       15.9990           
   14926 A    3732 TIP4 H1   HW0      0.679100        1.0080           
   14927 A    3732 TIP4 H2   HW0      0.679100        1.0080           
   14928 A    3732 TIP4 BD1  LP0     -1.358200        0.0000           
   14929 A    3733 TIP4 O1   OW0      0.000000       15.9990           
   14930 A    3733 TIP4 H1   HW0      0.679100        1.0080           
   14931 A    3733 TIP4 H2   HW0      0.679100        1.0080           
   14932 A    3733 TIP4 BD1  LP0     -1.358200        0.0000           
   14933 A    3734 TIP4 O1   OW0      0.000000       15.9990           
   14934 A    3734 TIP4 H1   HW0      0.679100        1.0080           
   14935 A    3734 TIP4 H2   HW0      0.679100        1.0080           
   14936 A    3734 TIP4 BD1  LP0     -1.358200        0.0000           
   14937 A    3735 TIP4 O1   OW0      0.000000       15.9990           
   14938 A    3735 TIP4 H1   HW0      0.679100        1.0080           
   14939 A    3735 TIP4 H2   HW0      0.679100        1.0080           
   14940 A    3735 TIP4 BD1  LP0     -1.358200        0.0000           
   14941 A    3736 TIP4 O1   OW0      0.000000       15.9990           
   14942 A    3736 TIP4 H1   HW0      0.679100        1.0080           
   14943 A    3736 TIP4 H2   HW0      0.679100        1.0080           
   14944 A    3736 TIP4 BD1  LP0     -1.358200        0.0000           
   14945 A    3737 TIP4 O1   OW0      0.000000       15.9990           
   14946 A    3737 TIP4 H1   HW0      0.679100        1.0080           
   14947 A    3737 TIP4 H2   HW0      0.679100        1.0080           
   14948 A    3737 TIP4 BD1  LP0     -1.358200        0.0000           
   14949 A    3738 TIP4 O1   OW0      0.000000       15.9990           
   14950 A    3738 TIP4 H1   HW0      0.679100        1.0080           
   14951 A    3738 TIP4 H2   HW0      0.679100        1.0080           
   14952 A    3738 TIP4 BD1  LP0     -1.358200        0.0000           
   14953 A    3739 TIP4 O1   OW0      0.000000       15.9990           
   14954 A    3739 TIP4 H1   HW0      0.679100        1.0080           
   14955 A    3739 TIP4 H2   HW0      0.679100        1.0080           
   14956 A    3739 TIP4 BD1  LP0     -1.358200        0.0000           
   14957 A    3740 TIP4 O1   OW0      0.000000       15.9990           
   14958 A    3740 TIP4 H1   HW0      0.679100        1.0080           
   14959 A    3740 TIP4 H2   HW0      0.679100        1.0080           
   14960 A    3740 TIP4 BD1  LP0     -1.358200        0.0000           
   14961 A    3741 TIP4 O1   OW0      0.000000       15.9990           
   14962 A    3741 TIP4 H1   HW0      0.679100        1.0080           
   14963 A    3741 TIP4 H2   HW0      0.679100        1.0080           
   14964 A    3741 TIP4 BD1  LP0     -1.358200        0.0000           
   14965 A    3742 TIP4 O1   OW0      0.000000       15.9990           
   14966 A    3742 TIP4 H1   HW0      0.679100        1.0080           
   14967 A    3742 TIP4 H2   HW0      0.679100        1.0080           
   14968 A    3742 TIP4 BD1  LP0     -1.358200        0.0000           
   14969 A    3743 TIP4 O1   OW0      0.000000       15.9990           
   14970 A    3743 TIP4 H1   HW0      0.679100        1.0080           
   14971 A    3743 TIP4 H2   HW0      0.679100        1.0080           
   14972 A    3743 TIP4 BD1  LP0     -1.358200        0.0000           
   14973 A    3744 TIP4 O1   OW0      0.000000       15.9990           
   14974 A    3744 TIP4 H1   HW0      0.679100        1.0080           
   14975 A    3744 TIP4 H2   HW0      0.679100        1.0080           
   14976 A    3744 TIP4 BD1  LP0     -1.358200        0.0000           
   14977 A    3745 TIP4 O1   OW0      0.000000       15.9990           
   14978 A    3745 TIP4 H1   HW0      0.679100        1.0080           
   14979 A    3745 TIP4 H2   HW0      0.679100        1.0080           
   14980 A    3745 TIP4 BD1  LP0     -1.358200        0.0000           
   14981 A    3746 TIP4 O1   OW0      0.000000       15.9990           
   14982 A    3746 TIP4 H1   HW0      0.679100        1.0080           
   14983 A    3746 TIP4 H2   HW0      0.679100        1.0080           
   14984 A    3746 TIP4 BD1  LP0     -1.358200        0.0000           
   14985 A    3747 TIP4 O1   OW0      0.000000       15.9990           
   14986 A    3747 TIP4 H1   HW0      0.679100        1.0080           
   14987 A    3747 TIP4 H2   HW0      0.679100        1.0080           
   14988 A    3747 TIP4 BD1  LP0     -1.358200        0.0000           
   14989 A    3748 TIP4 O1   OW0      0.000000       15.9990           
   14990 A    3748 TIP4 H1   HW0      0.679100        1.0080           
   14991 A    3748 TIP4 H2   HW0      0.679100        1.0080           
   14992 A    3748 TIP4 BD1  LP0     -1.358200        0.0000           
   14993 A    3749 TIP4 O1   OW0      0.000000       15.9990           
   14994 A    3749 TIP4 H1   HW0      0.679100        1.0080           
   14995 A    3749 TIP4 H2   HW0      0.679100        1.0080           
   14996 A    3749 TIP4 BD1  LP0     -1.358200        0.0000           
   14997 A    3750 TIP4 O1   OW0      0.000000       15.9990           
   14998 A    3750 TIP4 H1   HW0      0.679100        1.0080           
   14999 A    3750 TIP4 H2   HW0      0.679100        1.0080           
   15000 A    3750 TIP4 BD1  LP0     -1.358200        0.0000           
   15001 A    3751 TIP4 O1   OW0      0.000000       15.9990           
   15002 A    3751 TIP4 H1   HW0      0.679100        1.0080           
   15003 A    3751 TIP4 H2   HW0      0.679100        1.0080           
   15004 A    3751 TIP4 BD1  LP0     -1.358200        0.0000           
   15005 A    3752 TIP4 O1   OW0      0.000000       15.9990           
   15006 A    3752 TIP4 H1   HW0      0.679100        1.0080           
   15007 A    3752 TIP4 H2   HW0      0.679100        1.0080           
   15008 A    3752 TIP4 BD1  LP0     -1.358200        0.0000           
   15009 A    3753 TIP4 O1   OW0      0.000000       15.9990           
   15010 A    3753 TIP4 H1   HW0      0.679100        1.0080           
   15011 A    3753 TIP4 H2   HW0      0.679100        1.0080           
   15012 A    3753 TIP4 BD1  LP0     -1.358200        0.0000           
   15013 A    3754 TIP4 O1   OW0      0.000000       15.9990           
   15014 A    3754 TIP4 H1   HW0      0.679100        1.0080           
   15015 A    3754 TIP4 H2   HW0      0.679100        1.0080           
   15016 A    3754 TIP4 BD1  LP0     -1.358200        0.0000           
   15017 A    3755 TIP4 O1   OW0      0.000000       15.9990           
   15018 A    3755 TIP4 H1   HW0      0.679100        1.0080           
   15019 A    3755 TIP4 H2   HW0      0.679100        1.0080           
   15020 A    3755 TIP4 BD1  LP0     -1.358200        0.0000           
   15021 A    3756 TIP4 O1   OW0      0.000000       15.9990           
   15022 A    3756 TIP4 H1   HW0      0.679100        1.0080           
   15023 A    3756 TIP4 H2   HW0      0.679100        1.0080           
   15024 A    3756 TIP4 BD1  LP0     -1.358200        0.0000           
   15025 A    3757 TIP4 O1   OW0      0.000000       15.9990           
   15026 A    3757 TIP4 H1   HW0      0.679100        1.0080           
   15027 A    3757 TIP4 H2   HW0      0.679100        1.0080           
   15028 A    3757 TIP4 BD1  LP0     -1.358200        0.0000           
   15029 A    3758 TIP4 O1   OW0      0.000000       15.9990           
   15030 A    3758 TIP4 H1   HW0      0.679100        1.0080           
   15031 A    3758 TIP4 H2   HW0      0.679100        1.0080           
   15032 A    3758 TIP4 BD1  LP0     -1.358200        0.0000           
   15033 A    3759 TIP4 O1   OW0      0.000000       15.9990           
   15034 A    3759 TIP4 H1   HW0      0.679100        1.0080           
   15035 A    3759 TIP4 H2   HW0      0.679100        1.0080           
   15036 A    3759 TIP4 BD1  LP0     -1.358200        0.0000           
   15037 A    3760 TIP4 O1   OW0      0.000000       15.9990           
   15038 A    3760 TIP4 H1   HW0      0.679100        1.0080           
   15039 A    3760 TIP4 H2   HW0      0.679100        1.0080           
   15040 A    3760 TIP4 BD1  LP0     -1.358200        0.0000           
   15041 A    3761 TIP4 O1   OW0      0.000000       15.9990           
   15042 A    3761 TIP4 H1   HW0      0.679100        1.0080           
   15043 A    3761 TIP4 H2   HW0      0.679100        1.0080           
   15044 A    3761 TIP4 BD1  LP0     -1.358200        0.0000           
   15045 A    3762 TIP4 O1   OW0      0.000000       15.9990           
   15046 A    3762 TIP4 H1   HW0      0.679100        1.0080           
   15047 A    3762 TIP4 H2   HW0      0.679100        1.0080           
   15048 A    3762 TIP4 BD1  LP0     -1.358200        0.0000           
   15049 A    3763 TIP4 O1   OW0      0.000000       15.9990           
   15050 A    3763 TIP4 H1   HW0      0.679100        1.0080           
   15051 A    3763 TIP4 H2   HW0      0.679100        1.0080           
   15052 A    3763 TIP4 BD1  LP0     -1.358200        0.0000           
   15053 A    3764 TIP4 O1   OW0      0.000000       15.9990           
   15054 A    3764 TIP4 H1   HW0      0.679100        1.0080           
   15055 A    3764 TIP4 H2   HW0      0.679100        1.0080           
   15056 A    3764 TIP4 BD1  LP0     -1.358200        0.0000           
   15057 A    3765 TIP4 O1   OW0      0.000000       15.9990           
   15058 A    3765 TIP4 H1   HW0      0.679100        1.0080           
   15059 A    3765 TIP4 H2   HW0      0.679100        1.0080           
   15060 A    3765 TIP4 BD1  LP0     -1.358200        0.0000           
   15061 A    3766 TIP4 O1   OW0      0.000000       15.9990           
   15062 A    3766 TIP4 H1   HW0      0.679100        1.0080           
   15063 A    3766 TIP4 H2   HW0      0.679100        1.0080           
   15064 A    3766 TIP4 BD1  LP0     -1.358200        0.0000           
   15065 A    3767 TIP4 O1   OW0      0.000000       15.9990           
   15066 A    3767 TIP4 H1   HW0      0.679100        1.0080           
   15067 A    3767 TIP4 H2   HW0      0.679100        1.0080           
   15068 A    3767 TIP4 BD1  LP0     -1.358200        0.0000           
   15069 A    3768 TIP4 O1   OW0      0.000000       15.9990           
   15070 A    3768 TIP4 H1   HW0      0.679100        1.0080           
   15071 A    3768 TIP4 H2   HW0      0.679100        1.0080           
   15072 A    3768 TIP4 BD1  LP0     -1.358200        0.0000           
   15073 A    3769 TIP4 O1   OW0      0.000000       15.9990           
   15074 A    3769 TIP4 H1   HW0      0.679100        1.0080           
   15075 A    3769 TIP4 H2   HW0      0.679100        1.0080           
   15076 A    3769 TIP4 BD1  LP0     -1.358200        0.0000           
   15077 A    3770 TIP4 O1   OW0      0.000000       15.9990           
   15078 A    3770 TIP4 H1   HW0      0.679100        1.0080           
   15079 A    3770 TIP4 H2   HW0      0.679100        1.0080           
   15080 A    3770 TIP4 BD1  LP0     -1.358200        0.0000           
   15081 A    3771 TIP4 O1   OW0      0.000000       15.9990           
   15082 A    3771 TIP4 H1   HW0      0.679100        1.0080           
   15083 A    3771 TIP4 H2   HW0      0.679100        1.0080           
   15084 A    3771 TIP4 BD1  LP0     -1.358200        0.0000           
   15085 A    3772 TIP4 O1   OW0      0.000000       15.9990           
   15086 A    3772 TIP4 H1   HW0      0.679100        1.0080           
   15087 A    3772 TIP4 H2   HW0      0.679100        1.0080           
   15088 A    3772 TIP4 BD1  LP0     -1.358200        0.0000           
   15089 A    3773 TIP4 O1   OW0      0.000000       15.9990           
   15090 A    3773 TIP4 H1   HW0      0.679100        1.0080           
   15091 A    3773 TIP4 H2   HW0      0.679100        1.0080           
   15092 A    3773 TIP4 BD1  LP0     -1.358200        0.0000           
   15093 A    3774 TIP4 O1   OW0      0.000000       15.9990           
   15094 A    3774 TIP4 H1   HW0      0.679100        1.0080           
   15095 A    3774 TIP4 H2   HW0      0.679100        1.0080           
   15096 A    3774 TIP4 BD1  LP0     -1.358200        0.0000           
   15097 A    3775 TIP4 O1   OW0      0.000000       15.9990           
   15098 A    3775 TIP4 H1   HW0      0.679100        1.0080           
   15099 A    3775 TIP4 H2   HW0      0.679100        1.0080           
   15100 A    3775 TIP4 BD1  LP0     -1.358200        0.0000           
   15101 A    3776 TIP4 O1   OW0      0.000000       15.9990           
   15102 A    3776 TIP4 H1   HW0      0.679100        1.0080           
   15103 A    3776 TIP4 H2   HW0      0.679100        1.0080           
   15104 A    3776 TIP4 BD1  LP0     -1.358200        0.0000           
   15105 A    3777 TIP4 O1   OW0      0.000000       15.9990           
   15106 A    3777 TIP4 H1   HW0      0.679100        1.0080           
   15107 A    3777 TIP4 H2   HW0      0.679100        1.0080           
   15108 A    3777 TIP4 BD1  LP0     -1.358200        0.0000           
   15109 A    3778 TIP4 O1   OW0      0.000000       15.9990           
   15110 A    3778 TIP4 H1   HW0      0.679100        1.0080           
   15111 A    3778 TIP4 H2   HW0      0.679100        1.0080           
   15112 A    3778 TIP4 BD1  LP0     -1.358200        0.0000           
   15113 A    3779 TIP4 O1   OW0      0.000000       15.9990           
   15114 A    3779 TIP4 H1   HW0      0.679100        1.0080           
   15115 A    3779 TIP4 H2   HW0      0.679100        1.0080           
   15116 A    3779 TIP4 BD1  LP0     -1.358200        0.0000           
   15117 A    3780 TIP4 O1   OW0      0.000000       15.9990           
   15118 A    3780 TIP4 H1   HW0      0.679100        1.0080           
   15119 A    3780 TIP4 H2   HW0      0.679100        1.0080           
   15120 A    3780 TIP4 BD1  LP0     -1.358200        0.0000           
   15121 A    3781 TIP4 O1   OW0      0.000000       15.9990           
   15122 A    3781 TIP4 H1   HW0      0.679100        1.0080           
   15123 A    3781 TIP4 H2   HW0      0.679100        1.0080           
   15124 A    3781 TIP4 BD1  LP0     -1.358200        0.0000           
   15125 A    3782 TIP4 O1   OW0      0.000000       15.9990           
   15126 A    3782 TIP4 H1   HW0      0.679100        1.0080           
   15127 A    3782 TIP4 H2   HW0      0.679100        1.0080           
   15128 A    3782 TIP4 BD1  LP0     -1.358200        0.0000           
   15129 A    3783 TIP4 O1   OW0      0.000000       15.9990           
   15130 A    3783 TIP4 H1   HW0      0.679100        1.0080           
   15131 A    3783 TIP4 H2   HW0      0.679100        1.0080           
   15132 A    3783 TIP4 BD1  LP0     -1.358200        0.0000           
   15133 A    3784 TIP4 O1   OW0      0.000000       15.9990           
   15134 A    3784 TIP4 H1   HW0      0.679100        1.0080           
   15135 A    3784 TIP4 H2   HW0      0.679100        1.0080           
   15136 A    3784 TIP4 BD1  LP0     -1.358200        0.0000           
   15137 A    3785 TIP4 O1   OW0      0.000000       15.9990           
   15138 A    3785 TIP4 H1   HW0      0.679100        1.0080           
   15139 A    3785 TIP4 H2   HW0      0.679100        1.0080           
   15140 A    3785 TIP4 BD1  LP0     -1.358200        0.0000           
   15141 A    3786 TIP4 O1   OW0      0.000000       15.9990           
   15142 A    3786 TIP4 H1   HW0      0.679100        1.0080           
   15143 A    3786 TIP4 H2   HW0      0.679100        1.0080           
   15144 A    3786 TIP4 BD1  LP0     -1.358200        0.0000           
   15145 A    3787 TIP4 O1   OW0      0.000000       15.9990           
   15146 A    3787 TIP4 H1   HW0      0.679100        1.0080           
   15147 A    3787 TIP4 H2   HW0      0.679100        1.0080           
   15148 A    3787 TIP4 BD1  LP0     -1.358200        0.0000           
   15149 A    3788 TIP4 O1   OW0      0.000000       15.9990           
   15150 A    3788 TIP4 H1   HW0      0.679100        1.0080           
   15151 A    3788 TIP4 H2   HW0      0.679100        1.0080           
   15152 A    3788 TIP4 BD1  LP0     -1.358200        0.0000           
   15153 A    3789 TIP4 O1   OW0      0.000000       15.9990           
   15154 A    3789 TIP4 H1   HW0      0.679100        1.0080           
   15155 A    3789 TIP4 H2   HW0      0.679100        1.0080           
   15156 A    3789 TIP4 BD1  LP0     -1.358200        0.0000           
   15157 A    3790 TIP4 O1   OW0      0.000000       15.9990           
   15158 A    3790 TIP4 H1   HW0      0.679100        1.0080           
   15159 A    3790 TIP4 H2   HW0      0.679100        1.0080           
   15160 A    3790 TIP4 BD1  LP0     -1.358200        0.0000           
   15161 A    3791 TIP4 O1   OW0      0.000000       15.9990           
   15162 A    3791 TIP4 H1   HW0      0.679100        1.0080           
   15163 A    3791 TIP4 H2   HW0      0.679100        1.0080           
   15164 A    3791 TIP4 BD1  LP0     -1.358200        0.0000           
   15165 A    3792 TIP4 O1   OW0      0.000000       15.9990           
   15166 A    3792 TIP4 H1   HW0      0.679100        1.0080           
   15167 A    3792 TIP4 H2   HW0      0.679100        1.0080           
   15168 A    3792 TIP4 BD1  LP0     -1.358200        0.0000           
   15169 A    3793 TIP4 O1   OW0      0.000000       15.9990           
   15170 A    3793 TIP4 H1   HW0      0.679100        1.0080           
   15171 A    3793 TIP4 H2   HW0      0.679100        1.0080           
   15172 A    3793 TIP4 BD1  LP0     -1.358200        0.0000           
   15173 A    3794 TIP4 O1   OW0      0.000000       15.9990           
   15174 A    3794 TIP4 H1   HW0      0.679100        1.0080           
   15175 A    3794 TIP4 H2   HW0      0.679100        1.0080           
   15176 A    3794 TIP4 BD1  LP0     -1.358200        0.0000           
   15177 A    3795 TIP4 O1   OW0      0.000000       15.9990           
   15178 A    3795 TIP4 H1   HW0      0.679100        1.0080           
   15179 A    3795 TIP4 H2   HW0      0.679100        1.0080           
   15180 A    3795 TIP4 BD1  LP0     -1.358200        0.0000           
   15181 A    3796 TIP4 O1   OW0      0.000000       15.9990           
   15182 A    3796 TIP4 H1   HW0      0.679100        1.0080           
   15183 A    3796 TIP4 H2   HW0      0.679100        1.0080           
   15184 A    3796 TIP4 BD1  LP0     -1.358200        0.0000           
   15185 A    3797 TIP4 O1   OW0      0.000000       15.9990           
   15186 A    3797 TIP4 H1   HW0      0.679100        1.0080           
   15187 A    3797 TIP4 H2   HW0      0.679100        1.0080           
   15188 A    3797 TIP4 BD1  LP0     -1.358200        0.0000           
   15189 A    3798 TIP4 O1   OW0      0.000000       15.9990           
   15190 A    3798 TIP4 H1   HW0      0.679100        1.0080           
   15191 A    3798 TIP4 H2   HW0      0.679100        1.0080           
   15192 A    3798 TIP4 BD1  LP0     -1.358200        0.0000           
   15193 A    3799 TIP4 O1   OW0      0.000000       15.9990           
   15194 A    3799 TIP4 H1   HW0      0.679100        1.0080           
   15195 A    3799 TIP4 H2   HW0      0.679100        1.0080           
   15196 A    3799 TIP4 BD1  LP0     -1.358200        0.0000           
   15197 A    3800 TIP4 O1   OW0      0.000000       15.9990           
   15198 A    3800 TIP4 H1   HW0      0.679100        1.0080           
   15199 A    3800 TIP4 H2   HW0      0.679100        1.0080           
   15200 A    3800 TIP4 BD1  LP0     -1.358200        0.0000           
   15201 A    3801 TIP4 O1   OW0      0.000000       15.9990           
   15202 A    3801 TIP4 H1   HW0      0.679100        1.0080           
   15203 A    3801 TIP4 H2   HW0      0.679100        1.0080           
   15204 A    3801 TIP4 BD1  LP0     -1.358200        0.0000           
   15205 A    3802 TIP4 O1   OW0      0.000000       15.9990           
   15206 A    3802 TIP4 H1   HW0      0.679100        1.0080           
   15207 A    3802 TIP4 H2   HW0      0.679100        1.0080           
   15208 A    3802 TIP4 BD1  LP0     -1.358200        0.0000           
   15209 A    3803 TIP4 O1   OW0      0.000000       15.9990           
   15210 A    3803 TIP4 H1   HW0      0.679100        1.0080           
   15211 A    3803 TIP4 H2   HW0      0.679100        1.0080           
   15212 A    3803 TIP4 BD1  LP0     -1.358200        0.0000           
   15213 A    3804 TIP4 O1   OW0      0.000000       15.9990           
   15214 A    3804 TIP4 H1   HW0      0.679100        1.0080           
   15215 A    3804 TIP4 H2   HW0      0.679100        1.0080           
   15216 A    3804 TIP4 BD1  LP0     -1.358200        0.0000           
   15217 A    3805 TIP4 O1   OW0      0.000000       15.9990           
   15218 A    3805 TIP4 H1   HW0      0.679100        1.0080           
   15219 A    3805 TIP4 H2   HW0      0.679100        1.0080           
   15220 A    3805 TIP4 BD1  LP0     -1.358200        0.0000           
   15221 A    3806 TIP4 O1   OW0      0.000000       15.9990           
   15222 A    3806 TIP4 H1   HW0      0.679100        1.0080           
   15223 A    3806 TIP4 H2   HW0      0.679100        1.0080           
   15224 A    3806 TIP4 BD1  LP0     -1.358200        0.0000           
   15225 A    3807 TIP4 O1   OW0      0.000000       15.9990           
   15226 A    3807 TIP4 H1   HW0      0.679100        1.0080           
   15227 A    3807 TIP4 H2   HW0      0.679100        1.0080           
   15228 A    3807 TIP4 BD1  LP0     -1.358200        0.0000           
   15229 A    3808 TIP4 O1   OW0      0.000000       15.9990           
   15230 A    3808 TIP4 H1   HW0      0.679100        1.0080           
   15231 A    3808 TIP4 H2   HW0      0.679100        1.0080           
   15232 A    3808 TIP4 BD1  LP0     -1.358200        0.0000           
   15233 A    3809 TIP4 O1   OW0      0.000000       15.9990           
   15234 A    3809 TIP4 H1   HW0      0.679100        1.0080           
   15235 A    3809 TIP4 H2   HW0      0.679100        1.0080           
   15236 A    3809 TIP4 BD1  LP0     -1.358200        0.0000           
   15237 A    3810 TIP4 O1   OW0      0.000000       15.9990           
   15238 A    3810 TIP4 H1   HW0      0.679100        1.0080           
   15239 A    3810 TIP4 H2   HW0      0.679100        1.0080           
   15240 A    3810 TIP4 BD1  LP0     -1.358200        0.0000           
   15241 A    3811 TIP4 O1   OW0      0.000000       15.9990           
   15242 A    3811 TIP4 H1   HW0      0.679100        1.0080           
   15243 A    3811 TIP4 H2   HW0      0.679100        1.0080           
   15244 A    3811 TIP4 BD1  LP0     -1.358200        0.0000           
   15245 A    3812 TIP4 O1   OW0      0.000000       15.9990           
   15246 A    3812 TIP4 H1   HW0      0.679100        1.0080           
   15247 A    3812 TIP4 H2   HW0      0.679100        1.0080           
   15248 A    3812 TIP4 BD1  LP0     -1.358200        0.0000           
   15249 A    3813 TIP4 O1   OW0      0.000000       15.9990           
   15250 A    3813 TIP4 H1   HW0      0.679100        1.0080           
   15251 A    3813 TIP4 H2   HW0      0.679100        1.0080           
   15252 A    3813 TIP4 BD1  LP0     -1.358200        0.0000           
   15253 A    3814 TIP4 O1   OW0      0.000000       15.9990           
   15254 A    3814 TIP4 H1   HW0      0.679100        1.0080           
   15255 A    3814 TIP4 H2   HW0      0.679100        1.0080           
   15256 A    3814 TIP4 BD1  LP0     -1.358200        0.0000           
   15257 A    3815 TIP4 O1   OW0      0.000000       15.9990           
   15258 A    3815 TIP4 H1   HW0      0.679100        1.0080           
   15259 A    3815 TIP4 H2   HW0      0.679100        1.0080           
   15260 A    3815 TIP4 BD1  LP0     -1.358200        0.0000           
   15261 A    3816 TIP4 O1   OW0      0.000000       15.9990           
   15262 A    3816 TIP4 H1   HW0      0.679100        1.0080           
   15263 A    3816 TIP4 H2   HW0      0.679100        1.0080           
   15264 A    3816 TIP4 BD1  LP0     -1.358200        0.0000           
   15265 A    3817 TIP4 O1   OW0      0.000000       15.9990           
   15266 A    3817 TIP4 H1   HW0      0.679100        1.0080           
   15267 A    3817 TIP4 H2   HW0      0.679100        1.0080           
   15268 A    3817 TIP4 BD1  LP0     -1.358200        0.0000           
   15269 A    3818 TIP4 O1   OW0      0.000000       15.9990           
   15270 A    3818 TIP4 H1   HW0      0.679100        1.0080           
   15271 A    3818 TIP4 H2   HW0      0.679100        1.0080           
   15272 A    3818 TIP4 BD1  LP0     -1.358200        0.0000           
   15273 A    3819 TIP4 O1   OW0      0.000000       15.9990           
   15274 A    3819 TIP4 H1   HW0      0.679100        1.0080           
   15275 A    3819 TIP4 H2   HW0      0.679100        1.0080           
   15276 A    3819 TIP4 BD1  LP0     -1.358200        0.0000           
   15277 A    3820 TIP4 O1   OW0      0.000000       15.9990           
   15278 A    3820 TIP4 H1   HW0      0.679100        1.0080           
   15279 A    3820 TIP4 H2   HW0      0.679100        1.0080           
   15280 A    3820 TIP4 BD1  LP0     -1.358200        0.0000           
   15281 A    3821 TIP4 O1   OW0      0.000000       15.9990           
   15282 A    3821 TIP4 H1   HW0      0.679100        1.0080           
   15283 A    3821 TIP4 H2   HW0      0.679100        1.0080           
   15284 A    3821 TIP4 BD1  LP0     -1.358200        0.0000           
   15285 A    3822 TIP4 O1   OW0      0.000000       15.9990           
   15286 A    3822 TIP4 H1   HW0      0.679100        1.0080           
   15287 A    3822 TIP4 H2   HW0      0.679100        1.0080           
   15288 A    3822 TIP4 BD1  LP0     -1.358200        0.0000           
   15289 A    3823 TIP4 O1   OW0      0.000000       15.9990           
   15290 A    3823 TIP4 H1   HW0      0.679100        1.0080           
   15291 A    3823 TIP4 H2   HW0      0.679100        1.0080           
   15292 A    3823 TIP4 BD1  LP0     -1.358200        0.0000           
   15293 A    3824 TIP4 O1   OW0      0.000000       15.9990           
   15294 A    3824 TIP4 H1   HW0      0.679100        1.0080           
   15295 A    3824 TIP4 H2   HW0      0.679100        1.0080           
   15296 A    3824 TIP4 BD1  LP0     -1.358200        0.0000           
   15297 A    3825 TIP4 O1   OW0      0.000000       15.9990           
   15298 A    3825 TIP4 H1   HW0      0.679100        1.0080           
   15299 A    3825 TIP4 H2   HW0      0.679100        1.0080           
   15300 A    3825 TIP4 BD1  LP0     -1.358200        0.0000           
   15301 A    3826 TIP4 O1   OW0      0.000000       15.9990           
   15302 A    3826 TIP4 H1   HW0      0.679100        1.0080           
   15303 A    3826 TIP4 H2   HW0      0.679100        1.0080           
   15304 A    3826 TIP4 BD1  LP0     -1.358200        0.0000           
   15305 A    3827 TIP4 O1   OW0      0.000000       15.9990           
   15306 A    3827 TIP4 H1   HW0      0.679100        1.0080           
   15307 A    3827 TIP4 H2   HW0      0.679100        1.0080           
   15308 A    3827 TIP4 BD1  LP0     -1.358200        0.0000           
   15309 A    3828 TIP4 O1   OW0      0.000000       15.9990           
   15310 A    3828 TIP4 H1   HW0      0.679100        1.0080           
   15311 A    3828 TIP4 H2   HW0      0.679100        1.0080           
   15312 A    3828 TIP4 BD1  LP0     -1.358200        0.0000           
   15313 A    3829 TIP4 O1   OW0      0.000000       15.9990           
   15314 A    3829 TIP4 H1   HW0      0.679100        1.0080           
   15315 A    3829 TIP4 H2   HW0      0.679100        1.0080           
   15316 A    3829 TIP4 BD1  LP0     -1.358200        0.0000           
   15317 A    3830 TIP4 O1   OW0      0.000000       15.9990           
   15318 A    3830 TIP4 H1   HW0      0.679100        1.0080           
   15319 A    3830 TIP4 H2   HW0      0.679100        1.0080           
   15320 A    3830 TIP4 BD1  LP0     -1.358200        0.0000           
   15321 A    3831 TIP4 O1   OW0      0.000000       15.9990           
   15322 A    3831 TIP4 H1   HW0      0.679100        1.0080           
   15323 A    3831 TIP4 H2   HW0      0.679100        1.0080           
   15324 A    3831 TIP4 BD1  LP0     -1.358200        0.0000           
   15325 A    3832 TIP4 O1   OW0      0.000000       15.9990           
   15326 A    3832 TIP4 H1   HW0      0.679100        1.0080           
   15327 A    3832 TIP4 H2   HW0      0.679100        1.0080           
   15328 A    3832 TIP4 BD1  LP0     -1.358200        0.0000           
   15329 A    3833 TIP4 O1   OW0      0.000000       15.9990           
   15330 A    3833 TIP4 H1   HW0      0.679100        1.0080           
   15331 A    3833 TIP4 H2   HW0      0.679100        1.0080           
   15332 A    3833 TIP4 BD1  LP0     -1.358200        0.0000           
   15333 A    3834 TIP4 O1   OW0      0.000000       15.9990           
   15334 A    3834 TIP4 H1   HW0      0.679100        1.0080           
   15335 A    3834 TIP4 H2   HW0      0.679100        1.0080           
   15336 A    3834 TIP4 BD1  LP0     -1.358200        0.0000           
   15337 A    3835 TIP4 O1   OW0      0.000000       15.9990           
   15338 A    3835 TIP4 H1   HW0      0.679100        1.0080           
   15339 A    3835 TIP4 H2   HW0      0.679100        1.0080           
   15340 A    3835 TIP4 BD1  LP0     -1.358200        0.0000           
   15341 A    3836 TIP4 O1   OW0      0.000000       15.9990           
   15342 A    3836 TIP4 H1   HW0      0.679100        1.0080           
   15343 A    3836 TIP4 H2   HW0      0.679100        1.0080           
   15344 A    3836 TIP4 BD1  LP0     -1.358200        0.0000           
   15345 A    3837 TIP4 O1   OW0      0.000000       15.9990           
   15346 A    3837 TIP4 H1   HW0      0.679100        1.0080           
   15347 A    3837 TIP4 H2   HW0      0.679100        1.0080           
   15348 A    3837 TIP4 BD1  LP0     -1.358200        0.0000           
   15349 A    3838 TIP4 O1   OW0      0.000000       15.9990           
   15350 A    3838 TIP4 H1   HW0      0.679100        1.0080           
   15351 A    3838 TIP4 H2   HW0      0.679100        1.0080           
   15352 A    3838 TIP4 BD1  LP0     -1.358200        0.0000           
   15353 A    3839 TIP4 O1   OW0      0.000000       15.9990           
   15354 A    3839 TIP4 H1   HW0      0.679100        1.0080           
   15355 A    3839 TIP4 H2   HW0      0.679100        1.0080           
   15356 A    3839 TIP4 BD1  LP0     -1.358200        0.0000           
   15357 A    3840 TIP4 O1   OW0      0.000000       15.9990           
   15358 A    3840 TIP4 H1   HW0      0.679100        1.0080           
   15359 A    3840 TIP4 H2   HW0      0.679100        1.0080           
   15360 A    3840 TIP4 BD1  LP0     -1.358200        0.0000           
   15361 A    3841 TIP4 O1   OW0      0.000000       15.9990           
   15362 A    3841 TIP4 H1   HW0      0.679100        1.0080           
   15363 A    3841 TIP4 H2   HW0      0.679100        1.0080           
   15364 A    3841 TIP4 BD1  LP0     -1.358200        0.0000           
   15365 A    3842 TIP4 O1   OW0      0.000000       15.9990           
   15366 A    3842 TIP4 H1   HW0      0.679100        1.0080           
   15367 A    3842 TIP4 H2   HW0      0.679100        1.0080           
   15368 A    3842 TIP4 BD1  LP0     -1.358200        0.0000           
   15369 A    3843 TIP4 O1   OW0      0.000000       15.9990           
   15370 A    3843 TIP4 H1   HW0      0.679100        1.0080           
   15371 A    3843 TIP4 H2   HW0      0.679100        1.0080           
   15372 A    3843 TIP4 BD1  LP0     -1.358200        0.0000           
   15373 A    3844 TIP4 O1   OW0      0.000000       15.9990           
   15374 A    3844 TIP4 H1   HW0      0.679100        1.0080           
   15375 A    3844 TIP4 H2   HW0      0.679100        1.0080           
   15376 A    3844 TIP4 BD1  LP0     -1.358200        0.0000           
   15377 A    3845 TIP4 O1   OW0      0.000000       15.9990           
   15378 A    3845 TIP4 H1   HW0      0.679100        1.0080           
   15379 A    3845 TIP4 H2   HW0      0.679100        1.0080           
   15380 A    3845 TIP4 BD1  LP0     -1.358200        0.0000           
   15381 A    3846 TIP4 O1   OW0      0.000000       15.9990           
   15382 A    3846 TIP4 H1   HW0      0.679100        1.0080           
   15383 A    3846 TIP4 H2   HW0      0.679100        1.0080           
   15384 A    3846 TIP4 BD1  LP0     -1.358200        0.0000           
   15385 A    3847 TIP4 O1   OW0      0.000000       15.9990           
   15386 A    3847 TIP4 H1   HW0      0.679100        1.0080           
   15387 A    3847 TIP4 H2   HW0      0.679100        1.0080           
   15388 A    3847 TIP4 BD1  LP0     -1.358200        0.0000           
   15389 A    3848 TIP4 O1   OW0      0.000000       15.9990           
   15390 A    3848 TIP4 H1   HW0      0.679100        1.0080           
   15391 A    3848 TIP4 H2   HW0      0.679100        1.0080           
   15392 A    3848 TIP4 BD1  LP0     -1.358200        0.0000           
   15393 A    3849 TIP4 O1   OW0      0.000000       15.9990           
   15394 A    3849 TIP4 H1   HW0      0.679100        1.0080           
   15395 A    3849 TIP4 H2   HW0      0.679100        1.0080           
   15396 A    3849 TIP4 BD1  LP0     -1.358200        0.0000           
   15397 A    3850 TIP4 O1   OW0      0.000000       15.9990           
   15398 A    3850 TIP4 H1   HW0      0.679100        1.0080           
   15399 A    3850 TIP4 H2   HW0      0.679100        1.0080           
   15400 A    3850 TIP4 BD1  LP0     -1.358200        0.0000           
   15401 A    3851 TIP4 O1   OW0      0.000000       15.9990           
   15402 A    3851 TIP4 H1   HW0      0.679100        1.0080           
   15403 A    3851 TIP4 H2   HW0      0.679100        1.0080           
   15404 A    3851 TIP4 BD1  LP0     -1.358200        0.0000           
   15405 A    3852 TIP4 O1   OW0      0.000000       15.9990           
   15406 A    3852 TIP4 H1   HW0      0.679100        1.0080           
   15407 A    3852 TIP4 H2   HW0      0.679100        1.0080           
   15408 A    3852 TIP4 BD1  LP0     -1.358200        0.0000           
   15409 A    3853 TIP4 O1   OW0      0.000000       15.9990           
   15410 A    3853 TIP4 H1   HW0      0.679100        1.0080           
   15411 A    3853 TIP4 H2   HW0      0.679100        1.0080           
   15412 A    3853 TIP4 BD1  LP0     -1.358200        0.0000           
   15413 A    3854 TIP4 O1   OW0      0.000000       15.9990           
   15414 A    3854 TIP4 H1   HW0      0.679100        1.0080           
   15415 A    3854 TIP4 H2   HW0      0.679100        1.0080           
   15416 A    3854 TIP4 BD1  LP0     -1.358200        0.0000           
   15417 A    3855 TIP4 O1   OW0      0.000000       15.9990           
   15418 A    3855 TIP4 H1   HW0      0.679100        1.0080           
   15419 A    3855 TIP4 H2   HW0      0.679100        1.0080           
   15420 A    3855 TIP4 BD1  LP0     -1.358200        0.0000           
   15421 A    3856 TIP4 O1   OW0      0.000000       15.9990           
   15422 A    3856 TIP4 H1   HW0      0.679100        1.0080           
   15423 A    3856 TIP4 H2   HW0      0.679100        1.0080           
   15424 A    3856 TIP4 BD1  LP0     -1.358200        0.0000           
   15425 A    3857 TIP4 O1   OW0      0.000000       15.9990           
   15426 A    3857 TIP4 H1   HW0      0.679100        1.0080           
   15427 A    3857 TIP4 H2   HW0      0.679100        1.0080           
   15428 A    3857 TIP4 BD1  LP0     -1.358200        0.0000           
   15429 A    3858 TIP4 O1   OW0      0.000000       15.9990           
   15430 A    3858 TIP4 H1   HW0      0.679100        1.0080           
   15431 A    3858 TIP4 H2   HW0      0.679100        1.0080           
   15432 A    3858 TIP4 BD1  LP0     -1.358200        0.0000           
   15433 A    3859 TIP4 O1   OW0      0.000000       15.9990           
   15434 A    3859 TIP4 H1   HW0      0.679100        1.0080           
   15435 A    3859 TIP4 H2   HW0      0.679100        1.0080           
   15436 A    3859 TIP4 BD1  LP0     -1.358200        0.0000           
   15437 A    3860 TIP4 O1   OW0      0.000000       15.9990           
   15438 A    3860 TIP4 H1   HW0      0.679100        1.0080           
   15439 A    3860 TIP4 H2   HW0      0.679100        1.0080           
   15440 A    3860 TIP4 BD1  LP0     -1.358200        0.0000           
   15441 A    3861 TIP4 O1   OW0      0.000000       15.9990           
   15442 A    3861 TIP4 H1   HW0      0.679100        1.0080           
   15443 A    3861 TIP4 H2   HW0      0.679100        1.0080           
   15444 A    3861 TIP4 BD1  LP0     -1.358200        0.0000           
   15445 A    3862 TIP4 O1   OW0      0.000000       15.9990           
   15446 A    3862 TIP4 H1   HW0      0.679100        1.0080           
   15447 A    3862 TIP4 H2   HW0      0.679100        1.0080           
   15448 A    3862 TIP4 BD1  LP0     -1.358200        0.0000           
   15449 A    3863 TIP4 O1   OW0      0.000000       15.9990           
   15450 A    3863 TIP4 H1   HW0      0.679100        1.0080           
   15451 A    3863 TIP4 H2   HW0      0.679100        1.0080           
   15452 A    3863 TIP4 BD1  LP0     -1.358200        0.0000           
   15453 A    3864 TIP4 O1   OW0      0.000000       15.9990           
   15454 A    3864 TIP4 H1   HW0      0.679100        1.0080           
   15455 A    3864 TIP4 H2   HW0      0.679100        1.0080           
   15456 A    3864 TIP4 BD1  LP0     -1.358200        0.0000           
   15457 A    3865 TIP4 O1   OW0      0.000000       15.9990           
   15458 A    3865 TIP4 H1   HW0      0.679100        1.0080           
   15459 A    3865 TIP4 H2   HW0      0.679100        1.0080           
   15460 A    3865 TIP4 BD1  LP0     -1.358200        0.0000           
   15461 A    3866 TIP4 O1   OW0      0.000000       15.9990           
   15462 A    3866 TIP4 H1   HW0      0.679100        1.0080           
   15463 A    3866 TIP4 H2   HW0      0.679100        1.0080           
   15464 A    3866 TIP4 BD1  LP0     -1.358200        0.0000           
   15465 A    3867 TIP4 O1   OW0      0.000000       15.9990           
   15466 A    3867 TIP4 H1   HW0      0.679100        1.0080           
   15467 A    3867 TIP4 H2   HW0      0.679100        1.0080           
   15468 A    3867 TIP4 BD1  LP0     -1.358200        0.0000           
   15469 A    3868 TIP4 O1   OW0      0.000000       15.9990           
   15470 A    3868 TIP4 H1   HW0      0.679100        1.0080           
   15471 A    3868 TIP4 H2   HW0      0.679100        1.0080           
   15472 A    3868 TIP4 BD1  LP0     -1.358200        0.0000           
   15473 A    3869 TIP4 O1   OW0      0.000000       15.9990           
   15474 A    3869 TIP4 H1   HW0      0.679100        1.0080           
   15475 A    3869 TIP4 H2   HW0      0.679100        1.0080           
   15476 A    3869 TIP4 BD1  LP0     -1.358200        0.0000           
   15477 A    3870 TIP4 O1   OW0      0.000000       15.9990           
   15478 A    3870 TIP4 H1   HW0      0.679100        1.0080           
   15479 A    3870 TIP4 H2   HW0      0.679100        1.0080           
   15480 A    3870 TIP4 BD1  LP0     -1.358200        0.0000           
   15481 A    3871 TIP4 O1   OW0      0.000000       15.9990           
   15482 A    3871 TIP4 H1   HW0      0.679100        1.0080           
   15483 A    3871 TIP4 H2   HW0      0.679100        1.0080           
   15484 A    3871 TIP4 BD1  LP0     -1.358200        0.0000           
   15485 A    3872 TIP4 O1   OW0      0.000000       15.9990           
   15486 A    3872 TIP4 H1   HW0      0.679100        1.0080           
   15487 A    3872 TIP4 H2   HW0      0.679100        1.0080           
   15488 A    3872 TIP4 BD1  LP0     -1.358200        0.0000           
   15489 A    3873 TIP4 O1   OW0      0.000000       15.9990           
   15490 A    3873 TIP4 H1   HW0      0.679100        1.0080           
   15491 A    3873 TIP4 H2   HW0      0.679100        1.0080           
   15492 A    3873 TIP4 BD1  LP0     -1.358200        0.0000           
   15493 A    3874 TIP4 O1   OW0      0.000000       15.9990           
   15494 A    3874 TIP4 H1   HW0      0.679100        1.0080           
   15495 A    3874 TIP4 H2   HW0      0.679100        1.0080           
   15496 A    3874 TIP4 BD1  LP0     -1.358200        0.0000           
   15497 A    3875 TIP4 O1   OW0      0.000000       15.9990           
   15498 A    3875 TIP4 H1   HW0      0.679100        1.0080           
   15499 A    3875 TIP4 H2   HW0      0.679100        1.0080           
   15500 A    3875 TIP4 BD1  LP0     -1.358200        0.0000           
   15501 A    3876 TIP4 O1   OW0      0.000000       15.9990           
   15502 A    3876 TIP4 H1   HW0      0.679100        1.0080           
   15503 A    3876 TIP4 H2   HW0      0.679100        1.0080           
   15504 A    3876 TIP4 BD1  LP0     -1.358200        0.0000           
   15505 A    3877 TIP4 O1   OW0      0.000000       15.9990           
   15506 A    3877 TIP4 H1   HW0      0.679100        1.0080           
   15507 A    3877 TIP4 H2   HW0      0.679100        1.0080           
   15508 A    3877 TIP4 BD1  LP0     -1.358200        0.0000           
   15509 A    3878 TIP4 O1   OW0      0.000000       15.9990           
   15510 A    3878 TIP4 H1   HW0      0.679100        1.0080           
   15511 A    3878 TIP4 H2   HW0      0.679100        1.0080           
   15512 A    3878 TIP4 BD1  LP0     -1.358200        0.0000           
   15513 A    3879 TIP4 O1   OW0      0.000000       15.9990           
   15514 A    3879 TIP4 H1   HW0      0.679100        1.0080           
   15515 A    3879 TIP4 H2   HW0      0.679100        1.0080           
   15516 A    3879 TIP4 BD1  LP0     -1.358200        0.0000           
   15517 A    3880 TIP4 O1   OW0      0.000000       15.9990           
   15518 A    3880 TIP4 H1   HW0      0.679100        1.0080           
   15519 A    3880 TIP4 H2   HW0      0.679100        1.0080           
   15520 A    3880 TIP4 BD1  LP0     -1.358200        0.0000           
   15521 A    3881 TIP4 O1   OW0      0.000000       15.9990           
   15522 A    3881 TIP4 H1   HW0      0.679100        1.0080           
   15523 A    3881 TIP4 H2   HW0      0.679100        1.0080           
   15524 A    3881 TIP4 BD1  LP0     -1.358200        0.0000           
   15525 A    3882 TIP4 O1   OW0      0.000000       15.9990           
   15526 A    3882 TIP4 H1   HW0      0.679100        1.0080           
   15527 A    3882 TIP4 H2   HW0      0.679100        1.0080           
   15528 A    3882 TIP4 BD1  LP0     -1.358200        0.0000           
   15529 A    3883 TIP4 O1   OW0      0.000000       15.9990           
   15530 A    3883 TIP4 H1   HW0      0.679100        1.0080           
   15531 A    3883 TIP4 H2   HW0      0.679100        1.0080           
   15532 A    3883 TIP4 BD1  LP0     -1.358200        0.0000           
   15533 A    3884 TIP4 O1   OW0      0.000000       15.9990           
   15534 A    3884 TIP4 H1   HW0      0.679100        1.0080           
   15535 A    3884 TIP4 H2   HW0      0.679100        1.0080           
   15536 A    3884 TIP4 BD1  LP0     -1.358200        0.0000           
   15537 A    3885 TIP4 O1   OW0      0.000000       15.9990           
   15538 A    3885 TIP4 H1   HW0      0.679100        1.0080           
   15539 A    3885 TIP4 H2   HW0      0.679100        1.0080           
   15540 A    3885 TIP4 BD1  LP0     -1.358200        0.0000           
   15541 A    3886 TIP4 O1   OW0      0.000000       15.9990           
   15542 A    3886 TIP4 H1   HW0      0.679100        1.0080           
   15543 A    3886 TIP4 H2   HW0      0.679100        1.0080           
   15544 A    3886 TIP4 BD1  LP0     -1.358200        0.0000           
   15545 A    3887 TIP4 O1   OW0      0.000000       15.9990           
   15546 A    3887 TIP4 H1   HW0      0.679100        1.0080           
   15547 A    3887 TIP4 H2   HW0      0.679100        1.0080           
   15548 A    3887 TIP4 BD1  LP0     -1.358200        0.0000           
   15549 A    3888 TIP4 O1   OW0      0.000000       15.9990           
   15550 A    3888 TIP4 H1   HW0      0.679100        1.0080           
   15551 A    3888 TIP4 H2   HW0      0.679100        1.0080           
   15552 A    3888 TIP4 BD1  LP0     -1.358200        0.0000           
   15553 A    3889 TIP4 O1   OW0      0.000000       15.9990           
   15554 A    3889 TIP4 H1   HW0      0.679100        1.0080           
   15555 A    3889 TIP4 H2   HW0      0.679100        1.0080           
   15556 A    3889 TIP4 BD1  LP0     -1.358200        0.0000           
   15557 A    3890 TIP4 O1   OW0      0.000000       15.9990           
   15558 A    3890 TIP4 H1   HW0      0.679100        1.0080           
   15559 A    3890 TIP4 H2   HW0      0.679100        1.0080           
   15560 A    3890 TIP4 BD1  LP0     -1.358200        0.0000           
   15561 A    3891 TIP4 O1   OW0      0.000000       15.9990           
   15562 A    3891 TIP4 H1   HW0      0.679100        1.0080           
   15563 A    3891 TIP4 H2   HW0      0.679100        1.0080           
   15564 A    3891 TIP4 BD1  LP0     -1.358200        0.0000           
   15565 A    3892 TIP4 O1   OW0      0.000000       15.9990           
   15566 A    3892 TIP4 H1   HW0      0.679100        1.0080           
   15567 A    3892 TIP4 H2   HW0      0.679100        1.0080           
   15568 A    3892 TIP4 BD1  LP0     -1.358200        0.0000           
   15569 A    3893 TIP4 O1   OW0      0.000000       15.9990           
   15570 A    3893 TIP4 H1   HW0      0.679100        1.0080           
   15571 A    3893 TIP4 H2   HW0      0.679100        1.0080           
   15572 A    3893 TIP4 BD1  LP0     -1.358200        0.0000           
   15573 A    3894 TIP4 O1   OW0      0.000000       15.9990           
   15574 A    3894 TIP4 H1   HW0      0.679100        1.0080           
   15575 A    3894 TIP4 H2   HW0      0.679100        1.0080           
   15576 A    3894 TIP4 BD1  LP0     -1.358200        0.0000           
   15577 A    3895 TIP4 O1   OW0      0.000000       15.9990           
   15578 A    3895 TIP4 H1   HW0      0.679100        1.0080           
   15579 A    3895 TIP4 H2   HW0      0.679100        1.0080           
   15580 A    3895 TIP4 BD1  LP0     -1.358200        0.0000           
   15581 A    3896 TIP4 O1   OW0      0.000000       15.9990           
   15582 A    3896 TIP4 H1   HW0      0.679100        1.0080           
   15583 A    3896 TIP4 H2   HW0      0.679100        1.0080           
   15584 A    3896 TIP4 BD1  LP0     -1.358200        0.0000           
   15585 A    3897 TIP4 O1   OW0      0.000000       15.9990           
   15586 A    3897 TIP4 H1   HW0      0.679100        1.0080           
   15587 A    3897 TIP4 H2   HW0      0.679100        1.0080           
   15588 A    3897 TIP4 BD1  LP0     -1.358200        0.0000           
   15589 A    3898 TIP4 O1   OW0      0.000000       15.9990           
   15590 A    3898 TIP4 H1   HW0      0.679100        1.0080           
   15591 A    3898 TIP4 H2   HW0      0.679100        1.0080           
   15592 A    3898 TIP4 BD1  LP0     -1.358200        0.0000           
   15593 A    3899 TIP4 O1   OW0      0.000000       15.9990           
   15594 A    3899 TIP4 H1   HW0      0.679100        1.0080           
   15595 A    3899 TIP4 H2   HW0      0.679100        1.0080           
   15596 A    3899 TIP4 BD1  LP0     -1.358200        0.0000           
   15597 A    3900 TIP4 O1   OW0      0.000000       15.9990           
   15598 A    3900 TIP4 H1   HW0      0.679100        1.0080           
   15599 A    3900 TIP4 H2   HW0      0.679100        1.0080           
   15600 A    3900 TIP4 BD1  LP0     -1.358200        0.0000           
   15601 A    3901 TIP4 O1   OW0      0.000000       15.9990           
   15602 A    3901 TIP4 H1   HW0      0.679100        1.0080           
   15603 A    3901 TIP4 H2   HW0      0.679100        1.0080           
   15604 A    3901 TIP4 BD1  LP0     -1.358200        0.0000           
   15605 A    3902 TIP4 O1   OW0      0.000000       15.9990           
   15606 A    3902 TIP4 H1   HW0      0.679100        1.0080           
   15607 A    3902 TIP4 H2   HW0      0.679100        1.0080           
   15608 A    3902 TIP4 BD1  LP0     -1.358200        0.0000           
   15609 A    3903 TIP4 O1   OW0      0.000000       15.9990           
   15610 A    3903 TIP4 H1   HW0      0.679100        1.0080           
   15611 A    3903 TIP4 H2   HW0      0.679100        1.0080           
   15612 A    3903 TIP4 BD1  LP0     -1.358200        0.0000           
   15613 A    3904 TIP4 O1   OW0      0.000000       15.9990           
   15614 A    3904 TIP4 H1   HW0      0.679100        1.0080           
   15615 A    3904 TIP4 H2   HW0      0.679100        1.0080           
   15616 A    3904 TIP4 BD1  LP0     -1.358200        0.0000           
   15617 A    3905 TIP4 O1   OW0      0.000000       15.9990           
   15618 A    3905 TIP4 H1   HW0      0.679100        1.0080           
   15619 A    3905 TIP4 H2   HW0      0.679100        1.0080           
   15620 A    3905 TIP4 BD1  LP0     -1.358200        0.0000           
   15621 A    3906 TIP4 O1   OW0      0.000000       15.9990           
   15622 A    3906 TIP4 H1   HW0      0.679100        1.0080           
   15623 A    3906 TIP4 H2   HW0      0.679100        1.0080           
   15624 A    3906 TIP4 BD1  LP0     -1.358200        0.0000           
   15625 A    3907 TIP4 O1   OW0      0.000000       15.9990           
   15626 A    3907 TIP4 H1   HW0      0.679100        1.0080           
   15627 A    3907 TIP4 H2   HW0      0.679100        1.0080           
   15628 A    3907 TIP4 BD1  LP0     -1.358200        0.0000           
   15629 A    3908 TIP4 O1   OW0      0.000000       15.9990           
   15630 A    3908 TIP4 H1   HW0      0.679100        1.0080           
   15631 A    3908 TIP4 H2   HW0      0.679100        1.0080           
   15632 A    3908 TIP4 BD1  LP0     -1.358200        0.0000           
   15633 A    3909 TIP4 O1   OW0      0.000000       15.9990           
   15634 A    3909 TIP4 H1   HW0      0.679100        1.0080           
   15635 A    3909 TIP4 H2   HW0      0.679100        1.0080           
   15636 A    3909 TIP4 BD1  LP0     -1.358200        0.0000           
   15637 A    3910 TIP4 O1   OW0      0.000000       15.9990           
   15638 A    3910 TIP4 H1   HW0      0.679100        1.0080           
   15639 A    3910 TIP4 H2   HW0      0.679100        1.0080           
   15640 A    3910 TIP4 BD1  LP0     -1.358200        0.0000           
   15641 A    3911 TIP4 O1   OW0      0.000000       15.9990           
   15642 A    3911 TIP4 H1   HW0      0.679100        1.0080           
   15643 A    3911 TIP4 H2   HW0      0.679100        1.0080           
   15644 A    3911 TIP4 BD1  LP0     -1.358200        0.0000           
   15645 A    3912 TIP4 O1   OW0      0.000000       15.9990           
   15646 A    3912 TIP4 H1   HW0      0.679100        1.0080           
   15647 A    3912 TIP4 H2   HW0      0.679100        1.0080           
   15648 A    3912 TIP4 BD1  LP0     -1.358200        0.0000           
   15649 A    3913 TIP4 O1   OW0      0.000000       15.9990           
   15650 A    3913 TIP4 H1   HW0      0.679100        1.0080           
   15651 A    3913 TIP4 H2   HW0      0.679100        1.0080           
   15652 A    3913 TIP4 BD1  LP0     -1.358200        0.0000           
   15653 A    3914 TIP4 O1   OW0      0.000000       15.9990           
   15654 A    3914 TIP4 H1   HW0      0.679100        1.0080           
   15655 A    3914 TIP4 H2   HW0      0.679100        1.0080           
   15656 A    3914 TIP4 BD1  LP0     -1.358200        0.0000           
   15657 A    3915 TIP4 O1   OW0      0.000000       15.9990           
   15658 A    3915 TIP4 H1   HW0      0.679100        1.0080           
   15659 A    3915 TIP4 H2   HW0      0.679100        1.0080           
   15660 A    3915 TIP4 BD1  LP0     -1.358200        0.0000           
   15661 A    3916 TIP4 O1   OW0      0.000000       15.9990           
   15662 A    3916 TIP4 H1   HW0      0.679100        1.0080           
   15663 A    3916 TIP4 H2   HW0      0.679100        1.0080           
   15664 A    3916 TIP4 BD1  LP0     -1.358200        0.0000           
   15665 A    3917 TIP4 O1   OW0      0.000000       15.9990           
   15666 A    3917 TIP4 H1   HW0      0.679100        1.0080           
   15667 A    3917 TIP4 H2   HW0      0.679100        1.0080           
   15668 A    3917 TIP4 BD1  LP0     -1.358200        0.0000           
   15669 A    3918 TIP4 O1   OW0      0.000000       15.9990           
   15670 A    3918 TIP4 H1   HW0      0.679100        1.0080           
   15671 A    3918 TIP4 H2   HW0      0.679100        1.0080           
   15672 A    3918 TIP4 BD1  LP0     -1.358200        0.0000           
   15673 A    3919 TIP4 O1   OW0      0.000000       15.9990           
   15674 A    3919 TIP4 H1   HW0      0.679100        1.0080           
   15675 A    3919 TIP4 H2   HW0      0.679100        1.0080           
   15676 A    3919 TIP4 BD1  LP0     -1.358200        0.0000           
   15677 A    3920 TIP4 O1   OW0      0.000000       15.9990           
   15678 A    3920 TIP4 H1   HW0      0.679100        1.0080           
   15679 A    3920 TIP4 H2   HW0      0.679100        1.0080           
   15680 A    3920 TIP4 BD1  LP0     -1.358200        0.0000           
   15681 A    3921 TIP4 O1   OW0      0.000000       15.9990           
   15682 A    3921 TIP4 H1   HW0      0.679100        1.0080           
   15683 A    3921 TIP4 H2   HW0      0.679100        1.0080           
   15684 A    3921 TIP4 BD1  LP0     -1.358200        0.0000           
   15685 A    3922 TIP4 O1   OW0      0.000000       15.9990           
   15686 A    3922 TIP4 H1   HW0      0.679100        1.0080           
   15687 A    3922 TIP4 H2   HW0      0.679100        1.0080           
   15688 A    3922 TIP4 BD1  LP0     -1.358200        0.0000           
   15689 A    3923 TIP4 O1   OW0      0.000000       15.9990           
   15690 A    3923 TIP4 H1   HW0      0.679100        1.0080           
   15691 A    3923 TIP4 H2   HW0      0.679100        1.0080           
   15692 A    3923 TIP4 BD1  LP0     -1.358200        0.0000           
   15693 A    3924 TIP4 O1   OW0      0.000000       15.9990           
   15694 A    3924 TIP4 H1   HW0      0.679100        1.0080           
   15695 A    3924 TIP4 H2   HW0      0.679100        1.0080           
   15696 A    3924 TIP4 BD1  LP0     -1.358200        0.0000           
   15697 A    3925 TIP4 O1   OW0      0.000000       15.9990           
   15698 A    3925 TIP4 H1   HW0      0.679100        1.0080           
   15699 A    3925 TIP4 H2   HW0      0.679100        1.0080           
   15700 A    3925 TIP4 BD1  LP0     -1.358200        0.0000           
   15701 A    3926 TIP4 O1   OW0      0.000000       15.9990           
   15702 A    3926 TIP4 H1   HW0      0.679100        1.0080           
   15703 A    3926 TIP4 H2   HW0      0.679100        1.0080           
   15704 A    3926 TIP4 BD1  LP0     -1.358200        0.0000           
   15705 A    3927 TIP4 O1   OW0      0.000000       15.9990           
   15706 A    3927 TIP4 H1   HW0      0.679100        1.0080           
   15707 A    3927 TIP4 H2   HW0      0.679100        1.0080           
   15708 A    3927 TIP4 BD1  LP0     -1.358200        0.0000           
   15709 A    3928 TIP4 O1   OW0      0.000000       15.9990           
   15710 A    3928 TIP4 H1   HW0      0.679100        1.0080           
   15711 A    3928 TIP4 H2   HW0      0.679100        1.0080           
   15712 A    3928 TIP4 BD1  LP0     -1.358200        0.0000           
   15713 A    3929 TIP4 O1   OW0      0.000000       15.9990           
   15714 A    3929 TIP4 H1   HW0      0.679100        1.0080           
   15715 A    3929 TIP4 H2   HW0      0.679100        1.0080           
   15716 A    3929 TIP4 BD1  LP0     -1.358200        0.0000           
   15717 A    3930 TIP4 O1   OW0      0.000000       15.9990           
   15718 A    3930 TIP4 H1   HW0      0.679100        1.0080           
   15719 A    3930 TIP4 H2   HW0      0.679100        1.0080           
   15720 A    3930 TIP4 BD1  LP0     -1.358200        0.0000           
   15721 A    3931 TIP4 O1   OW0      0.000000       15.9990           
   15722 A    3931 TIP4 H1   HW0      0.679100        1.0080           
   15723 A    3931 TIP4 H2   HW0      0.679100        1.0080           
   15724 A    3931 TIP4 BD1  LP0     -1.358200        0.0000           
   15725 A    3932 TIP4 O1   OW0      0.000000       15.9990           
   15726 A    3932 TIP4 H1   HW0      0.679100        1.0080           
   15727 A    3932 TIP4 H2   HW0      0.679100        1.0080           
   15728 A    3932 TIP4 BD1  LP0     -1.358200        0.0000           
   15729 A    3933 TIP4 O1   OW0      0.000000       15.9990           
   15730 A    3933 TIP4 H1   HW0      0.679100        1.0080           
   15731 A    3933 TIP4 H2   HW0      0.679100        1.0080           
   15732 A    3933 TIP4 BD1  LP0     -1.358200        0.0000           
   15733 A    3934 TIP4 O1   OW0      0.000000       15.9990           
   15734 A    3934 TIP4 H1   HW0      0.679100        1.0080           
   15735 A    3934 TIP4 H2   HW0      0.679100        1.0080           
   15736 A    3934 TIP4 BD1  LP0     -1.358200        0.0000           
   15737 A    3935 TIP4 O1   OW0      0.000000       15.9990           
   15738 A    3935 TIP4 H1   HW0      0.679100        1.0080           
   15739 A    3935 TIP4 H2   HW0      0.679100        1.0080           
   15740 A    3935 TIP4 BD1  LP0     -1.358200        0.0000           
   15741 A    3936 TIP4 O1   OW0      0.000000       15.9990           
   15742 A    3936 TIP4 H1   HW0      0.679100        1.0080           
   15743 A    3936 TIP4 H2   HW0      0.679100        1.0080           
   15744 A    3936 TIP4 BD1  LP0     -1.358200        0.0000           
   15745 A    3937 TIP4 O1   OW0      0.000000       15.9990           
   15746 A    3937 TIP4 H1   HW0      0.679100        1.0080           
   15747 A    3937 TIP4 H2   HW0      0.679100        1.0080           
   15748 A    3937 TIP4 BD1  LP0     -1.358200        0.0000           
   15749 A    3938 TIP4 O1   OW0      0.000000       15.9990           
   15750 A    3938 TIP4 H1   HW0      0.679100        1.0080           
   15751 A    3938 TIP4 H2   HW0      0.679100        1.0080           
   15752 A    3938 TIP4 BD1  LP0     -1.358200        0.0000           
   15753 A    3939 TIP4 O1   OW0      0.000000       15.9990           
   15754 A    3939 TIP4 H1   HW0      0.679100        1.0080           
   15755 A    3939 TIP4 H2   HW0      0.679100        1.0080           
   15756 A    3939 TIP4 BD1  LP0     -1.358200        0.0000           
   15757 A    3940 TIP4 O1   OW0      0.000000       15.9990           
   15758 A    3940 TIP4 H1   HW0      0.679100        1.0080           
   15759 A    3940 TIP4 H2   HW0      0.679100        1.0080           
   15760 A    3940 TIP4 BD1  LP0     -1.358200        0.0000           
   15761 A    3941 TIP4 O1   OW0      0.000000       15.9990           
   15762 A    3941 TIP4 H1   HW0      0.679100        1.0080           
   15763 A    3941 TIP4 H2   HW0      0.679100        1.0080           
   15764 A    3941 TIP4 BD1  LP0     -1.358200        0.0000           
   15765 A    3942 TIP4 O1   OW0      0.000000       15.9990           
   15766 A    3942 TIP4 H1   HW0      0.679100        1.0080           
   15767 A    3942 TIP4 H2   HW0      0.679100        1.0080           
   15768 A    3942 TIP4 BD1  LP0     -1.358200        0.0000           
   15769 A    3943 TIP4 O1   OW0      0.000000       15.9990           
   15770 A    3943 TIP4 H1   HW0      0.679100        1.0080           
   15771 A    3943 TIP4 H2   HW0      0.679100        1.0080           
   15772 A    3943 TIP4 BD1  LP0     -1.358200        0.0000           
   15773 A    3944 TIP4 O1   OW0      0.000000       15.9990           
   15774 A    3944 TIP4 H1   HW0      0.679100        1.0080           
   15775 A    3944 TIP4 H2   HW0      0.679100        1.0080           
   15776 A    3944 TIP4 BD1  LP0     -1.358200        0.0000           
   15777 A    3945 TIP4 O1   OW0      0.000000       15.9990           
   15778 A    3945 TIP4 H1   HW0      0.679100        1.0080           
   15779 A    3945 TIP4 H2   HW0      0.679100        1.0080           
   15780 A    3945 TIP4 BD1  LP0     -1.358200        0.0000           
   15781 A    3946 TIP4 O1   OW0      0.000000       15.9990           
   15782 A    3946 TIP4 H1   HW0      0.679100        1.0080           
   15783 A    3946 TIP4 H2   HW0      0.679100        1.0080           
   15784 A    3946 TIP4 BD1  LP0     -1.358200        0.0000           
   15785 A    3947 TIP4 O1   OW0      0.000000       15.9990           
   15786 A    3947 TIP4 H1   HW0      0.679100        1.0080           
   15787 A    3947 TIP4 H2   HW0      0.679100        1.0080           
   15788 A    3947 TIP4 BD1  LP0     -1.358200        0.0000           
   15789 A    3948 TIP4 O1   OW0      0.000000       15.9990           
   15790 A    3948 TIP4 H1   HW0      0.679100        1.0080           
   15791 A    3948 TIP4 H2   HW0      0.679100        1.0080           
   15792 A    3948 TIP4 BD1  LP0     -1.358200        0.0000           
   15793 A    3949 TIP4 O1   OW0      0.000000       15.9990           
   15794 A    3949 TIP4 H1   HW0      0.679100        1.0080           
   15795 A    3949 TIP4 H2   HW0      0.679100        1.0080           
   15796 A    3949 TIP4 BD1  LP0     -1.358200        0.0000           
   15797 A    3950 TIP4 O1   OW0      0.000000       15.9990           
   15798 A    3950 TIP4 H1   HW0      0.679100        1.0080           
   15799 A    3950 TIP4 H2   HW0      0.679100        1.0080           
   15800 A    3950 TIP4 BD1  LP0     -1.358200        0.0000           
   15801 A    3951 TIP4 O1   OW0      0.000000       15.9990           
   15802 A    3951 TIP4 H1   HW0      0.679100        1.0080           
   15803 A    3951 TIP4 H2   HW0      0.679100        1.0080           
   15804 A    3951 TIP4 BD1  LP0     -1.358200        0.0000           
   15805 A    3952 TIP4 O1   OW0      0.000000       15.9990           
   15806 A    3952 TIP4 H1   HW0      0.679100        1.0080           
   15807 A    3952 TIP4 H2   HW0      0.679100        1.0080           
   15808 A    3952 TIP4 BD1  LP0     -1.358200        0.0000           
   15809 A    3953 TIP4 O1   OW0      0.000000       15.9990           
   15810 A    3953 TIP4 H1   HW0      0.679100        1.0080           
   15811 A    3953 TIP4 H2   HW0      0.679100        1.0080           
   15812 A    3953 TIP4 BD1  LP0     -1.358200        0.0000           
   15813 A    3954 TIP4 O1   OW0      0.000000       15.9990           
   15814 A    3954 TIP4 H1   HW0      0.679100        1.0080           
   15815 A    3954 TIP4 H2   HW0      0.679100        1.0080           
   15816 A    3954 TIP4 BD1  LP0     -1.358200        0.0000           
   15817 A    3955 TIP4 O1   OW0      0.000000       15.9990           
   15818 A    3955 TIP4 H1   HW0      0.679100        1.0080           
   15819 A    3955 TIP4 H2   HW0      0.679100        1.0080           
   15820 A    3955 TIP4 BD1  LP0     -1.358200        0.0000           
   15821 A    3956 TIP4 O1   OW0      0.000000       15.9990           
   15822 A    3956 TIP4 H1   HW0      0.679100        1.0080           
   15823 A    3956 TIP4 H2   HW0      0.679100        1.0080           
   15824 A    3956 TIP4 BD1  LP0     -1.358200        0.0000           
   15825 A    3957 TIP4 O1   OW0      0.000000       15.9990           
   15826 A    3957 TIP4 H1   HW0      0.679100        1.0080           
   15827 A    3957 TIP4 H2   HW0      0.679100        1.0080           
   15828 A    3957 TIP4 BD1  LP0     -1.358200        0.0000           
   15829 A    3958 TIP4 O1   OW0      0.000000       15.9990           
   15830 A    3958 TIP4 H1   HW0      0.679100        1.0080           
   15831 A    3958 TIP4 H2   HW0      0.679100        1.0080           
   15832 A    3958 TIP4 BD1  LP0     -1.358200        0.0000           
   15833 A    3959 TIP4 O1   OW0      0.000000       15.9990           
   15834 A    3959 TIP4 H1   HW0      0.679100        1.0080           
   15835 A    3959 TIP4 H2   HW0      0.679100        1.0080           
   15836 A    3959 TIP4 BD1  LP0     -1.358200        0.0000           
   15837 A    3960 TIP4 O1   OW0      0.000000       15.9990           
   15838 A    3960 TIP4 H1   HW0      0.679100        1.0080           
   15839 A    3960 TIP4 H2   HW0      0.679100        1.0080           
   15840 A    3960 TIP4 BD1  LP0     -1.358200        0.0000           
   15841 A    3961 TIP4 O1   OW0      0.000000       15.9990           
   15842 A    3961 TIP4 H1   HW0      0.679100        1.0080           
   15843 A    3961 TIP4 H2   HW0      0.679100        1.0080           
   15844 A    3961 TIP4 BD1  LP0     -1.358200        0.0000           
   15845 A    3962 TIP4 O1   OW0      0.000000       15.9990           
   15846 A    3962 TIP4 H1   HW0      0.679100        1.0080           
   15847 A    3962 TIP4 H2   HW0      0.679100        1.0080           
   15848 A    3962 TIP4 BD1  LP0     -1.358200        0.0000           
   15849 A    3963 TIP4 O1   OW0      0.000000       15.9990           
   15850 A    3963 TIP4 H1   HW0      0.679100        1.0080           
   15851 A    3963 TIP4 H2   HW0      0.679100        1.0080           
   15852 A    3963 TIP4 BD1  LP0     -1.358200        0.0000           
   15853 A    3964 TIP4 O1   OW0      0.000000       15.9990           
   15854 A    3964 TIP4 H1   HW0      0.679100        1.0080           
   15855 A    3964 TIP4 H2   HW0      0.679100        1.0080           
   15856 A    3964 TIP4 BD1  LP0     -1.358200        0.0000           
   15857 A    3965 TIP4 O1   OW0      0.000000       15.9990           
   15858 A    3965 TIP4 H1   HW0      0.679100        1.0080           
   15859 A    3965 TIP4 H2   HW0      0.679100        1.0080           
   15860 A    3965 TIP4 BD1  LP0     -1.358200        0.0000           
   15861 A    3966 TIP4 O1   OW0      0.000000       15.9990           
   15862 A    3966 TIP4 H1   HW0      0.679100        1.0080           
   15863 A    3966 TIP4 H2   HW0      0.679100        1.0080           
   15864 A    3966 TIP4 BD1  LP0     -1.358200        0.0000           
   15865 A    3967 TIP4 O1   OW0      0.000000       15.9990           
   15866 A    3967 TIP4 H1   HW0      0.679100        1.0080           
   15867 A    3967 TIP4 H2   HW0      0.679100        1.0080           
   15868 A    3967 TIP4 BD1  LP0     -1.358200        0.0000           
   15869 A    3968 TIP4 O1   OW0      0.000000       15.9990           
   15870 A    3968 TIP4 H1   HW0      0.679100        1.0080           
   15871 A    3968 TIP4 H2   HW0      0.679100        1.0080           
   15872 A    3968 TIP4 BD1  LP0     -1.358200        0.0000           
   15873 A    3969 TIP4 O1   OW0      0.000000       15.9990           
   15874 A    3969 TIP4 H1   HW0      0.679100        1.0080           
   15875 A    3969 TIP4 H2   HW0      0.679100        1.0080           
   15876 A    3969 TIP4 BD1  LP0     -1.358200        0.0000           
   15877 A    3970 TIP4 O1   OW0      0.000000       15.9990           
   15878 A    3970 TIP4 H1   HW0      0.679100        1.0080           
   15879 A    3970 TIP4 H2   HW0      0.679100        1.0080           
   15880 A    3970 TIP4 BD1  LP0     -1.358200        0.0000           
   15881 A    3971 TIP4 O1   OW0      0.000000       15.9990           
   15882 A    3971 TIP4 H1   HW0      0.679100        1.0080           
   15883 A    3971 TIP4 H2   HW0      0.679100        1.0080           
   15884 A    3971 TIP4 BD1  LP0     -1.358200        0.0000           
   15885 A    3972 TIP4 O1   OW0      0.000000       15.9990           
   15886 A    3972 TIP4 H1   HW0      0.679100        1.0080           
   15887 A    3972 TIP4 H2   HW0      0.679100        1.0080           
   15888 A    3972 TIP4 BD1  LP0     -1.358200        0.0000           
   15889 A    3973 TIP4 O1   OW0      0.000000       15.9990           
   15890 A    3973 TIP4 H1   HW0      0.679100        1.0080           
   15891 A    3973 TIP4 H2   HW0      0.679100        1.0080           
   15892 A    3973 TIP4 BD1  LP0     -1.358200        0.0000           
   15893 A    3974 TIP4 O1   OW0      0.000000       15.9990           
   15894 A    3974 TIP4 H1   HW0      0.679100        1.0080           
   15895 A    3974 TIP4 H2   HW0      0.679100        1.0080           
   15896 A    3974 TIP4 BD1  LP0     -1.358200        0.0000           
   15897 A    3975 TIP4 O1   OW0      0.000000       15.9990           
   15898 A    3975 TIP4 H1   HW0      0.679100        1.0080           
   15899 A    3975 TIP4 H2   HW0      0.679100        1.0080           
   15900 A    3975 TIP4 BD1  LP0     -1.358200        0.0000           
   15901 A    3976 TIP4 O1   OW0      0.000000       15.9990           
   15902 A    3976 TIP4 H1   HW0      0.679100        1.0080           
   15903 A    3976 TIP4 H2   HW0      0.679100        1.0080           
   15904 A    3976 TIP4 BD1  LP0     -1.358200        0.0000           
   15905 A    3977 TIP4 O1   OW0      0.000000       15.9990           
   15906 A    3977 TIP4 H1   HW0      0.679100        1.0080           
   15907 A    3977 TIP4 H2   HW0      0.679100        1.0080           
   15908 A    3977 TIP4 BD1  LP0     -1.358200        0.0000           
   15909 A    3978 TIP4 O1   OW0      0.000000       15.9990           
   15910 A    3978 TIP4 H1   HW0      0.679100        1.0080           
   15911 A    3978 TIP4 H2   HW0      0.679100        1.0080           
   15912 A    3978 TIP4 BD1  LP0     -1.358200        0.0000           
   15913 A    3979 TIP4 O1   OW0      0.000000       15.9990           
   15914 A    3979 TIP4 H1   HW0      0.679100        1.0080           
   15915 A    3979 TIP4 H2   HW0      0.679100        1.0080           
   15916 A    3979 TIP4 BD1  LP0     -1.358200        0.0000           
   15917 A    3980 TIP4 O1   OW0      0.000000       15.9990           
   15918 A    3980 TIP4 H1   HW0      0.679100        1.0080           
   15919 A    3980 TIP4 H2   HW0      0.679100        1.0080           
   15920 A    3980 TIP4 BD1  LP0     -1.358200        0.0000           
   15921 A    3981 TIP4 O1   OW0      0.000000       15.9990           
   15922 A    3981 TIP4 H1   HW0      0.679100        1.0080           
   15923 A    3981 TIP4 H2   HW0      0.679100        1.0080           
   15924 A    3981 TIP4 BD1  LP0     -1.358200        0.0000           
   15925 A    3982 TIP4 O1   OW0      0.000000       15.9990           
   15926 A    3982 TIP4 H1   HW0      0.679100        1.0080           
   15927 A    3982 TIP4 H2   HW0      0.679100        1.0080           
   15928 A    3982 TIP4 BD1  LP0     -1.358200        0.0000           
   15929 A    3983 TIP4 O1   OW0      0.000000       15.9990           
   15930 A    3983 TIP4 H1   HW0      0.679100        1.0080           
   15931 A    3983 TIP4 H2   HW0      0.679100        1.0080           
   15932 A    3983 TIP4 BD1  LP0     -1.358200        0.0000           
   15933 A    3984 TIP4 O1   OW0      0.000000       15.9990           
   15934 A    3984 TIP4 H1   HW0      0.679100        1.0080           
   15935 A    3984 TIP4 H2   HW0      0.679100        1.0080           
   15936 A    3984 TIP4 BD1  LP0     -1.358200        0.0000           
   15937 A    3985 TIP4 O1   OW0      0.000000       15.9990           
   15938 A    3985 TIP4 H1   HW0      0.679100        1.0080           
   15939 A    3985 TIP4 H2   HW0      0.679100        1.0080           
   15940 A    3985 TIP4 BD1  LP0     -1.358200        0.0000           
   15941 A    3986 TIP4 O1   OW0      0.000000       15.9990           
   15942 A    3986 TIP4 H1   HW0      0.679100        1.0080           
   15943 A    3986 TIP4 H2   HW0      0.679100        1.0080           
   15944 A    3986 TIP4 BD1  LP0     -1.358200        0.0000           
   15945 A    3987 TIP4 O1   OW0      0.000000       15.9990           
   15946 A    3987 TIP4 H1   HW0      0.679100        1.0080           
   15947 A    3987 TIP4 H2   HW0      0.679100        1.0080           
   15948 A    3987 TIP4 BD1  LP0     -1.358200        0.0000           
   15949 A    3988 TIP4 O1   OW0      0.000000       15.9990           
   15950 A    3988 TIP4 H1   HW0      0.679100        1.0080           
   15951 A    3988 TIP4 H2   HW0      0.679100        1.0080           
   15952 A    3988 TIP4 BD1  LP0     -1.358200        0.0000           
   15953 A    3989 TIP4 O1   OW0      0.000000       15.9990           
   15954 A    3989 TIP4 H1   HW0      0.679100        1.0080           
   15955 A    3989 TIP4 H2   HW0      0.679100        1.0080           
   15956 A    3989 TIP4 BD1  LP0     -1.358200        0.0000           
   15957 A    3990 TIP4 O1   OW0      0.000000       15.9990           
   15958 A    3990 TIP4 H1   HW0      0.679100        1.0080           
   15959 A    3990 TIP4 H2   HW0      0.679100        1.0080           
   15960 A    3990 TIP4 BD1  LP0     -1.358200        0.0000           
   15961 A    3991 TIP4 O1   OW0      0.000000       15.9990           
   15962 A    3991 TIP4 H1   HW0      0.679100        1.0080           
   15963 A    3991 TIP4 H2   HW0      0.679100        1.0080           
   15964 A    3991 TIP4 BD1  LP0     -1.358200        0.0000           
   15965 A    3992 TIP4 O1   OW0      0.000000       15.9990           
   15966 A    3992 TIP4 H1   HW0      0.679100        1.0080           
   15967 A    3992 TIP4 H2   HW0      0.679100        1.0080           
   15968 A    3992 TIP4 BD1  LP0     -1.358200        0.0000           
   15969 A    3993 TIP4 O1   OW0      0.000000       15.9990           
   15970 A    3993 TIP4 H1   HW0      0.679100        1.0080           
   15971 A    3993 TIP4 H2   HW0      0.679100        1.0080           
   15972 A    3993 TIP4 BD1  LP0     -1.358200        0.0000           
   15973 A    3994 TIP4 O1   OW0      0.000000       15.9990           
   15974 A    3994 TIP4 H1   HW0      0.679100        1.0080           
   15975 A    3994 TIP4 H2   HW0      0.679100        1.0080           
   15976 A    3994 TIP4 BD1  LP0     -1.358200        0.0000           
   15977 A    3995 TIP4 O1   OW0      0.000000       15.9990           
   15978 A    3995 TIP4 H1   HW0      0.679100        1.0080           
   15979 A    3995 TIP4 H2   HW0      0.679100        1.0080           
   15980 A    3995 TIP4 BD1  LP0     -1.358200        0.0000           
   15981 A    3996 TIP4 O1   OW0      0.000000       15.9990           
   15982 A    3996 TIP4 H1   HW0      0.679100        1.0080           
   15983 A    3996 TIP4 H2   HW0      0.679100        1.0080           
   15984 A    3996 TIP4 BD1  LP0     -1.358200        0.0000           
   15985 A    3997 TIP4 O1   OW0      0.000000       15.9990           
   15986 A    3997 TIP4 H1   HW0      0.679100        1.0080           
   15987 A    3997 TIP4 H2   HW0      0.679100        1.0080           
   15988 A    3997 TIP4 BD1  LP0     -1.358200        0.0000           
   15989 A    3998 TIP4 O1   OW0      0.000000       15.9990           
   15990 A    3998 TIP4 H1   HW0      0.679100        1.0080           
   15991 A    3998 TIP4 H2   HW0      0.679100        1.0080           
   15992 A    3998 TIP4 BD1  LP0     -1.358200        0.0000           
   15993 A    3999 TIP4 O1   OW0      0.000000       15.9990           
   15994 A    3999 TIP4 H1   HW0      0.679100        1.0080           
   15995 A    3999 TIP4 H2   HW0      0.679100        1.0080           
   15996 A    3999 TIP4 BD1  LP0     -1.358200        0.0000           
   15997 A    4000 TIP4 O1   OW0      0.000000       15.9990           
   15998 A    4000 TIP4 H1   HW0      0.679100        1.0080           
   15999 A    4000 TIP4 H2   HW0      0.679100        1.0080           
   16000 A    4000 TIP4 BD1  LP0     -1.358200        0.0000           
   16001 A    4001 TIP4 O1   OW0      0.000000       15.9990           
   16002 A    4001 TIP4 H1   HW0      0.679100        1.0080           
   16003 A    4001 TIP4 H2   HW0      0.679100        1.0080           
   16004 A    4001 TIP4 BD1  LP0     -1.358200        0.0000           
   16005 A    4002 TIP4 O1   OW0      0.000000       15.9990           
   16006 A    4002 TIP4 H1   HW0      0.679100        1.0080           
   16007 A    4002 TIP4 H2   HW0      0.679100        1.0080           
   16008 A    4002 TIP4 BD1  LP0     -1.358200        0.0000           
   16009 A    4003 TIP4 O1   OW0      0.000000       15.9990           
   16010 A    4003 TIP4 H1   HW0      0.679100        1.0080           
   16011 A    4003 TIP4 H2   HW0      0.679100        1.0080           
   16012 A    4003 TIP4 BD1  LP0     -1.358200        0.0000           
   16013 A    4004 TIP4 O1   OW0      0.000000       15.9990           
   16014 A    4004 TIP4 H1   HW0      0.679100        1.0080           
   16015 A    4004 TIP4 H2   HW0      0.679100        1.0080           
   16016 A    4004 TIP4 BD1  LP0     -1.358200        0.0000           
   16017 A    4005 TIP4 O1   OW0      0.000000       15.9990           
   16018 A    4005 TIP4 H1   HW0      0.679100        1.0080           
   16019 A    4005 TIP4 H2   HW0      0.679100        1.0080           
   16020 A    4005 TIP4 BD1  LP0     -1.358200        0.0000           
   16021 A    4006 TIP4 O1   OW0      0.000000       15.9990           
   16022 A    4006 TIP4 H1   HW0      0.679100        1.0080           
   16023 A    4006 TIP4 H2   HW0      0.679100        1.0080           
   16024 A    4006 TIP4 BD1  LP0     -1.358200        0.0000           
   16025 A    4007 TIP4 O1   OW0      0.000000       15.9990           
   16026 A    4007 TIP4 H1   HW0      0.679100        1.0080           
   16027 A    4007 TIP4 H2   HW0      0.679100        1.0080           
   16028 A    4007 TIP4 BD1  LP0     -1.358200        0.0000           
   16029 A    4008 TIP4 O1   OW0      0.000000       15.9990           
   16030 A    4008 TIP4 H1   HW0      0.679100        1.0080           
   16031 A    4008 TIP4 H2   HW0      0.679100        1.0080           
   16032 A    4008 TIP4 BD1  LP0     -1.358200        0.0000           
   16033 A    4009 TIP4 O1   OW0      0.000000       15.9990           
   16034 A    4009 TIP4 H1   HW0      0.679100        1.0080           
   16035 A    4009 TIP4 H2   HW0      0.679100        1.0080           
   16036 A    4009 TIP4 BD1  LP0     -1.358200        0.0000           
   16037 A    4010 TIP4 O1   OW0      0.000000       15.9990           
   16038 A    4010 TIP4 H1   HW0      0.679100        1.0080           
   16039 A    4010 TIP4 H2   HW0      0.679100        1.0080           
   16040 A    4010 TIP4 BD1  LP0     -1.358200        0.0000           
   16041 A    4011 TIP4 O1   OW0      0.000000       15.9990           
   16042 A    4011 TIP4 H1   HW0      0.679100        1.0080           
   16043 A    4011 TIP4 H2   HW0      0.679100        1.0080           
   16044 A    4011 TIP4 BD1  LP0     -1.358200        0.0000           
   16045 A    4012 TIP4 O1   OW0      0.000000       15.9990           
   16046 A    4012 TIP4 H1   HW0      0.679100        1.0080           
   16047 A    4012 TIP4 H2   HW0      0.679100        1.0080           
   16048 A    4012 TIP4 BD1  LP0     -1.358200        0.0000           
   16049 A    4013 TIP4 O1   OW0      0.000000       15.9990           
   16050 A    4013 TIP4 H1   HW0      0.679100        1.0080           
   16051 A    4013 TIP4 H2   HW0      0.679100        1.0080           
   16052 A    4013 TIP4 BD1  LP0     -1.358200        0.0000           
   16053 A    4014 TIP4 O1   OW0      0.000000       15.9990           
   16054 A    4014 TIP4 H1   HW0      0.679100        1.0080           
   16055 A    4014 TIP4 H2   HW0      0.679100        1.0080           
   16056 A    4014 TIP4 BD1  LP0     -1.358200        0.0000           
   16057 A    4015 TIP4 O1   OW0      0.000000       15.9990           
   16058 A    4015 TIP4 H1   HW0      0.679100        1.0080           
   16059 A    4015 TIP4 H2   HW0      0.679100        1.0080           
   16060 A    4015 TIP4 BD1  LP0     -1.358200        0.0000           
   16061 A    4016 TIP4 O1   OW0      0.000000       15.9990           
   16062 A    4016 TIP4 H1   HW0      0.679100        1.0080           
   16063 A    4016 TIP4 H2   HW0      0.679100        1.0080           
   16064 A    4016 TIP4 BD1  LP0     -1.358200        0.0000           
   16065 A    4017 TIP4 O1   OW0      0.000000       15.9990           
   16066 A    4017 TIP4 H1   HW0      0.679100        1.0080           
   16067 A    4017 TIP4 H2   HW0      0.679100        1.0080           
   16068 A    4017 TIP4 BD1  LP0     -1.358200        0.0000           
   16069 A    4018 TIP4 O1   OW0      0.000000       15.9990           
   16070 A    4018 TIP4 H1   HW0      0.679100        1.0080           
   16071 A    4018 TIP4 H2   HW0      0.679100        1.0080           
   16072 A    4018 TIP4 BD1  LP0     -1.358200        0.0000           
   16073 A    4019 TIP4 O1   OW0      0.000000       15.9990           
   16074 A    4019 TIP4 H1   HW0      0.679100        1.0080           
   16075 A    4019 TIP4 H2   HW0      0.679100        1.0080           
   16076 A    4019 TIP4 BD1  LP0     -1.358200        0.0000           
   16077 A    4020 TIP4 O1   OW0      0.000000       15.9990           
   16078 A    4020 TIP4 H1   HW0      0.679100        1.0080           
   16079 A    4020 TIP4 H2   HW0      0.679100        1.0080           
   16080 A    4020 TIP4 BD1  LP0     -1.358200        0.0000           
   16081 A    4021 TIP4 O1   OW0      0.000000       15.9990           
   16082 A    4021 TIP4 H1   HW0      0.679100        1.0080           
   16083 A    4021 TIP4 H2   HW0      0.679100        1.0080           
   16084 A    4021 TIP4 BD1  LP0     -1.358200        0.0000           
   16085 A    4022 TIP4 O1   OW0      0.000000       15.9990           
   16086 A    4022 TIP4 H1   HW0      0.679100        1.0080           
   16087 A    4022 TIP4 H2   HW0      0.679100        1.0080           
   16088 A    4022 TIP4 BD1  LP0     -1.358200        0.0000           
   16089 A    4023 TIP4 O1   OW0      0.000000       15.9990           
   16090 A    4023 TIP4 H1   HW0      0.679100        1.0080           
   16091 A    4023 TIP4 H2   HW0      0.679100        1.0080           
   16092 A    4023 TIP4 BD1  LP0     -1.358200        0.0000           
   16093 A    4024 TIP4 O1   OW0      0.000000       15.9990           
   16094 A    4024 TIP4 H1   HW0      0.679100        1.0080           
   16095 A    4024 TIP4 H2   HW0      0.679100        1.0080           
   16096 A    4024 TIP4 BD1  LP0     -1.358200        0.0000           
   16097 A    4025 TIP4 O1   OW0      0.000000       15.9990           
   16098 A    4025 TIP4 H1   HW0      0.679100        1.0080           
   16099 A    4025 TIP4 H2   HW0      0.679100        1.0080           
   16100 A    4025 TIP4 BD1  LP0     -1.358200        0.0000           
   16101 A    4026 TIP4 O1   OW0      0.000000       15.9990           
   16102 A    4026 TIP4 H1   HW0      0.679100        1.0080           
   16103 A    4026 TIP4 H2   HW0      0.679100        1.0080           
   16104 A    4026 TIP4 BD1  LP0     -1.358200        0.0000           
   16105 A    4027 TIP4 O1   OW0      0.000000       15.9990           
   16106 A    4027 TIP4 H1   HW0      0.679100        1.0080           
   16107 A    4027 TIP4 H2   HW0      0.679100        1.0080           
   16108 A    4027 TIP4 BD1  LP0     -1.358200        0.0000           
   16109 A    4028 TIP4 O1   OW0      0.000000       15.9990           
   16110 A    4028 TIP4 H1   HW0      0.679100        1.0080           
   16111 A    4028 TIP4 H2   HW0      0.679100        1.0080           
   16112 A    4028 TIP4 BD1  LP0     -1.358200        0.0000           
   16113 A    4029 TIP4 O1   OW0      0.000000       15.9990           
   16114 A    4029 TIP4 H1   HW0      0.679100        1.0080           
   16115 A    4029 TIP4 H2   HW0      0.679100        1.0080           
   16116 A    4029 TIP4 BD1  LP0     -1.358200        0.0000           
   16117 A    4030 TIP4 O1   OW0      0.000000       15.9990           
   16118 A    4030 TIP4 H1   HW0      0.679100        1.0080           
   16119 A    4030 TIP4 H2   HW0      0.679100        1.0080           
   16120 A    4030 TIP4 BD1  LP0     -1.358200        0.0000           
   16121 A    4031 TIP4 O1   OW0      0.000000       15.9990           
   16122 A    4031 TIP4 H1   HW0      0.679100        1.0080           
   16123 A    4031 TIP4 H2   HW0      0.679100        1.0080           
   16124 A    4031 TIP4 BD1  LP0     -1.358200        0.0000           
   16125 A    4032 TIP4 O1   OW0      0.000000       15.9990           
   16126 A    4032 TIP4 H1   HW0      0.679100        1.0080           
   16127 A    4032 TIP4 H2   HW0      0.679100        1.0080           
   16128 A    4032 TIP4 BD1  LP0     -1.358200        0.0000           
   16129 A    4033 TIP4 O1   OW0      0.000000       15.9990           
   16130 A    4033 TIP4 H1   HW0      0.679100        1.0080           
   16131 A    4033 TIP4 H2   HW0      0.679100        1.0080           
   16132 A    4033 TIP4 BD1  LP0     -1.358200        0.0000           
   16133 A    4034 TIP4 O1   OW0      0.000000       15.9990           
   16134 A    4034 TIP4 H1   HW0      0.679100        1.0080           
   16135 A    4034 TIP4 H2   HW0      0.679100        1.0080           
   16136 A    4034 TIP4 BD1  LP0     -1.358200        0.0000           
   16137 A    4035 TIP4 O1   OW0      0.000000       15.9990           
   16138 A    4035 TIP4 H1   HW0      0.679100        1.0080           
   16139 A    4035 TIP4 H2   HW0      0.679100        1.0080           
   16140 A    4035 TIP4 BD1  LP0     -1.358200        0.0000           
   16141 A    4036 TIP4 O1   OW0      0.000000       15.9990           
   16142 A    4036 TIP4 H1   HW0      0.679100        1.0080           
   16143 A    4036 TIP4 H2   HW0      0.679100        1.0080           
   16144 A    4036 TIP4 BD1  LP0     -1.358200        0.0000           
   16145 A    4037 TIP4 O1   OW0      0.000000       15.9990           
   16146 A    4037 TIP4 H1   HW0      0.679100        1.0080           
   16147 A    4037 TIP4 H2   HW0      0.679100        1.0080           
   16148 A    4037 TIP4 BD1  LP0     -1.358200        0.0000           
   16149 A    4038 TIP4 O1   OW0      0.000000       15.9990           
   16150 A    4038 TIP4 H1   HW0      0.679100        1.0080           
   16151 A    4038 TIP4 H2   HW0      0.679100        1.0080           
   16152 A    4038 TIP4 BD1  LP0     -1.358200        0.0000           
   16153 A    4039 TIP4 O1   OW0      0.000000       15.9990           
   16154 A    4039 TIP4 H1   HW0      0.679100        1.0080           
   16155 A    4039 TIP4 H2   HW0      0.679100        1.0080           
   16156 A    4039 TIP4 BD1  LP0     -1.358200        0.0000           
   16157 A    4040 TIP4 O1   OW0      0.000000       15.9990           
   16158 A    4040 TIP4 H1   HW0      0.679100        1.0080           
   16159 A    4040 TIP4 H2   HW0      0.679100        1.0080           
   16160 A    4040 TIP4 BD1  LP0     -1.358200        0.0000           
   16161 A    4041 TIP4 O1   OW0      0.000000       15.9990           
   16162 A    4041 TIP4 H1   HW0      0.679100        1.0080           
   16163 A    4041 TIP4 H2   HW0      0.679100        1.0080           
   16164 A    4041 TIP4 BD1  LP0     -1.358200        0.0000           
   16165 A    4042 TIP4 O1   OW0      0.000000       15.9990           
   16166 A    4042 TIP4 H1   HW0      0.679100        1.0080           
   16167 A    4042 TIP4 H2   HW0      0.679100        1.0080           
   16168 A    4042 TIP4 BD1  LP0     -1.358200        0.0000           
   16169 A    4043 TIP4 O1   OW0      0.000000       15.9990           
   16170 A    4043 TIP4 H1   HW0      0.679100        1.0080           
   16171 A    4043 TIP4 H2   HW0      0.679100        1.0080           
   16172 A    4043 TIP4 BD1  LP0     -1.358200        0.0000           
   16173 A    4044 TIP4 O1   OW0      0.000000       15.9990           
   16174 A    4044 TIP4 H1   HW0      0.679100        1.0080           
   16175 A    4044 TIP4 H2   HW0      0.679100        1.0080           
   16176 A    4044 TIP4 BD1  LP0     -1.358200        0.0000           
   16177 A    4045 TIP4 O1   OW0      0.000000       15.9990           
   16178 A    4045 TIP4 H1   HW0      0.679100        1.0080           
   16179 A    4045 TIP4 H2   HW0      0.679100        1.0080           
   16180 A    4045 TIP4 BD1  LP0     -1.358200        0.0000           
   16181 A    4046 TIP4 O1   OW0      0.000000       15.9990           
   16182 A    4046 TIP4 H1   HW0      0.679100        1.0080           
   16183 A    4046 TIP4 H2   HW0      0.679100        1.0080           
   16184 A    4046 TIP4 BD1  LP0     -1.358200        0.0000           
   16185 A    4047 TIP4 O1   OW0      0.000000       15.9990           
   16186 A    4047 TIP4 H1   HW0      0.679100        1.0080           
   16187 A    4047 TIP4 H2   HW0      0.679100        1.0080           
   16188 A    4047 TIP4 BD1  LP0     -1.358200        0.0000           
   16189 A    4048 TIP4 O1   OW0      0.000000       15.9990           
   16190 A    4048 TIP4 H1   HW0      0.679100        1.0080           
   16191 A    4048 TIP4 H2   HW0      0.679100        1.0080           
   16192 A    4048 TIP4 BD1  LP0     -1.358200        0.0000           
   16193 A    4049 TIP4 O1   OW0      0.000000       15.9990           
   16194 A    4049 TIP4 H1   HW0      0.679100        1.0080           
   16195 A    4049 TIP4 H2   HW0      0.679100        1.0080           
   16196 A    4049 TIP4 BD1  LP0     -1.358200        0.0000           
   16197 A    4050 TIP4 O1   OW0      0.000000       15.9990           
   16198 A    4050 TIP4 H1   HW0      0.679100        1.0080           
   16199 A    4050 TIP4 H2   HW0      0.679100        1.0080           
   16200 A    4050 TIP4 BD1  LP0     -1.358200        0.0000           
   16201 A    4051 TIP4 O1   OW0      0.000000       15.9990           
   16202 A    4051 TIP4 H1   HW0      0.679100        1.0080           
   16203 A    4051 TIP4 H2   HW0      0.679100        1.0080           
   16204 A    4051 TIP4 BD1  LP0     -1.358200        0.0000           
   16205 A    4052 TIP4 O1   OW0      0.000000       15.9990           
   16206 A    4052 TIP4 H1   HW0      0.679100        1.0080           
   16207 A    4052 TIP4 H2   HW0      0.679100        1.0080           
   16208 A    4052 TIP4 BD1  LP0     -1.358200        0.0000           
   16209 A    4053 TIP4 O1   OW0      0.000000       15.9990           
   16210 A    4053 TIP4 H1   HW0      0.679100        1.0080           
   16211 A    4053 TIP4 H2   HW0      0.679100        1.0080           
   16212 A    4053 TIP4 BD1  LP0     -1.358200        0.0000           
   16213 A    4054 TIP4 O1   OW0      0.000000       15.9990           
   16214 A    4054 TIP4 H1   HW0      0.679100        1.0080           
   16215 A    4054 TIP4 H2   HW0      0.679100        1.0080           
   16216 A    4054 TIP4 BD1  LP0     -1.358200        0.0000           
   16217 A    4055 TIP4 O1   OW0      0.000000       15.9990           
   16218 A    4055 TIP4 H1   HW0      0.679100        1.0080           
   16219 A    4055 TIP4 H2   HW0      0.679100        1.0080           
   16220 A    4055 TIP4 BD1  LP0     -1.358200        0.0000           
   16221 A    4056 TIP4 O1   OW0      0.000000       15.9990           
   16222 A    4056 TIP4 H1   HW0      0.679100        1.0080           
   16223 A    4056 TIP4 H2   HW0      0.679100        1.0080           
   16224 A    4056 TIP4 BD1  LP0     -1.358200        0.0000           
   16225 A    4057 TIP4 O1   OW0      0.000000       15.9990           
   16226 A    4057 TIP4 H1   HW0      0.679100        1.0080           
   16227 A    4057 TIP4 H2   HW0      0.679100        1.0080           
   16228 A    4057 TIP4 BD1  LP0     -1.358200        0.0000           
   16229 A    4058 TIP4 O1   OW0      0.000000       15.9990           
   16230 A    4058 TIP4 H1   HW0      0.679100        1.0080           
   16231 A    4058 TIP4 H2   HW0      0.679100        1.0080           
   16232 A    4058 TIP4 BD1  LP0     -1.358200        0.0000           
   16233 A    4059 TIP4 O1   OW0      0.000000       15.9990           
   16234 A    4059 TIP4 H1   HW0      0.679100        1.0080           
   16235 A    4059 TIP4 H2   HW0      0.679100        1.0080           
   16236 A    4059 TIP4 BD1  LP0     -1.358200        0.0000           
   16237 A    4060 TIP4 O1   OW0      0.000000       15.9990           
   16238 A    4060 TIP4 H1   HW0      0.679100        1.0080           
   16239 A    4060 TIP4 H2   HW0      0.679100        1.0080           
   16240 A    4060 TIP4 BD1  LP0     -1.358200        0.0000           
   16241 A    4061 TIP4 O1   OW0      0.000000       15.9990           
   16242 A    4061 TIP4 H1   HW0      0.679100        1.0080           
   16243 A    4061 TIP4 H2   HW0      0.679100        1.0080           
   16244 A    4061 TIP4 BD1  LP0     -1.358200        0.0000           
   16245 A    4062 TIP4 O1   OW0      0.000000       15.9990           
   16246 A    4062 TIP4 H1   HW0      0.679100        1.0080           
   16247 A    4062 TIP4 H2   HW0      0.679100        1.0080           
   16248 A    4062 TIP4 BD1  LP0     -1.358200        0.0000           
   16249 A    4063 TIP4 O1   OW0      0.000000       15.9990           
   16250 A    4063 TIP4 H1   HW0      0.679100        1.0080           
   16251 A    4063 TIP4 H2   HW0      0.679100        1.0080           
   16252 A    4063 TIP4 BD1  LP0     -1.358200        0.0000           
   16253 A    4064 TIP4 O1   OW0      0.000000       15.9990           
   16254 A    4064 TIP4 H1   HW0      0.679100        1.0080           
   16255 A    4064 TIP4 H2   HW0      0.679100        1.0080           
   16256 A    4064 TIP4 BD1  LP0     -1.358200        0.0000           
   16257 A    4065 TIP4 O1   OW0      0.000000       15.9990           
   16258 A    4065 TIP4 H1   HW0      0.679100        1.0080           
   16259 A    4065 TIP4 H2   HW0      0.679100        1.0080           
   16260 A    4065 TIP4 BD1  LP0     -1.358200        0.0000           
   16261 A    4066 TIP4 O1   OW0      0.000000       15.9990           
   16262 A    4066 TIP4 H1   HW0      0.679100        1.0080           
   16263 A    4066 TIP4 H2   HW0      0.679100        1.0080           
   16264 A    4066 TIP4 BD1  LP0     -1.358200        0.0000           
   16265 A    4067 TIP4 O1   OW0      0.000000       15.9990           
   16266 A    4067 TIP4 H1   HW0      0.679100        1.0080           
   16267 A    4067 TIP4 H2   HW0      0.679100        1.0080           
   16268 A    4067 TIP4 BD1  LP0     -1.358200        0.0000           
   16269 A    4068 TIP4 O1   OW0      0.000000       15.9990           
   16270 A    4068 TIP4 H1   HW0      0.679100        1.0080           
   16271 A    4068 TIP4 H2   HW0      0.679100        1.0080           
   16272 A    4068 TIP4 BD1  LP0     -1.358200        0.0000           
   16273 A    4069 TIP4 O1   OW0      0.000000       15.9990           
   16274 A    4069 TIP4 H1   HW0      0.679100        1.0080           
   16275 A    4069 TIP4 H2   HW0      0.679100        1.0080           
   16276 A    4069 TIP4 BD1  LP0     -1.358200        0.0000           
   16277 A    4070 TIP4 O1   OW0      0.000000       15.9990           
   16278 A    4070 TIP4 H1   HW0      0.679100        1.0080           
   16279 A    4070 TIP4 H2   HW0      0.679100        1.0080           
   16280 A    4070 TIP4 BD1  LP0     -1.358200        0.0000           
   16281 A    4071 TIP4 O1   OW0      0.000000       15.9990           
   16282 A    4071 TIP4 H1   HW0      0.679100        1.0080           
   16283 A    4071 TIP4 H2   HW0      0.679100        1.0080           
   16284 A    4071 TIP4 BD1  LP0     -1.358200        0.0000           
   16285 A    4072 TIP4 O1   OW0      0.000000       15.9990           
   16286 A    4072 TIP4 H1   HW0      0.679100        1.0080           
   16287 A    4072 TIP4 H2   HW0      0.679100        1.0080           
   16288 A    4072 TIP4 BD1  LP0     -1.358200        0.0000           
   16289 A    4073 TIP4 O1   OW0      0.000000       15.9990           
   16290 A    4073 TIP4 H1   HW0      0.679100        1.0080           
   16291 A    4073 TIP4 H2   HW0      0.679100        1.0080           
   16292 A    4073 TIP4 BD1  LP0     -1.358200        0.0000           
   16293 A    4074 TIP4 O1   OW0      0.000000       15.9990           
   16294 A    4074 TIP4 H1   HW0      0.679100        1.0080           
   16295 A    4074 TIP4 H2   HW0      0.679100        1.0080           
   16296 A    4074 TIP4 BD1  LP0     -1.358200        0.0000           
   16297 A    4075 TIP4 O1   OW0      0.000000       15.9990           
   16298 A    4075 TIP4 H1   HW0      0.679100        1.0080           
   16299 A    4075 TIP4 H2   HW0      0.679100        1.0080           
   16300 A    4075 TIP4 BD1  LP0     -1.358200        0.0000           
   16301 A    4076 TIP4 O1   OW0      0.000000       15.9990           
   16302 A    4076 TIP4 H1   HW0      0.679100        1.0080           
   16303 A    4076 TIP4 H2   HW0      0.679100        1.0080           
   16304 A    4076 TIP4 BD1  LP0     -1.358200        0.0000           
   16305 A    4077 TIP4 O1   OW0      0.000000       15.9990           
   16306 A    4077 TIP4 H1   HW0      0.679100        1.0080           
   16307 A    4077 TIP4 H2   HW0      0.679100        1.0080           
   16308 A    4077 TIP4 BD1  LP0     -1.358200        0.0000           
   16309 A    4078 TIP4 O1   OW0      0.000000       15.9990           
   16310 A    4078 TIP4 H1   HW0      0.679100        1.0080           
   16311 A    4078 TIP4 H2   HW0      0.679100        1.0080           
   16312 A    4078 TIP4 BD1  LP0     -1.358200        0.0000           
   16313 A    4079 TIP4 O1   OW0      0.000000       15.9990           
   16314 A    4079 TIP4 H1   HW0      0.679100        1.0080           
   16315 A    4079 TIP4 H2   HW0      0.679100        1.0080           
   16316 A    4079 TIP4 BD1  LP0     -1.358200        0.0000           
   16317 A    4080 TIP4 O1   OW0      0.000000       15.9990           
   16318 A    4080 TIP4 H1   HW0      0.679100        1.0080           
   16319 A    4080 TIP4 H2   HW0      0.679100        1.0080           
   16320 A    4080 TIP4 BD1  LP0     -1.358200        0.0000           
   16321 A    4081 TIP4 O1   OW0      0.000000       15.9990           
   16322 A    4081 TIP4 H1   HW0      0.679100        1.0080           
   16323 A    4081 TIP4 H2   HW0      0.679100        1.0080           
   16324 A    4081 TIP4 BD1  LP0     -1.358200        0.0000           
   16325 A    4082 TIP4 O1   OW0      0.000000       15.9990           
   16326 A    4082 TIP4 H1   HW0      0.679100        1.0080           
   16327 A    4082 TIP4 H2   HW0      0.679100        1.0080           
   16328 A    4082 TIP4 BD1  LP0     -1.358200        0.0000           
   16329 A    4083 TIP4 O1   OW0      0.000000       15.9990           
   16330 A    4083 TIP4 H1   HW0      0.679100        1.0080           
   16331 A    4083 TIP4 H2   HW0      0.679100        1.0080           
   16332 A    4083 TIP4 BD1  LP0     -1.358200        0.0000           
   16333 A    4084 TIP4 O1   OW0      0.000000       15.9990           
   16334 A    4084 TIP4 H1   HW0      0.679100        1.0080           
   16335 A    4084 TIP4 H2   HW0      0.679100        1.0080           
   16336 A    4084 TIP4 BD1  LP0     -1.358200        0.0000           
   16337 A    4085 TIP4 O1   OW0      0.000000       15.9990           
   16338 A    4085 TIP4 H1   HW0      0.679100        1.0080           
   16339 A    4085 TIP4 H2   HW0      0.679100        1.0080           
   16340 A    4085 TIP4 BD1  LP0     -1.358200        0.0000           
   16341 A    4086 TIP4 O1   OW0      0.000000       15.9990           
   16342 A    4086 TIP4 H1   HW0      0.679100        1.0080           
   16343 A    4086 TIP4 H2   HW0      0.679100        1.0080           
   16344 A    4086 TIP4 BD1  LP0     -1.358200        0.0000           
   16345 A    4087 TIP4 O1   OW0      0.000000       15.9990           
   16346 A    4087 TIP4 H1   HW0      0.679100        1.0080           
   16347 A    4087 TIP4 H2   HW0      0.679100        1.0080           
   16348 A    4087 TIP4 BD1  LP0     -1.358200        0.0000           
   16349 A    4088 TIP4 O1   OW0      0.000000       15.9990           
   16350 A    4088 TIP4 H1   HW0      0.679100        1.0080           
   16351 A    4088 TIP4 H2   HW0      0.679100        1.0080           
   16352 A    4088 TIP4 BD1  LP0     -1.358200        0.0000           
   16353 A    4089 TIP4 O1   OW0      0.000000       15.9990           
   16354 A    4089 TIP4 H1   HW0      0.679100        1.0080           
   16355 A    4089 TIP4 H2   HW0      0.679100        1.0080           
   16356 A    4089 TIP4 BD1  LP0     -1.358200        0.0000           
   16357 A    4090 TIP4 O1   OW0      0.000000       15.9990           
   16358 A    4090 TIP4 H1   HW0      0.679100        1.0080           
   16359 A    4090 TIP4 H2   HW0      0.679100        1.0080           
   16360 A    4090 TIP4 BD1  LP0     -1.358200        0.0000           
   16361 A    4091 TIP4 O1   OW0      0.000000       15.9990           
   16362 A    4091 TIP4 H1   HW0      0.679100        1.0080           
   16363 A    4091 TIP4 H2   HW0      0.679100        1.0080           
   16364 A    4091 TIP4 BD1  LP0     -1.358200        0.0000           
   16365 A    4092 TIP4 O1   OW0      0.000000       15.9990           
   16366 A    4092 TIP4 H1   HW0      0.679100        1.0080           
   16367 A    4092 TIP4 H2   HW0      0.679100        1.0080           
   16368 A    4092 TIP4 BD1  LP0     -1.358200        0.0000           
   16369 A    4093 TIP4 O1   OW0      0.000000       15.9990           
   16370 A    4093 TIP4 H1   HW0      0.679100        1.0080           
   16371 A    4093 TIP4 H2   HW0      0.679100        1.0080           
   16372 A    4093 TIP4 BD1  LP0     -1.358200        0.0000           
   16373 A    4094 TIP4 O1   OW0      0.000000       15.9990           
   16374 A    4094 TIP4 H1   HW0      0.679100        1.0080           
   16375 A    4094 TIP4 H2   HW0      0.679100        1.0080           
   16376 A    4094 TIP4 BD1  LP0     -1.358200        0.0000           
   16377 A    4095 TIP4 O1   OW0      0.000000       15.9990           
   16378 A    4095 TIP4 H1   HW0      0.679100        1.0080           
   16379 A    4095 TIP4 H2   HW0      0.679100        1.0080           
   16380 A    4095 TIP4 BD1  LP0     -1.358200        0.0000           
   16381 A    4096 TIP4 O1   OW0      0.000000       15.9990           
   16382 A    4096 TIP4 H1   HW0      0.679100        1.0080           
   16383 A    4096 TIP4 H2   HW0      0.679100        1.0080           
   16384 A    4096 TIP4 BD1  LP0     -1.358200        0.0000           
   16385 A    4097 TIP4 O1   OW0      0.000000       15.9990           
   16386 A    4097 TIP4 H1   HW0      0.679100        1.0080           
   16387 A    4097 TIP4 H2   HW0      0.679100        1.0080           
   16388 A    4097 TIP4 BD1  LP0     -1.358200        0.0000           
   16389 A    4098 TIP4 O1   OW0      0.000000       15.9990           
   16390 A    4098 TIP4 H1   HW0      0.679100        1.0080           
   16391 A    4098 TIP4 H2   HW0      0.679100        1.0080           
   16392 A    4098 TIP4 BD1  LP0     -1.358200        0.0000           
   16393 A    4099 TIP4 O1   OW0      0.000000       15.9990           
   16394 A    4099 TIP4 H1   HW0      0.679100        1.0080           
   16395 A    4099 TIP4 H2   HW0      0.679100        1.0080           
   16396 A    4099 TIP4 BD1  LP0     -1.358200        0.0000           
   16397 A    4100 TIP4 O1   OW0      0.000000       15.9990           
   16398 A    4100 TIP4 H1   HW0      0.679100        1.0080           
   16399 A    4100 TIP4 H2   HW0      0.679100        1.0080           
   16400 A    4100 TIP4 BD1  LP0     -1.358200        0.0000           
   16401 A    4101 TIP4 O1   OW0      0.000000       15.9990           
   16402 A    4101 TIP4 H1   HW0      0.679100        1.0080           
   16403 A    4101 TIP4 H2   HW0      0.679100        1.0080           
   16404 A    4101 TIP4 BD1  LP0     -1.358200        0.0000           
   16405 A    4102 TIP4 O1   OW0      0.000000       15.9990           
   16406 A    4102 TIP4 H1   HW0      0.679100        1.0080           
   16407 A    4102 TIP4 H2   HW0      0.679100        1.0080           
   16408 A    4102 TIP4 BD1  LP0     -1.358200        0.0000           
   16409 A    4103 TIP4 O1   OW0      0.000000       15.9990           
   16410 A    4103 TIP4 H1   HW0      0.679100        1.0080           
   16411 A    4103 TIP4 H2   HW0      0.679100        1.0080           
   16412 A    4103 TIP4 BD1  LP0     -1.358200        0.0000           
   16413 A    4104 TIP4 O1   OW0      0.000000       15.9990           
   16414 A    4104 TIP4 H1   HW0      0.679100        1.0080           
   16415 A    4104 TIP4 H2   HW0      0.679100        1.0080           
   16416 A    4104 TIP4 BD1  LP0     -1.358200        0.0000           
   16417 A    4105 TIP4 O1   OW0      0.000000       15.9990           
   16418 A    4105 TIP4 H1   HW0      0.679100        1.0080           
   16419 A    4105 TIP4 H2   HW0      0.679100        1.0080           
   16420 A    4105 TIP4 BD1  LP0     -1.358200        0.0000           
   16421 A    4106 TIP4 O1   OW0      0.000000       15.9990           
   16422 A    4106 TIP4 H1   HW0      0.679100        1.0080           
   16423 A    4106 TIP4 H2   HW0      0.679100        1.0080           
   16424 A    4106 TIP4 BD1  LP0     -1.358200        0.0000           
   16425 A    4107 TIP4 O1   OW0      0.000000       15.9990           
   16426 A    4107 TIP4 H1   HW0      0.679100        1.0080           
   16427 A    4107 TIP4 H2   HW0      0.679100        1.0080           
   16428 A    4107 TIP4 BD1  LP0     -1.358200        0.0000           
   16429 A    4108 TIP4 O1   OW0      0.000000       15.9990           
   16430 A    4108 TIP4 H1   HW0      0.679100        1.0080           
   16431 A    4108 TIP4 H2   HW0      0.679100        1.0080           
   16432 A    4108 TIP4 BD1  LP0     -1.358200        0.0000           
   16433 A    4109 TIP4 O1   OW0      0.000000       15.9990           
   16434 A    4109 TIP4 H1   HW0      0.679100        1.0080           
   16435 A    4109 TIP4 H2   HW0      0.679100        1.0080           
   16436 A    4109 TIP4 BD1  LP0     -1.358200        0.0000           
   16437 A    4110 TIP4 O1   OW0      0.000000       15.9990           
   16438 A    4110 TIP4 H1   HW0      0.679100        1.0080           
   16439 A    4110 TIP4 H2   HW0      0.679100        1.0080           
   16440 A    4110 TIP4 BD1  LP0     -1.358200        0.0000           
   16441 A    4111 TIP4 O1   OW0      0.000000       15.9990           
   16442 A    4111 TIP4 H1   HW0      0.679100        1.0080           
   16443 A    4111 TIP4 H2   HW0      0.679100        1.0080           
   16444 A    4111 TIP4 BD1  LP0     -1.358200        0.0000           
   16445 A    4112 TIP4 O1   OW0      0.000000       15.9990           
   16446 A    4112 TIP4 H1   HW0      0.679100        1.0080           
   16447 A    4112 TIP4 H2   HW0      0.679100        1.0080           
   16448 A    4112 TIP4 BD1  LP0     -1.358200        0.0000           
   16449 A    4113 TIP4 O1   OW0      0.000000       15.9990           
   16450 A    4113 TIP4 H1   HW0      0.679100        1.0080           
   16451 A    4113 TIP4 H2   HW0      0.679100        1.0080           
   16452 A    4113 TIP4 BD1  LP0     -1.358200        0.0000           
   16453 A    4114 TIP4 O1   OW0      0.000000       15.9990           
   16454 A    4114 TIP4 H1   HW0      0.679100        1.0080           
   16455 A    4114 TIP4 H2   HW0      0.679100        1.0080           
   16456 A    4114 TIP4 BD1  LP0     -1.358200        0.0000           
   16457 A    4115 TIP4 O1   OW0      0.000000       15.9990           
   16458 A    4115 TIP4 H1   HW0      0.679100        1.0080           
   16459 A    4115 TIP4 H2   HW0      0.679100        1.0080           
   16460 A    4115 TIP4 BD1  LP0     -1.358200        0.0000           
   16461 A    4116 TIP4 O1   OW0      0.000000       15.9990           
   16462 A    4116 TIP4 H1   HW0      0.679100        1.0080           
   16463 A    4116 TIP4 H2   HW0      0.679100        1.0080           
   16464 A    4116 TIP4 BD1  LP0     -1.358200        0.0000           
   16465 A    4117 TIP4 O1   OW0      0.000000       15.9990           
   16466 A    4117 TIP4 H1   HW0      0.679100        1.0080           
   16467 A    4117 TIP4 H2   HW0      0.679100        1.0080           
   16468 A    4117 TIP4 BD1  LP0     -1.358200        0.0000           
   16469 A    4118 TIP4 O1   OW0      0.000000       15.9990           
   16470 A    4118 TIP4 H1   HW0      0.679100        1.0080           
   16471 A    4118 TIP4 H2   HW0      0.679100        1.0080           
   16472 A    4118 TIP4 BD1  LP0     -1.358200        0.0000           
   16473 A    4119 TIP4 O1   OW0      0.000000       15.9990           
   16474 A    4119 TIP4 H1   HW0      0.679100        1.0080           
   16475 A    4119 TIP4 H2   HW0      0.679100        1.0080           
   16476 A    4119 TIP4 BD1  LP0     -1.358200        0.0000           
   16477 A    4120 TIP4 O1   OW0      0.000000       15.9990           
   16478 A    4120 TIP4 H1   HW0      0.679100        1.0080           
   16479 A    4120 TIP4 H2   HW0      0.679100        1.0080           
   16480 A    4120 TIP4 BD1  LP0     -1.358200        0.0000           
   16481 A    4121 TIP4 O1   OW0      0.000000       15.9990           
   16482 A    4121 TIP4 H1   HW0      0.679100        1.0080           
   16483 A    4121 TIP4 H2   HW0      0.679100        1.0080           
   16484 A    4121 TIP4 BD1  LP0     -1.358200        0.0000           
   16485 A    4122 TIP4 O1   OW0      0.000000       15.9990           
   16486 A    4122 TIP4 H1   HW0      0.679100        1.0080           
   16487 A    4122 TIP4 H2   HW0      0.679100        1.0080           
   16488 A    4122 TIP4 BD1  LP0     -1.358200        0.0000           
   16489 A    4123 TIP4 O1   OW0      0.000000       15.9990           
   16490 A    4123 TIP4 H1   HW0      0.679100        1.0080           
   16491 A    4123 TIP4 H2   HW0      0.679100        1.0080           
   16492 A    4123 TIP4 BD1  LP0     -1.358200        0.0000           
   16493 A    4124 TIP4 O1   OW0      0.000000       15.9990           
   16494 A    4124 TIP4 H1   HW0      0.679100        1.0080           
   16495 A    4124 TIP4 H2   HW0      0.679100        1.0080           
   16496 A    4124 TIP4 BD1  LP0     -1.358200        0.0000           
   16497 A    4125 TIP4 O1   OW0      0.000000       15.9990           
   16498 A    4125 TIP4 H1   HW0      0.679100        1.0080           
   16499 A    4125 TIP4 H2   HW0      0.679100        1.0080           
   16500 A    4125 TIP4 BD1  LP0     -1.358200        0.0000           
   16501 A    4126 TIP4 O1   OW0      0.000000       15.9990           
   16502 A    4126 TIP4 H1   HW0      0.679100        1.0080           
   16503 A    4126 TIP4 H2   HW0      0.679100        1.0080           
   16504 A    4126 TIP4 BD1  LP0     -1.358200        0.0000           
   16505 A    4127 TIP4 O1   OW0      0.000000       15.9990           
   16506 A    4127 TIP4 H1   HW0      0.679100        1.0080           
   16507 A    4127 TIP4 H2   HW0      0.679100        1.0080           
   16508 A    4127 TIP4 BD1  LP0     -1.358200        0.0000           
   16509 A    4128 TIP4 O1   OW0      0.000000       15.9990           
   16510 A    4128 TIP4 H1   HW0      0.679100        1.0080           
   16511 A    4128 TIP4 H2   HW0      0.679100        1.0080           
   16512 A    4128 TIP4 BD1  LP0     -1.358200        0.0000           
   16513 A    4129 TIP4 O1   OW0      0.000000       15.9990           
   16514 A    4129 TIP4 H1   HW0      0.679100        1.0080           
   16515 A    4129 TIP4 H2   HW0      0.679100        1.0080           
   16516 A    4129 TIP4 BD1  LP0     -1.358200        0.0000           
   16517 A    4130 TIP4 O1   OW0      0.000000       15.9990           
   16518 A    4130 TIP4 H1   HW0      0.679100        1.0080           
   16519 A    4130 TIP4 H2   HW0      0.679100        1.0080           
   16520 A    4130 TIP4 BD1  LP0     -1.358200        0.0000           
   16521 A    4131 TIP4 O1   OW0      0.000000       15.9990           
   16522 A    4131 TIP4 H1   HW0      0.679100        1.0080           
   16523 A    4131 TIP4 H2   HW0      0.679100        1.0080           
   16524 A    4131 TIP4 BD1  LP0     -1.358200        0.0000           
   16525 A    4132 TIP4 O1   OW0      0.000000       15.9990           
   16526 A    4132 TIP4 H1   HW0      0.679100        1.0080           
   16527 A    4132 TIP4 H2   HW0      0.679100        1.0080           
   16528 A    4132 TIP4 BD1  LP0     -1.358200        0.0000           
   16529 A    4133 TIP4 O1   OW0      0.000000       15.9990           
   16530 A    4133 TIP4 H1   HW0      0.679100        1.0080           
   16531 A    4133 TIP4 H2   HW0      0.679100        1.0080           
   16532 A    4133 TIP4 BD1  LP0     -1.358200        0.0000           
   16533 A    4134 TIP4 O1   OW0      0.000000       15.9990           
   16534 A    4134 TIP4 H1   HW0      0.679100        1.0080           
   16535 A    4134 TIP4 H2   HW0      0.679100        1.0080           
   16536 A    4134 TIP4 BD1  LP0     -1.358200        0.0000           
   16537 A    4135 TIP4 O1   OW0      0.000000       15.9990           
   16538 A    4135 TIP4 H1   HW0      0.679100        1.0080           
   16539 A    4135 TIP4 H2   HW0      0.679100        1.0080           
   16540 A    4135 TIP4 BD1  LP0     -1.358200        0.0000           
   16541 A    4136 TIP4 O1   OW0      0.000000       15.9990           
   16542 A    4136 TIP4 H1   HW0      0.679100        1.0080           
   16543 A    4136 TIP4 H2   HW0      0.679100        1.0080           
   16544 A    4136 TIP4 BD1  LP0     -1.358200        0.0000           
   16545 A    4137 TIP4 O1   OW0      0.000000       15.9990           
   16546 A    4137 TIP4 H1   HW0      0.679100        1.0080           
   16547 A    4137 TIP4 H2   HW0      0.679100        1.0080           
   16548 A    4137 TIP4 BD1  LP0     -1.358200        0.0000           
   16549 A    4138 TIP4 O1   OW0      0.000000       15.9990           
   16550 A    4138 TIP4 H1   HW0      0.679100        1.0080           
   16551 A    4138 TIP4 H2   HW0      0.679100        1.0080           
   16552 A    4138 TIP4 BD1  LP0     -1.358200        0.0000           
   16553 A    4139 TIP4 O1   OW0      0.000000       15.9990           
   16554 A    4139 TIP4 H1   HW0      0.679100        1.0080           
   16555 A    4139 TIP4 H2   HW0      0.679100        1.0080           
   16556 A    4139 TIP4 BD1  LP0     -1.358200        0.0000           
   16557 A    4140 TIP4 O1   OW0      0.000000       15.9990           
   16558 A    4140 TIP4 H1   HW0      0.679100        1.0080           
   16559 A    4140 TIP4 H2   HW0      0.679100        1.0080           
   16560 A    4140 TIP4 BD1  LP0     -1.358200        0.0000           
   16561 A    4141 TIP4 O1   OW0      0.000000       15.9990           
   16562 A    4141 TIP4 H1   HW0      0.679100        1.0080           
   16563 A    4141 TIP4 H2   HW0      0.679100        1.0080           
   16564 A    4141 TIP4 BD1  LP0     -1.358200        0.0000           
   16565 A    4142 TIP4 O1   OW0      0.000000       15.9990           
   16566 A    4142 TIP4 H1   HW0      0.679100        1.0080           
   16567 A    4142 TIP4 H2   HW0      0.679100        1.0080           
   16568 A    4142 TIP4 BD1  LP0     -1.358200        0.0000           
   16569 A    4143 TIP4 O1   OW0      0.000000       15.9990           
   16570 A    4143 TIP4 H1   HW0      0.679100        1.0080           
   16571 A    4143 TIP4 H2   HW0      0.679100        1.0080           
   16572 A    4143 TIP4 BD1  LP0     -1.358200        0.0000           
   16573 A    4144 TIP4 O1   OW0      0.000000       15.9990           
   16574 A    4144 TIP4 H1   HW0      0.679100        1.0080           
   16575 A    4144 TIP4 H2   HW0      0.679100        1.0080           
   16576 A    4144 TIP4 BD1  LP0     -1.358200        0.0000           
   16577 A    4145 TIP4 O1   OW0      0.000000       15.9990           
   16578 A    4145 TIP4 H1   HW0      0.679100        1.0080           
   16579 A    4145 TIP4 H2   HW0      0.679100        1.0080           
   16580 A    4145 TIP4 BD1  LP0     -1.358200        0.0000           
   16581 A    4146 TIP4 O1   OW0      0.000000       15.9990           
   16582 A    4146 TIP4 H1   HW0      0.679100        1.0080           
   16583 A    4146 TIP4 H2   HW0      0.679100        1.0080           
   16584 A    4146 TIP4 BD1  LP0     -1.358200        0.0000           
   16585 A    4147 TIP4 O1   OW0      0.000000       15.9990           
   16586 A    4147 TIP4 H1   HW0      0.679100        1.0080           
   16587 A    4147 TIP4 H2   HW0      0.679100        1.0080           
   16588 A    4147 TIP4 BD1  LP0     -1.358200        0.0000           
   16589 A    4148 TIP4 O1   OW0      0.000000       15.9990           
   16590 A    4148 TIP4 H1   HW0      0.679100        1.0080           
   16591 A    4148 TIP4 H2   HW0      0.679100        1.0080           
   16592 A    4148 TIP4 BD1  LP0     -1.358200        0.0000           
   16593 A    4149 TIP4 O1   OW0      0.000000       15.9990           
   16594 A    4149 TIP4 H1   HW0      0.679100        1.0080           
   16595 A    4149 TIP4 H2   HW0      0.679100        1.0080           
   16596 A    4149 TIP4 BD1  LP0     -1.358200        0.0000           
   16597 A    4150 TIP4 O1   OW0      0.000000       15.9990           
   16598 A    4150 TIP4 H1   HW0      0.679100        1.0080           
   16599 A    4150 TIP4 H2   HW0      0.679100        1.0080           
   16600 A    4150 TIP4 BD1  LP0     -1.358200        0.0000           
   16601 A    4151 TIP4 O1   OW0      0.000000       15.9990           
   16602 A    4151 TIP4 H1   HW0      0.679100        1.0080           
   16603 A    4151 TIP4 H2   HW0      0.679100        1.0080           
   16604 A    4151 TIP4 BD1  LP0     -1.358200        0.0000           
   16605 A    4152 TIP4 O1   OW0      0.000000       15.9990           
   16606 A    4152 TIP4 H1   HW0      0.679100        1.0080           
   16607 A    4152 TIP4 H2   HW0      0.679100        1.0080           
   16608 A    4152 TIP4 BD1  LP0     -1.358200        0.0000           
   16609 A    4153 TIP4 O1   OW0      0.000000       15.9990           
   16610 A    4153 TIP4 H1   HW0      0.679100        1.0080           
   16611 A    4153 TIP4 H2   HW0      0.679100        1.0080           
   16612 A    4153 TIP4 BD1  LP0     -1.358200        0.0000           
   16613 A    4154 TIP4 O1   OW0      0.000000       15.9990           
   16614 A    4154 TIP4 H1   HW0      0.679100        1.0080           
   16615 A    4154 TIP4 H2   HW0      0.679100        1.0080           
   16616 A    4154 TIP4 BD1  LP0     -1.358200        0.0000           
   16617 A    4155 TIP4 O1   OW0      0.000000       15.9990           
   16618 A    4155 TIP4 H1   HW0      0.679100        1.0080           
   16619 A    4155 TIP4 H2   HW0      0.679100        1.0080           
   16620 A    4155 TIP4 BD1  LP0     -1.358200        0.0000           
   16621 A    4156 TIP4 O1   OW0      0.000000       15.9990           
   16622 A    4156 TIP4 H1   HW0      0.679100        1.0080           
   16623 A    4156 TIP4 H2   HW0      0.679100        1.0080           
   16624 A    4156 TIP4 BD1  LP0     -1.358200        0.0000           
   16625 A    4157 TIP4 O1   OW0      0.000000       15.9990           
   16626 A    4157 TIP4 H1   HW0      0.679100        1.0080           
   16627 A    4157 TIP4 H2   HW0      0.679100        1.0080           
   16628 A    4157 TIP4 BD1  LP0     -1.358200        0.0000           
   16629 A    4158 TIP4 O1   OW0      0.000000       15.9990           
   16630 A    4158 TIP4 H1   HW0      0.679100        1.0080           
   16631 A    4158 TIP4 H2   HW0      0.679100        1.0080           
   16632 A    4158 TIP4 BD1  LP0     -1.358200        0.0000           
   16633 A    4159 TIP4 O1   OW0      0.000000       15.9990           
   16634 A    4159 TIP4 H1   HW0      0.679100        1.0080           
   16635 A    4159 TIP4 H2   HW0      0.679100        1.0080           
   16636 A    4159 TIP4 BD1  LP0     -1.358200        0.0000           
   16637 A    4160 TIP4 O1   OW0      0.000000       15.9990           
   16638 A    4160 TIP4 H1   HW0      0.679100        1.0080           
   16639 A    4160 TIP4 H2   HW0      0.679100        1.0080           
   16640 A    4160 TIP4 BD1  LP0     -1.358200        0.0000           
   16641 A    4161 TIP4 O1   OW0      0.000000       15.9990           
   16642 A    4161 TIP4 H1   HW0      0.679100        1.0080           
   16643 A    4161 TIP4 H2   HW0      0.679100        1.0080           
   16644 A    4161 TIP4 BD1  LP0     -1.358200        0.0000           
   16645 A    4162 TIP4 O1   OW0      0.000000       15.9990           
   16646 A    4162 TIP4 H1   HW0      0.679100        1.0080           
   16647 A    4162 TIP4 H2   HW0      0.679100        1.0080           
   16648 A    4162 TIP4 BD1  LP0     -1.358200        0.0000           
   16649 A    4163 TIP4 O1   OW0      0.000000       15.9990           
   16650 A    4163 TIP4 H1   HW0      0.679100        1.0080           
   16651 A    4163 TIP4 H2   HW0      0.679100        1.0080           
   16652 A    4163 TIP4 BD1  LP0     -1.358200        0.0000           
   16653 A    4164 TIP4 O1   OW0      0.000000       15.9990           
   16654 A    4164 TIP4 H1   HW0      0.679100        1.0080           
   16655 A    4164 TIP4 H2   HW0      0.679100        1.0080           
   16656 A    4164 TIP4 BD1  LP0     -1.358200        0.0000           
   16657 A    4165 TIP4 O1   OW0      0.000000       15.9990           
   16658 A    4165 TIP4 H1   HW0      0.679100        1.0080           
   16659 A    4165 TIP4 H2   HW0      0.679100        1.0080           
   16660 A    4165 TIP4 BD1  LP0     -1.358200        0.0000           
   16661 A    4166 TIP4 O1   OW0      0.000000       15.9990           
   16662 A    4166 TIP4 H1   HW0      0.679100        1.0080           
   16663 A    4166 TIP4 H2   HW0      0.679100        1.0080           
   16664 A    4166 TIP4 BD1  LP0     -1.358200        0.0000           
   16665 A    4167 TIP4 O1   OW0      0.000000       15.9990           
   16666 A    4167 TIP4 H1   HW0      0.679100        1.0080           
   16667 A    4167 TIP4 H2   HW0      0.679100        1.0080           
   16668 A    4167 TIP4 BD1  LP0     -1.358200        0.0000           
   16669 A    4168 TIP4 O1   OW0      0.000000       15.9990           
   16670 A    4168 TIP4 H1   HW0      0.679100        1.0080           
   16671 A    4168 TIP4 H2   HW0      0.679100        1.0080           
   16672 A    4168 TIP4 BD1  LP0     -1.358200        0.0000           
   16673 A    4169 TIP4 O1   OW0      0.000000       15.9990           
   16674 A    4169 TIP4 H1   HW0      0.679100        1.0080           
   16675 A    4169 TIP4 H2   HW0      0.679100        1.0080           
   16676 A    4169 TIP4 BD1  LP0     -1.358200        0.0000           
   16677 A    4170 TIP4 O1   OW0      0.000000       15.9990           
   16678 A    4170 TIP4 H1   HW0      0.679100        1.0080           
   16679 A    4170 TIP4 H2   HW0      0.679100        1.0080           
   16680 A    4170 TIP4 BD1  LP0     -1.358200        0.0000           
   16681 A    4171 TIP4 O1   OW0      0.000000       15.9990           
   16682 A    4171 TIP4 H1   HW0      0.679100        1.0080           
   16683 A    4171 TIP4 H2   HW0      0.679100        1.0080           
   16684 A    4171 TIP4 BD1  LP0     -1.358200        0.0000           
   16685 A    4172 TIP4 O1   OW0      0.000000       15.9990           
   16686 A    4172 TIP4 H1   HW0      0.679100        1.0080           
   16687 A    4172 TIP4 H2   HW0      0.679100        1.0080           
   16688 A    4172 TIP4 BD1  LP0     -1.358200        0.0000           
   16689 A    4173 TIP4 O1   OW0      0.000000       15.9990           
   16690 A    4173 TIP4 H1   HW0      0.679100        1.0080           
   16691 A    4173 TIP4 H2   HW0      0.679100        1.0080           
   16692 A    4173 TIP4 BD1  LP0     -1.358200        0.0000           
   16693 A    4174 TIP4 O1   OW0      0.000000       15.9990           
   16694 A    4174 TIP4 H1   HW0      0.679100        1.0080           
   16695 A    4174 TIP4 H2   HW0      0.679100        1.0080           
   16696 A    4174 TIP4 BD1  LP0     -1.358200        0.0000           
   16697 A    4175 TIP4 O1   OW0      0.000000       15.9990           
   16698 A    4175 TIP4 H1   HW0      0.679100        1.0080           
   16699 A    4175 TIP4 H2   HW0      0.679100        1.0080           
   16700 A    4175 TIP4 BD1  LP0     -1.358200        0.0000           
   16701 A    4176 TIP4 O1   OW0      0.000000       15.9990           
   16702 A    4176 TIP4 H1   HW0      0.679100        1.0080           
   16703 A    4176 TIP4 H2   HW0      0.679100        1.0080           
   16704 A    4176 TIP4 BD1  LP0     -1.358200        0.0000           
   16705 A    4177 TIP4 O1   OW0      0.000000       15.9990           
   16706 A    4177 TIP4 H1   HW0      0.679100        1.0080           
   16707 A    4177 TIP4 H2   HW0      0.679100        1.0080           
   16708 A    4177 TIP4 BD1  LP0     -1.358200        0.0000           
   16709 A    4178 TIP4 O1   OW0      0.000000       15.9990           
   16710 A    4178 TIP4 H1   HW0      0.679100        1.0080           
   16711 A    4178 TIP4 H2   HW0      0.679100        1.0080           
   16712 A    4178 TIP4 BD1  LP0     -1.358200        0.0000           
   16713 A    4179 TIP4 O1   OW0      0.000000       15.9990           
   16714 A    4179 TIP4 H1   HW0      0.679100        1.0080           
   16715 A    4179 TIP4 H2   HW0      0.679100        1.0080           
   16716 A    4179 TIP4 BD1  LP0     -1.358200        0.0000           
   16717 A    4180 TIP4 O1   OW0      0.000000       15.9990           
   16718 A    4180 TIP4 H1   HW0      0.679100        1.0080           
   16719 A    4180 TIP4 H2   HW0      0.679100        1.0080           
   16720 A    4180 TIP4 BD1  LP0     -1.358200        0.0000           
   16721 A    4181 TIP4 O1   OW0      0.000000       15.9990           
   16722 A    4181 TIP4 H1   HW0      0.679100        1.0080           
   16723 A    4181 TIP4 H2   HW0      0.679100        1.0080           
   16724 A    4181 TIP4 BD1  LP0     -1.358200        0.0000           
   16725 A    4182 TIP4 O1   OW0      0.000000       15.9990           
   16726 A    4182 TIP4 H1   HW0      0.679100        1.0080           
   16727 A    4182 TIP4 H2   HW0      0.679100        1.0080           
   16728 A    4182 TIP4 BD1  LP0     -1.358200        0.0000           
   16729 A    4183 TIP4 O1   OW0      0.000000       15.9990           
   16730 A    4183 TIP4 H1   HW0      0.679100        1.0080           
   16731 A    4183 TIP4 H2   HW0      0.679100        1.0080           
   16732 A    4183 TIP4 BD1  LP0     -1.358200        0.0000           
   16733 A    4184 TIP4 O1   OW0      0.000000       15.9990           
   16734 A    4184 TIP4 H1   HW0      0.679100        1.0080           
   16735 A    4184 TIP4 H2   HW0      0.679100        1.0080           
   16736 A    4184 TIP4 BD1  LP0     -1.358200        0.0000           
   16737 A    4185 TIP4 O1   OW0      0.000000       15.9990           
   16738 A    4185 TIP4 H1   HW0      0.679100        1.0080           
   16739 A    4185 TIP4 H2   HW0      0.679100        1.0080           
   16740 A    4185 TIP4 BD1  LP0     -1.358200        0.0000           
   16741 A    4186 TIP4 O1   OW0      0.000000       15.9990           
   16742 A    4186 TIP4 H1   HW0      0.679100        1.0080           
   16743 A    4186 TIP4 H2   HW0      0.679100        1.0080           
   16744 A    4186 TIP4 BD1  LP0     -1.358200        0.0000           
   16745 A    4187 TIP4 O1   OW0      0.000000       15.9990           
   16746 A    4187 TIP4 H1   HW0      0.679100        1.0080           
   16747 A    4187 TIP4 H2   HW0      0.679100        1.0080           
   16748 A    4187 TIP4 BD1  LP0     -1.358200        0.0000           
   16749 A    4188 TIP4 O1   OW0      0.000000       15.9990           
   16750 A    4188 TIP4 H1   HW0      0.679100        1.0080           
   16751 A    4188 TIP4 H2   HW0      0.679100        1.0080           
   16752 A    4188 TIP4 BD1  LP0     -1.358200        0.0000           
   16753 A    4189 TIP4 O1   OW0      0.000000       15.9990           
   16754 A    4189 TIP4 H1   HW0      0.679100        1.0080           
   16755 A    4189 TIP4 H2   HW0      0.679100        1.0080           
   16756 A    4189 TIP4 BD1  LP0     -1.358200        0.0000           
   16757 A    4190 TIP4 O1   OW0      0.000000       15.9990           
   16758 A    4190 TIP4 H1   HW0      0.679100        1.0080           
   16759 A    4190 TIP4 H2   HW0      0.679100        1.0080           
   16760 A    4190 TIP4 BD1  LP0     -1.358200        0.0000           
   16761 A    4191 TIP4 O1   OW0      0.000000       15.9990           
   16762 A    4191 TIP4 H1   HW0      0.679100        1.0080           
   16763 A    4191 TIP4 H2   HW0      0.679100        1.0080           
   16764 A    4191 TIP4 BD1  LP0     -1.358200        0.0000           
   16765 A    4192 TIP4 O1   OW0      0.000000       15.9990           
   16766 A    4192 TIP4 H1   HW0      0.679100        1.0080           
   16767 A    4192 TIP4 H2   HW0      0.679100        1.0080           
   16768 A    4192 TIP4 BD1  LP0     -1.358200        0.0000           
   16769 A    4193 TIP4 O1   OW0      0.000000       15.9990           
   16770 A    4193 TIP4 H1   HW0      0.679100        1.0080           
   16771 A    4193 TIP4 H2   HW0      0.679100        1.0080           
   16772 A    4193 TIP4 BD1  LP0     -1.358200        0.0000           
   16773 A    4194 TIP4 O1   OW0      0.000000       15.9990           
   16774 A    4194 TIP4 H1   HW0      0.679100        1.0080           
   16775 A    4194 TIP4 H2   HW0      0.679100        1.0080           
   16776 A    4194 TIP4 BD1  LP0     -1.358200        0.0000           
   16777 A    4195 TIP4 O1   OW0      0.000000       15.9990           
   16778 A    4195 TIP4 H1   HW0      0.679100        1.0080           
   16779 A    4195 TIP4 H2   HW0      0.679100        1.0080           
   16780 A    4195 TIP4 BD1  LP0     -1.358200        0.0000           
   16781 A    4196 TIP4 O1   OW0      0.000000       15.9990           
   16782 A    4196 TIP4 H1   HW0      0.679100        1.0080           
   16783 A    4196 TIP4 H2   HW0      0.679100        1.0080           
   16784 A    4196 TIP4 BD1  LP0     -1.358200        0.0000           
   16785 A    4197 TIP4 O1   OW0      0.000000       15.9990           
   16786 A    4197 TIP4 H1   HW0      0.679100        1.0080           
   16787 A    4197 TIP4 H2   HW0      0.679100        1.0080           
   16788 A    4197 TIP4 BD1  LP0     -1.358200        0.0000           
   16789 A    4198 TIP4 O1   OW0      0.000000       15.9990           
   16790 A    4198 TIP4 H1   HW0      0.679100        1.0080           
   16791 A    4198 TIP4 H2   HW0      0.679100        1.0080           
   16792 A    4198 TIP4 BD1  LP0     -1.358200        0.0000           
   16793 A    4199 TIP4 O1   OW0      0.000000       15.9990           
   16794 A    4199 TIP4 H1   HW0      0.679100        1.0080           
   16795 A    4199 TIP4 H2   HW0      0.679100        1.0080           
   16796 A    4199 TIP4 BD1  LP0     -1.358200        0.0000           
   16797 A    4200 TIP4 O1   OW0      0.000000       15.9990           
   16798 A    4200 TIP4 H1   HW0      0.679100        1.0080           
   16799 A    4200 TIP4 H2   HW0      0.679100        1.0080           
   16800 A    4200 TIP4 BD1  LP0     -1.358200        0.0000           
   16801 A    4201 TIP4 O1   OW0      0.000000       15.9990           
   16802 A    4201 TIP4 H1   HW0      0.679100        1.0080           
   16803 A    4201 TIP4 H2   HW0      0.679100        1.0080           
   16804 A    4201 TIP4 BD1  LP0     -1.358200        0.0000           
   16805 A    4202 TIP4 O1   OW0      0.000000       15.9990           
   16806 A    4202 TIP4 H1   HW0      0.679100        1.0080           
   16807 A    4202 TIP4 H2   HW0      0.679100        1.0080           
   16808 A    4202 TIP4 BD1  LP0     -1.358200        0.0000           
   16809 A    4203 TIP4 O1   OW0      0.000000       15.9990           
   16810 A    4203 TIP4 H1   HW0      0.679100        1.0080           
   16811 A    4203 TIP4 H2   HW0      0.679100        1.0080           
   16812 A    4203 TIP4 BD1  LP0     -1.358200        0.0000           
   16813 A    4204 TIP4 O1   OW0      0.000000       15.9990           
   16814 A    4204 TIP4 H1   HW0      0.679100        1.0080           
   16815 A    4204 TIP4 H2   HW0      0.679100        1.0080           
   16816 A    4204 TIP4 BD1  LP0     -1.358200        0.0000           
   16817 A    4205 TIP4 O1   OW0      0.000000       15.9990           
   16818 A    4205 TIP4 H1   HW0      0.679100        1.0080           
   16819 A    4205 TIP4 H2   HW0      0.679100        1.0080           
   16820 A    4205 TIP4 BD1  LP0     -1.358200        0.0000           
   16821 A    4206 TIP4 O1   OW0      0.000000       15.9990           
   16822 A    4206 TIP4 H1   HW0      0.679100        1.0080           
   16823 A    4206 TIP4 H2   HW0      0.679100        1.0080           
   16824 A    4206 TIP4 BD1  LP0     -1.358200        0.0000           
   16825 A    4207 TIP4 O1   OW0      0.000000       15.9990           
   16826 A    4207 TIP4 H1   HW0      0.679100        1.0080           
   16827 A    4207 TIP4 H2   HW0      0.679100        1.0080           
   16828 A    4207 TIP4 BD1  LP0     -1.358200        0.0000           
   16829 A    4208 TIP4 O1   OW0      0.000000       15.9990           
   16830 A    4208 TIP4 H1   HW0      0.679100        1.0080           
   16831 A    4208 TIP4 H2   HW0      0.679100        1.0080           
   16832 A    4208 TIP4 BD1  LP0     -1.358200        0.0000           
   16833 A    4209 TIP4 O1   OW0      0.000000       15.9990           
   16834 A    4209 TIP4 H1   HW0      0.679100        1.0080           
   16835 A    4209 TIP4 H2   HW0      0.679100        1.0080           
   16836 A    4209 TIP4 BD1  LP0     -1.358200        0.0000           
   16837 A    4210 TIP4 O1   OW0      0.000000       15.9990           
   16838 A    4210 TIP4 H1   HW0      0.679100        1.0080           
   16839 A    4210 TIP4 H2   HW0      0.679100        1.0080           
   16840 A    4210 TIP4 BD1  LP0     -1.358200        0.0000           
   16841 A    4211 TIP4 O1   OW0      0.000000       15.9990           
   16842 A    4211 TIP4 H1   HW0      0.679100        1.0080           
   16843 A    4211 TIP4 H2   HW0      0.679100        1.0080           
   16844 A    4211 TIP4 BD1  LP0     -1.358200        0.0000           
   16845 A    4212 TIP4 O1   OW0      0.000000       15.9990           
   16846 A    4212 TIP4 H1   HW0      0.679100        1.0080           
   16847 A    4212 TIP4 H2   HW0      0.679100        1.0080           
   16848 A    4212 TIP4 BD1  LP0     -1.358200        0.0000           
   16849 A    4213 TIP4 O1   OW0      0.000000       15.9990           
   16850 A    4213 TIP4 H1   HW0      0.679100        1.0080           
   16851 A    4213 TIP4 H2   HW0      0.679100        1.0080           
   16852 A    4213 TIP4 BD1  LP0     -1.358200        0.0000           
   16853 A    4214 TIP4 O1   OW0      0.000000       15.9990           
   16854 A    4214 TIP4 H1   HW0      0.679100        1.0080           
   16855 A    4214 TIP4 H2   HW0      0.679100        1.0080           
   16856 A    4214 TIP4 BD1  LP0     -1.358200        0.0000           
   16857 A    4215 TIP4 O1   OW0      0.000000       15.9990           
   16858 A    4215 TIP4 H1   HW0      0.679100        1.0080           
   16859 A    4215 TIP4 H2   HW0      0.679100        1.0080           
   16860 A    4215 TIP4 BD1  LP0     -1.358200        0.0000           
   16861 A    4216 TIP4 O1   OW0      0.000000       15.9990           
   16862 A    4216 TIP4 H1   HW0      0.679100        1.0080           
   16863 A    4216 TIP4 H2   HW0      0.679100        1.0080           
   16864 A    4216 TIP4 BD1  LP0     -1.358200        0.0000           
   16865 A    4217 TIP4 O1   OW0      0.000000       15.9990           
   16866 A    4217 TIP4 H1   HW0      0.679100        1.0080           
   16867 A    4217 TIP4 H2   HW0      0.679100        1.0080           
   16868 A    4217 TIP4 BD1  LP0     -1.358200        0.0000           
   16869 A    4218 TIP4 O1   OW0      0.000000       15.9990           
   16870 A    4218 TIP4 H1   HW0      0.679100        1.0080           
   16871 A    4218 TIP4 H2   HW0      0.679100        1.0080           
   16872 A    4218 TIP4 BD1  LP0     -1.358200        0.0000           
   16873 A    4219 TIP4 O1   OW0      0.000000       15.9990           
   16874 A    4219 TIP4 H1   HW0      0.679100        1.0080           
   16875 A    4219 TIP4 H2   HW0      0.679100        1.0080           
   16876 A    4219 TIP4 BD1  LP0     -1.358200        0.0000           
   16877 A    4220 TIP4 O1   OW0      0.000000       15.9990           
   16878 A    4220 TIP4 H1   HW0      0.679100        1.0080           
   16879 A    4220 TIP4 H2   HW0      0.679100        1.0080           
   16880 A    4220 TIP4 BD1  LP0     -1.358200        0.0000           
   16881 A    4221 TIP4 O1   OW0      0.000000       15.9990           
   16882 A    4221 TIP4 H1   HW0      0.679100        1.0080           
   16883 A    4221 TIP4 H2   HW0      0.679100        1.0080           
   16884 A    4221 TIP4 BD1  LP0     -1.358200        0.0000           
   16885 A    4222 TIP4 O1   OW0      0.000000       15.9990           
   16886 A    4222 TIP4 H1   HW0      0.679100        1.0080           
   16887 A    4222 TIP4 H2   HW0      0.679100        1.0080           
   16888 A    4222 TIP4 BD1  LP0     -1.358200        0.0000           
   16889 A    4223 TIP4 O1   OW0      0.000000       15.9990           
   16890 A    4223 TIP4 H1   HW0      0.679100        1.0080           
   16891 A    4223 TIP4 H2   HW0      0.679100        1.0080           
   16892 A    4223 TIP4 BD1  LP0     -1.358200        0.0000           
   16893 A    4224 TIP4 O1   OW0      0.000000       15.9990           
   16894 A    4224 TIP4 H1   HW0      0.679100        1.0080           
   16895 A    4224 TIP4 H2   HW0      0.679100        1.0080           
   16896 A    4224 TIP4 BD1  LP0     -1.358200        0.0000           
   16897 A    4225 TIP4 O1   OW0      0.000000       15.9990           
   16898 A    4225 TIP4 H1   HW0      0.679100        1.0080           
   16899 A    4225 TIP4 H2   HW0      0.679100        1.0080           
   16900 A    4225 TIP4 BD1  LP0     -1.358200        0.0000           
   16901 A    4226 TIP4 O1   OW0      0.000000       15.9990           
   16902 A    4226 TIP4 H1   HW0      0.679100        1.0080           
   16903 A    4226 TIP4 H2   HW0      0.679100        1.0080           
   16904 A    4226 TIP4 BD1  LP0     -1.358200        0.0000           
   16905 A    4227 TIP4 O1   OW0      0.000000       15.9990           
   16906 A    4227 TIP4 H1   HW0      0.679100        1.0080           
   16907 A    4227 TIP4 H2   HW0      0.679100        1.0080           
   16908 A    4227 TIP4 BD1  LP0     -1.358200        0.0000           
   16909 A    4228 TIP4 O1   OW0      0.000000       15.9990           
   16910 A    4228 TIP4 H1   HW0      0.679100        1.0080           
   16911 A    4228 TIP4 H2   HW0      0.679100        1.0080           
   16912 A    4228 TIP4 BD1  LP0     -1.358200        0.0000           
   16913 A    4229 TIP4 O1   OW0      0.000000       15.9990           
   16914 A    4229 TIP4 H1   HW0      0.679100        1.0080           
   16915 A    4229 TIP4 H2   HW0      0.679100        1.0080           
   16916 A    4229 TIP4 BD1  LP0     -1.358200        0.0000           
   16917 A    4230 TIP4 O1   OW0      0.000000       15.9990           
   16918 A    4230 TIP4 H1   HW0      0.679100        1.0080           
   16919 A    4230 TIP4 H2   HW0      0.679100        1.0080           
   16920 A    4230 TIP4 BD1  LP0     -1.358200        0.0000           
   16921 A    4231 TIP4 O1   OW0      0.000000       15.9990           
   16922 A    4231 TIP4 H1   HW0      0.679100        1.0080           
   16923 A    4231 TIP4 H2   HW0      0.679100        1.0080           
   16924 A    4231 TIP4 BD1  LP0     -1.358200        0.0000           
   16925 A    4232 TIP4 O1   OW0      0.000000       15.9990           
   16926 A    4232 TIP4 H1   HW0      0.679100        1.0080           
   16927 A    4232 TIP4 H2   HW0      0.679100        1.0080           
   16928 A    4232 TIP4 BD1  LP0     -1.358200        0.0000           
   16929 A    4233 TIP4 O1   OW0      0.000000       15.9990           
   16930 A    4233 TIP4 H1   HW0      0.679100        1.0080           
   16931 A    4233 TIP4 H2   HW0      0.679100        1.0080           
   16932 A    4233 TIP4 BD1  LP0     -1.358200        0.0000           
   16933 A    4234 TIP4 O1   OW0      0.000000       15.9990           
   16934 A    4234 TIP4 H1   HW0      0.679100        1.0080           
   16935 A    4234 TIP4 H2   HW0      0.679100        1.0080           
   16936 A    4234 TIP4 BD1  LP0     -1.358200        0.0000           
   16937 A    4235 TIP4 O1   OW0      0.000000       15.9990           
   16938 A    4235 TIP4 H1   HW0      0.679100        1.0080           
   16939 A    4235 TIP4 H2   HW0      0.679100        1.0080           
   16940 A    4235 TIP4 BD1  LP0     -1.358200        0.0000           
   16941 A    4236 TIP4 O1   OW0      0.000000       15.9990           
   16942 A    4236 TIP4 H1   HW0      0.679100        1.0080           
   16943 A    4236 TIP4 H2   HW0      0.679100        1.0080           
   16944 A    4236 TIP4 BD1  LP0     -1.358200        0.0000           
   16945 A    4237 TIP4 O1   OW0      0.000000       15.9990           
   16946 A    4237 TIP4 H1   HW0      0.679100        1.0080           
   16947 A    4237 TIP4 H2   HW0      0.679100        1.0080           
   16948 A    4237 TIP4 BD1  LP0     -1.358200        0.0000           
   16949 A    4238 TIP4 O1   OW0      0.000000       15.9990           
   16950 A    4238 TIP4 H1   HW0      0.679100        1.0080           
   16951 A    4238 TIP4 H2   HW0      0.679100        1.0080           
   16952 A    4238 TIP4 BD1  LP0     -1.358200        0.0000           
   16953 A    4239 TIP4 O1   OW0      0.000000       15.9990           
   16954 A    4239 TIP4 H1   HW0      0.679100        1.0080           
   16955 A    4239 TIP4 H2   HW0      0.679100        1.0080           
   16956 A    4239 TIP4 BD1  LP0     -1.358200        0.0000           
   16957 A    4240 TIP4 O1   OW0      0.000000       15.9990           
   16958 A    4240 TIP4 H1   HW0      0.679100        1.0080           
   16959 A    4240 TIP4 H2   HW0      0.679100        1.0080           
   16960 A    4240 TIP4 BD1  LP0     -1.358200        0.0000           
   16961 A    4241 TIP4 O1   OW0      0.000000       15.9990           
   16962 A    4241 TIP4 H1   HW0      0.679100        1.0080           
   16963 A    4241 TIP4 H2   HW0      0.679100        1.0080           
   16964 A    4241 TIP4 BD1  LP0     -1.358200        0.0000           
   16965 A    4242 TIP4 O1   OW0      0.000000       15.9990           
   16966 A    4242 TIP4 H1   HW0      0.679100        1.0080           
   16967 A    4242 TIP4 H2   HW0      0.679100        1.0080           
   16968 A    4242 TIP4 BD1  LP0     -1.358200        0.0000           
   16969 A    4243 TIP4 O1   OW0      0.000000       15.9990           
   16970 A    4243 TIP4 H1   HW0      0.679100        1.0080           
   16971 A    4243 TIP4 H2   HW0      0.679100        1.0080           
   16972 A    4243 TIP4 BD1  LP0     -1.358200        0.0000           
   16973 A    4244 TIP4 O1   OW0      0.000000       15.9990           
   16974 A    4244 TIP4 H1   HW0      0.679100        1.0080           
   16975 A    4244 TIP4 H2   HW0      0.679100        1.0080           
   16976 A    4244 TIP4 BD1  LP0     -1.358200        0.0000           
   16977 A    4245 TIP4 O1   OW0      0.000000       15.9990           
   16978 A    4245 TIP4 H1   HW0      0.679100        1.0080           
   16979 A    4245 TIP4 H2   HW0      0.679100        1.0080           
   16980 A    4245 TIP4 BD1  LP0     -1.358200        0.0000           
   16981 A    4246 TIP4 O1   OW0      0.000000       15.9990           
   16982 A    4246 TIP4 H1   HW0      0.679100        1.0080           
   16983 A    4246 TIP4 H2   HW0      0.679100        1.0080           
   16984 A    4246 TIP4 BD1  LP0     -1.358200        0.0000           
   16985 A    4247 TIP4 O1   OW0      0.000000       15.9990           
   16986 A    4247 TIP4 H1   HW0      0.679100        1.0080           
   16987 A    4247 TIP4 H2   HW0      0.679100        1.0080           
   16988 A    4247 TIP4 BD1  LP0     -1.358200        0.0000           
   16989 A    4248 TIP4 O1   OW0      0.000000       15.9990           
   16990 A    4248 TIP4 H1   HW0      0.679100        1.0080           
   16991 A    4248 TIP4 H2   HW0      0.679100        1.0080           
   16992 A    4248 TIP4 BD1  LP0     -1.358200        0.0000           
   16993 A    4249 TIP4 O1   OW0      0.000000       15.9990           
   16994 A    4249 TIP4 H1   HW0      0.679100        1.0080           
   16995 A    4249 TIP4 H2   HW0      0.679100        1.0080           
   16996 A    4249 TIP4 BD1  LP0     -1.358200        0.0000           
   16997 A    4250 TIP4 O1   OW0      0.000000       15.9990           
   16998 A    4250 TIP4 H1   HW0      0.679100        1.0080           
   16999 A    4250 TIP4 H2   HW0      0.679100        1.0080           
   17000 A    4250 TIP4 BD1  LP0     -1.358200        0.0000           
   17001 A    4251 TIP4 O1   OW0      0.000000       15.9990           
   17002 A    4251 TIP4 H1   HW0      0.679100        1.0080           
   17003 A    4251 TIP4 H2   HW0      0.679100        1.0080           
   17004 A    4251 TIP4 BD1  LP0     -1.358200        0.0000           
   17005 A    4252 TIP4 O1   OW0      0.000000       15.9990           
   17006 A    4252 TIP4 H1   HW0      0.679100        1.0080           
   17007 A    4252 TIP4 H2   HW0      0.679100        1.0080           
   17008 A    4252 TIP4 BD1  LP0     -1.358200        0.0000           
   17009 A    4253 TIP4 O1   OW0      0.000000       15.9990           
   17010 A    4253 TIP4 H1   HW0      0.679100        1.0080           
   17011 A    4253 TIP4 H2   HW0      0.679100        1.0080           
   17012 A    4253 TIP4 BD1  LP0     -1.358200        0.0000           
   17013 A    4254 TIP4 O1   OW0      0.000000       15.9990           
   17014 A    4254 TIP4 H1   HW0      0.679100        1.0080           
   17015 A    4254 TIP4 H2   HW0      0.679100        1.0080           
   17016 A    4254 TIP4 BD1  LP0     -1.358200        0.0000           
   17017 A    4255 TIP4 O1   OW0      0.000000       15.9990           
   17018 A    4255 TIP4 H1   HW0      0.679100        1.0080           
   17019 A    4255 TIP4 H2   HW0      0.679100        1.0080           
   17020 A    4255 TIP4 BD1  LP0     -1.358200        0.0000           
   17021 A    4256 TIP4 O1   OW0      0.000000       15.9990           
   17022 A    4256 TIP4 H1   HW0      0.679100        1.0080           
   17023 A    4256 TIP4 H2   HW0      0.679100        1.0080           
   17024 A    4256 TIP4 BD1  LP0     -1.358200        0.0000           
   17025 A    4257 TIP4 O1   OW0      0.000000       15.9990           
   17026 A    4257 TIP4 H1   HW0      0.679100        1.0080           
   17027 A    4257 TIP4 H2   HW0      0.679100        1.0080           
   17028 A    4257 TIP4 BD1  LP0     -1.358200        0.0000           
   17029 A    4258 TIP4 O1   OW0      0.000000       15.9990           
   17030 A    4258 TIP4 H1   HW0      0.679100        1.0080           
   17031 A    4258 TIP4 H2   HW0      0.679100        1.0080           
   17032 A    4258 TIP4 BD1  LP0     -1.358200        0.0000           
   17033 A    4259 TIP4 O1   OW0      0.000000       15.9990           
   17034 A    4259 TIP4 H1   HW0      0.679100        1.0080           
   17035 A    4259 TIP4 H2   HW0      0.679100        1.0080           
   17036 A    4259 TIP4 BD1  LP0     -1.358200        0.0000           
   17037 A    4260 TIP4 O1   OW0      0.000000       15.9990           
   17038 A    4260 TIP4 H1   HW0      0.679100        1.0080           
   17039 A    4260 TIP4 H2   HW0      0.679100        1.0080           
   17040 A    4260 TIP4 BD1  LP0     -1.358200        0.0000           
   17041 A    4261 TIP4 O1   OW0      0.000000       15.9990           
   17042 A    4261 TIP4 H1   HW0      0.679100        1.0080           
   17043 A    4261 TIP4 H2   HW0      0.679100        1.0080           
   17044 A    4261 TIP4 BD1  LP0     -1.358200        0.0000           
   17045 A    4262 TIP4 O1   OW0      0.000000       15.9990           
   17046 A    4262 TIP4 H1   HW0      0.679100        1.0080           
   17047 A    4262 TIP4 H2   HW0      0.679100        1.0080           
   17048 A    4262 TIP4 BD1  LP0     -1.358200        0.0000           
   17049 A    4263 TIP4 O1   OW0      0.000000       15.9990           
   17050 A    4263 TIP4 H1   HW0      0.679100        1.0080           
   17051 A    4263 TIP4 H2   HW0      0.679100        1.0080           
   17052 A    4263 TIP4 BD1  LP0     -1.358200        0.0000           
   17053 A    4264 TIP4 O1   OW0      0.000000       15.9990           
   17054 A    4264 TIP4 H1   HW0      0.679100        1.0080           
   17055 A    4264 TIP4 H2   HW0      0.679100        1.0080           
   17056 A    4264 TIP4 BD1  LP0     -1.358200        0.0000           
   17057 A    4265 TIP4 O1   OW0      0.000000       15.9990           
   17058 A    4265 TIP4 H1   HW0      0.679100        1.0080           
   17059 A    4265 TIP4 H2   HW0      0.679100        1.0080           
   17060 A    4265 TIP4 BD1  LP0     -1.358200        0.0000           
   17061 A    4266 TIP4 O1   OW0      0.000000       15.9990           
   17062 A    4266 TIP4 H1   HW0      0.679100        1.0080           
   17063 A    4266 TIP4 H2   HW0      0.679100        1.0080           
   17064 A    4266 TIP4 BD1  LP0     -1.358200        0.0000           
   17065 A    4267 TIP4 O1   OW0      0.000000       15.9990           
   17066 A    4267 TIP4 H1   HW0      0.679100        1.0080           
   17067 A    4267 TIP4 H2   HW0      0.679100        1.0080           
   17068 A    4267 TIP4 BD1  LP0     -1.358200        0.0000           
   17069 A    4268 TIP4 O1   OW0      0.000000       15.9990           
   17070 A    4268 TIP4 H1   HW0      0.679100        1.0080           
   17071 A    4268 TIP4 H2   HW0      0.679100        1.0080           
   17072 A    4268 TIP4 BD1  LP0     -1.358200        0.0000           
   17073 A    4269 TIP4 O1   OW0      0.000000       15.9990           
   17074 A    4269 TIP4 H1   HW0      0.679100        1.0080           
   17075 A    4269 TIP4 H2   HW0      0.679100        1.0080           
   17076 A    4269 TIP4 BD1  LP0     -1.358200        0.0000           
   17077 A    4270 TIP4 O1   OW0      0.000000       15.9990           
   17078 A    4270 TIP4 H1   HW0      0.679100        1.0080           
   17079 A    4270 TIP4 H2   HW0      0.679100        1.0080           
   17080 A    4270 TIP4 BD1  LP0     -1.358200        0.0000           
   17081 A    4271 TIP4 O1   OW0      0.000000       15.9990           
   17082 A    4271 TIP4 H1   HW0      0.679100        1.0080           
   17083 A    4271 TIP4 H2   HW0      0.679100        1.0080           
   17084 A    4271 TIP4 BD1  LP0     -1.358200        0.0000           
   17085 A    4272 TIP4 O1   OW0      0.000000       15.9990           
   17086 A    4272 TIP4 H1   HW0      0.679100        1.0080           
   17087 A    4272 TIP4 H2   HW0      0.679100        1.0080           
   17088 A    4272 TIP4 BD1  LP0     -1.358200        0.0000           
   17089 A    4273 TIP4 O1   OW0      0.000000       15.9990           
   17090 A    4273 TIP4 H1   HW0      0.679100        1.0080           
   17091 A    4273 TIP4 H2   HW0      0.679100        1.0080           
   17092 A    4273 TIP4 BD1  LP0     -1.358200        0.0000           
   17093 A    4274 TIP4 O1   OW0      0.000000       15.9990           
   17094 A    4274 TIP4 H1   HW0      0.679100        1.0080           
   17095 A    4274 TIP4 H2   HW0      0.679100        1.0080           
   17096 A    4274 TIP4 BD1  LP0     -1.358200        0.0000           
   17097 A    4275 TIP4 O1   OW0      0.000000       15.9990           
   17098 A    4275 TIP4 H1   HW0      0.679100        1.0080           
   17099 A    4275 TIP4 H2   HW0      0.679100        1.0080           
   17100 A    4275 TIP4 BD1  LP0     -1.358200        0.0000           
   17101 A    4276 TIP4 O1   OW0      0.000000       15.9990           
   17102 A    4276 TIP4 H1   HW0      0.679100        1.0080           
   17103 A    4276 TIP4 H2   HW0      0.679100        1.0080           
   17104 A    4276 TIP4 BD1  LP0     -1.358200        0.0000           
   17105 A    4277 TIP4 O1   OW0      0.000000       15.9990           
   17106 A    4277 TIP4 H1   HW0      0.679100        1.0080           
   17107 A    4277 TIP4 H2   HW0      0.679100        1.0080           
   17108 A    4277 TIP4 BD1  LP0     -1.358200        0.0000           
   17109 A    4278 TIP4 O1   OW0      0.000000       15.9990           
   17110 A    4278 TIP4 H1   HW0      0.679100        1.0080           
   17111 A    4278 TIP4 H2   HW0      0.679100        1.0080           
   17112 A    4278 TIP4 BD1  LP0     -1.358200        0.0000           
   17113 A    4279 TIP4 O1   OW0      0.000000       15.9990           
   17114 A    4279 TIP4 H1   HW0      0.679100        1.0080           
   17115 A    4279 TIP4 H2   HW0      0.679100        1.0080           
   17116 A    4279 TIP4 BD1  LP0     -1.358200        0.0000           
   17117 A    4280 TIP4 O1   OW0      0.000000       15.9990           
   17118 A    4280 TIP4 H1   HW0      0.679100        1.0080           
   17119 A    4280 TIP4 H2   HW0      0.679100        1.0080           
   17120 A    4280 TIP4 BD1  LP0     -1.358200        0.0000           
   17121 A    4281 TIP4 O1   OW0      0.000000       15.9990           
   17122 A    4281 TIP4 H1   HW0      0.679100        1.0080           
   17123 A    4281 TIP4 H2   HW0      0.679100        1.0080           
   17124 A    4281 TIP4 BD1  LP0     -1.358200        0.0000           
   17125 A    4282 TIP4 O1   OW0      0.000000       15.9990           
   17126 A    4282 TIP4 H1   HW0      0.679100        1.0080           
   17127 A    4282 TIP4 H2   HW0      0.679100        1.0080           
   17128 A    4282 TIP4 BD1  LP0     -1.358200        0.0000           
   17129 A    4283 TIP4 O1   OW0      0.000000       15.9990           
   17130 A    4283 TIP4 H1   HW0      0.679100        1.0080           
   17131 A    4283 TIP4 H2   HW0      0.679100        1.0080           
   17132 A    4283 TIP4 BD1  LP0     -1.358200        0.0000           
   17133 A    4284 TIP4 O1   OW0      0.000000       15.9990           
   17134 A    4284 TIP4 H1   HW0      0.679100        1.0080           
   17135 A    4284 TIP4 H2   HW0      0.679100        1.0080           
   17136 A    4284 TIP4 BD1  LP0     -1.358200        0.0000           
   17137 A    4285 TIP4 O1   OW0      0.000000       15.9990           
   17138 A    4285 TIP4 H1   HW0      0.679100        1.0080           
   17139 A    4285 TIP4 H2   HW0      0.679100        1.0080           
   17140 A    4285 TIP4 BD1  LP0     -1.358200        0.0000           
   17141 A    4286 TIP4 O1   OW0      0.000000       15.9990           
   17142 A    4286 TIP4 H1   HW0      0.679100        1.0080           
   17143 A    4286 TIP4 H2   HW0      0.679100        1.0080           
   17144 A    4286 TIP4 BD1  LP0     -1.358200        0.0000           
   17145 A    4287 TIP4 O1   OW0      0.000000       15.9990           
   17146 A    4287 TIP4 H1   HW0      0.679100        1.0080           
   17147 A    4287 TIP4 H2   HW0      0.679100        1.0080           
   17148 A    4287 TIP4 BD1  LP0     -1.358200        0.0000           
   17149 A    4288 TIP4 O1   OW0      0.000000       15.9990           
   17150 A    4288 TIP4 H1   HW0      0.679100        1.0080           
   17151 A    4288 TIP4 H2   HW0      0.679100        1.0080           
   17152 A    4288 TIP4 BD1  LP0     -1.358200        0.0000           
   17153 A    4289 TIP4 O1   OW0      0.000000       15.9990           
   17154 A    4289 TIP4 H1   HW0      0.679100        1.0080           
   17155 A    4289 TIP4 H2   HW0      0.679100        1.0080           
   17156 A    4289 TIP4 BD1  LP0     -1.358200        0.0000           
   17157 A    4290 TIP4 O1   OW0      0.000000       15.9990           
   17158 A    4290 TIP4 H1   HW0      0.679100        1.0080           
   17159 A    4290 TIP4 H2   HW0      0.679100        1.0080           
   17160 A    4290 TIP4 BD1  LP0     -1.358200        0.0000           
   17161 A    4291 TIP4 O1   OW0      0.000000       15.9990           
   17162 A    4291 TIP4 H1   HW0      0.679100        1.0080           
   17163 A    4291 TIP4 H2   HW0      0.679100        1.0080           
   17164 A    4291 TIP4 BD1  LP0     -1.358200        0.0000           
   17165 A    4292 TIP4 O1   OW0      0.000000       15.9990           
   17166 A    4292 TIP4 H1   HW0      0.679100        1.0080           
   17167 A    4292 TIP4 H2   HW0      0.679100        1.0080           
   17168 A    4292 TIP4 BD1  LP0     -1.358200        0.0000           
   17169 A    4293 TIP4 O1   OW0      0.000000       15.9990           
   17170 A    4293 TIP4 H1   HW0      0.679100        1.0080           
   17171 A    4293 TIP4 H2   HW0      0.679100        1.0080           
   17172 A    4293 TIP4 BD1  LP0     -1.358200        0.0000           
   17173 A    4294 TIP4 O1   OW0      0.000000       15.9990           
   17174 A    4294 TIP4 H1   HW0      0.679100        1.0080           
   17175 A    4294 TIP4 H2   HW0      0.679100        1.0080           
   17176 A    4294 TIP4 BD1  LP0     -1.358200        0.0000           
   17177 A    4295 TIP4 O1   OW0      0.000000       15.9990           
   17178 A    4295 TIP4 H1   HW0      0.679100        1.0080           
   17179 A    4295 TIP4 H2   HW0      0.679100        1.0080           
   17180 A    4295 TIP4 BD1  LP0     -1.358200        0.0000           
   17181 A    4296 TIP4 O1   OW0      0.000000       15.9990           
   17182 A    4296 TIP4 H1   HW0      0.679100        1.0080           
   17183 A    4296 TIP4 H2   HW0      0.679100        1.0080           
   17184 A    4296 TIP4 BD1  LP0     -1.358200        0.0000           
   17185 A    4297 TIP4 O1   OW0      0.000000       15.9990           
   17186 A    4297 TIP4 H1   HW0      0.679100        1.0080           
   17187 A    4297 TIP4 H2   HW0      0.679100        1.0080           
   17188 A    4297 TIP4 BD1  LP0     -1.358200        0.0000           
   17189 A    4298 TIP4 O1   OW0      0.000000       15.9990           
   17190 A    4298 TIP4 H1   HW0      0.679100        1.0080           
   17191 A    4298 TIP4 H2   HW0      0.679100        1.0080           
   17192 A    4298 TIP4 BD1  LP0     -1.358200        0.0000           
   17193 A    4299 TIP4 O1   OW0      0.000000       15.9990           
   17194 A    4299 TIP4 H1   HW0      0.679100        1.0080           
   17195 A    4299 TIP4 H2   HW0      0.679100        1.0080           
   17196 A    4299 TIP4 BD1  LP0     -1.358200        0.0000           
   17197 A    4300 TIP4 O1   OW0      0.000000       15.9990           
   17198 A    4300 TIP4 H1   HW0      0.679100        1.0080           
   17199 A    4300 TIP4 H2   HW0      0.679100        1.0080           
   17200 A    4300 TIP4 BD1  LP0     -1.358200        0.0000           
   17201 A    4301 TIP4 O1   OW0      0.000000       15.9990           
   17202 A    4301 TIP4 H1   HW0      0.679100        1.0080           
   17203 A    4301 TIP4 H2   HW0      0.679100        1.0080           
   17204 A    4301 TIP4 BD1  LP0     -1.358200        0.0000           
   17205 A    4302 TIP4 O1   OW0      0.000000       15.9990           
   17206 A    4302 TIP4 H1   HW0      0.679100        1.0080           
   17207 A    4302 TIP4 H2   HW0      0.679100        1.0080           
   17208 A    4302 TIP4 BD1  LP0     -1.358200        0.0000           
   17209 A    4303 TIP4 O1   OW0      0.000000       15.9990           
   17210 A    4303 TIP4 H1   HW0      0.679100        1.0080           
   17211 A    4303 TIP4 H2   HW0      0.679100        1.0080           
   17212 A    4303 TIP4 BD1  LP0     -1.358200        0.0000           
   17213 A    4304 TIP4 O1   OW0      0.000000       15.9990           
   17214 A    4304 TIP4 H1   HW0      0.679100        1.0080           
   17215 A    4304 TIP4 H2   HW0      0.679100        1.0080           
   17216 A    4304 TIP4 BD1  LP0     -1.358200        0.0000           
   17217 A    4305 TIP4 O1   OW0      0.000000       15.9990           
   17218 A    4305 TIP4 H1   HW0      0.679100        1.0080           
   17219 A    4305 TIP4 H2   HW0      0.679100        1.0080           
   17220 A    4305 TIP4 BD1  LP0     -1.358200        0.0000           
   17221 A    4306 TIP4 O1   OW0      0.000000       15.9990           
   17222 A    4306 TIP4 H1   HW0      0.679100        1.0080           
   17223 A    4306 TIP4 H2   HW0      0.679100        1.0080           
   17224 A    4306 TIP4 BD1  LP0     -1.358200        0.0000           
   17225 A    4307 TIP4 O1   OW0      0.000000       15.9990           
   17226 A    4307 TIP4 H1   HW0      0.679100        1.0080           
   17227 A    4307 TIP4 H2   HW0      0.679100        1.0080           
   17228 A    4307 TIP4 BD1  LP0     -1.358200        0.0000           
   17229 A    4308 TIP4 O1   OW0      0.000000       15.9990           
   17230 A    4308 TIP4 H1   HW0      0.679100        1.0080           
   17231 A    4308 TIP4 H2   HW0      0.679100        1.0080           
   17232 A    4308 TIP4 BD1  LP0     -1.358200        0.0000           
   17233 A    4309 TIP4 O1   OW0      0.000000       15.9990           
   17234 A    4309 TIP4 H1   HW0      0.679100        1.0080           
   17235 A    4309 TIP4 H2   HW0      0.679100        1.0080           
   17236 A    4309 TIP4 BD1  LP0     -1.358200        0.0000           
   17237 A    4310 TIP4 O1   OW0      0.000000       15.9990           
   17238 A    4310 TIP4 H1   HW0      0.679100        1.0080           
   17239 A    4310 TIP4 H2   HW0      0.679100        1.0080           
   17240 A    4310 TIP4 BD1  LP0     -1.358200        0.0000           
   17241 A    4311 TIP4 O1   OW0      0.000000       15.9990           
   17242 A    4311 TIP4 H1   HW0      0.679100        1.0080           
   17243 A    4311 TIP4 H2   HW0      0.679100        1.0080           
   17244 A    4311 TIP4 BD1  LP0     -1.358200        0.0000           
   17245 A    4312 TIP4 O1   OW0      0.000000       15.9990           
   17246 A    4312 TIP4 H1   HW0      0.679100        1.0080           
   17247 A    4312 TIP4 H2   HW0      0.679100        1.0080           
   17248 A    4312 TIP4 BD1  LP0     -1.358200        0.0000           
   17249 A    4313 TIP4 O1   OW0      0.000000       15.9990           
   17250 A    4313 TIP4 H1   HW0      0.679100        1.0080           
   17251 A    4313 TIP4 H2   HW0      0.679100        1.0080           
   17252 A    4313 TIP4 BD1  LP0     -1.358200        0.0000           
   17253 A    4314 TIP4 O1   OW0      0.000000       15.9990           
   17254 A    4314 TIP4 H1   HW0      0.679100        1.0080           
   17255 A    4314 TIP4 H2   HW0      0.679100        1.0080           
   17256 A    4314 TIP4 BD1  LP0     -1.358200        0.0000           
   17257 A    4315 TIP4 O1   OW0      0.000000       15.9990           
   17258 A    4315 TIP4 H1   HW0      0.679100        1.0080           
   17259 A    4315 TIP4 H2   HW0      0.679100        1.0080           
   17260 A    4315 TIP4 BD1  LP0     -1.358200        0.0000           
   17261 A    4316 TIP4 O1   OW0      0.000000       15.9990           
   17262 A    4316 TIP4 H1   HW0      0.679100        1.0080           
   17263 A    4316 TIP4 H2   HW0      0.679100        1.0080           
   17264 A    4316 TIP4 BD1  LP0     -1.358200        0.0000           
   17265 A    4317 TIP4 O1   OW0      0.000000       15.9990           
   17266 A    4317 TIP4 H1   HW0      0.679100        1.0080           
   17267 A    4317 TIP4 H2   HW0      0.679100        1.0080           
   17268 A    4317 TIP4 BD1  LP0     -1.358200        0.0000           
   17269 A    4318 TIP4 O1   OW0      0.000000       15.9990           
   17270 A    4318 TIP4 H1   HW0      0.679100        1.0080           
   17271 A    4318 TIP4 H2   HW0      0.679100        1.0080           
   17272 A    4318 TIP4 BD1  LP0     -1.358200        0.0000           
   17273 A    4319 TIP4 O1   OW0      0.000000       15.9990           
   17274 A    4319 TIP4 H1   HW0      0.679100        1.0080           
   17275 A    4319 TIP4 H2   HW0      0.679100        1.0080           
   17276 A    4319 TIP4 BD1  LP0     -1.358200        0.0000           
   17277 A    4320 TIP4 O1   OW0      0.000000       15.9990           
   17278 A    4320 TIP4 H1   HW0      0.679100        1.0080           
   17279 A    4320 TIP4 H2   HW0      0.679100        1.0080           
   17280 A    4320 TIP4 BD1  LP0     -1.358200        0.0000           
   17281 A    4321 TIP4 O1   OW0      0.000000       15.9990           
   17282 A    4321 TIP4 H1   HW0      0.679100        1.0080           
   17283 A    4321 TIP4 H2   HW0      0.679100        1.0080           
   17284 A    4321 TIP4 BD1  LP0     -1.358200        0.0000           
   17285 A    4322 TIP4 O1   OW0      0.000000       15.9990           
   17286 A    4322 TIP4 H1   HW0      0.679100        1.0080           
   17287 A    4322 TIP4 H2   HW0      0.679100        1.0080           
   17288 A    4322 TIP4 BD1  LP0     -1.358200        0.0000           
   17289 A    4323 TIP4 O1   OW0      0.000000       15.9990           
   17290 A    4323 TIP4 H1   HW0      0.679100        1.0080           
   17291 A    4323 TIP4 H2   HW0      0.679100        1.0080           
   17292 A    4323 TIP4 BD1  LP0     -1.358200        0.0000           
   17293 A    4324 TIP4 O1   OW0      0.000000       15.9990           
   17294 A    4324 TIP4 H1   HW0      0.679100        1.0080           
   17295 A    4324 TIP4 H2   HW0      0.679100        1.0080           
   17296 A    4324 TIP4 BD1  LP0     -1.358200        0.0000           
   17297 A    4325 TIP4 O1   OW0      0.000000       15.9990           
   17298 A    4325 TIP4 H1   HW0      0.679100        1.0080           
   17299 A    4325 TIP4 H2   HW0      0.679100        1.0080           
   17300 A    4325 TIP4 BD1  LP0     -1.358200        0.0000           
   17301 A    4326 TIP4 O1   OW0      0.000000       15.9990           
   17302 A    4326 TIP4 H1   HW0      0.679100        1.0080           
   17303 A    4326 TIP4 H2   HW0      0.679100        1.0080           
   17304 A    4326 TIP4 BD1  LP0     -1.358200        0.0000           
   17305 A    4327 TIP4 O1   OW0      0.000000       15.9990           
   17306 A    4327 TIP4 H1   HW0      0.679100        1.0080           
   17307 A    4327 TIP4 H2   HW0      0.679100        1.0080           
   17308 A    4327 TIP4 BD1  LP0     -1.358200        0.0000           
   17309 A    4328 TIP4 O1   OW0      0.000000       15.9990           
   17310 A    4328 TIP4 H1   HW0      0.679100        1.0080           
   17311 A    4328 TIP4 H2   HW0      0.679100        1.0080           
   17312 A    4328 TIP4 BD1  LP0     -1.358200        0.0000           
   17313 A    4329 TIP4 O1   OW0      0.000000       15.9990           
   17314 A    4329 TIP4 H1   HW0      0.679100        1.0080           
   17315 A    4329 TIP4 H2   HW0      0.679100        1.0080           
   17316 A    4329 TIP4 BD1  LP0     -1.358200        0.0000           
   17317 A    4330 TIP4 O1   OW0      0.000000       15.9990           
   17318 A    4330 TIP4 H1   HW0      0.679100        1.0080           
   17319 A    4330 TIP4 H2   HW0      0.679100        1.0080           
   17320 A    4330 TIP4 BD1  LP0     -1.358200        0.0000           
   17321 A    4331 TIP4 O1   OW0      0.000000       15.9990           
   17322 A    4331 TIP4 H1   HW0      0.679100        1.0080           
   17323 A    4331 TIP4 H2   HW0      0.679100        1.0080           
   17324 A    4331 TIP4 BD1  LP0     -1.358200        0.0000           
   17325 A    4332 TIP4 O1   OW0      0.000000       15.9990           
   17326 A    4332 TIP4 H1   HW0      0.679100        1.0080           
   17327 A    4332 TIP4 H2   HW0      0.679100        1.0080           
   17328 A    4332 TIP4 BD1  LP0     -1.358200        0.0000           
   17329 A    4333 TIP4 O1   OW0      0.000000       15.9990           
   17330 A    4333 TIP4 H1   HW0      0.679100        1.0080           
   17331 A    4333 TIP4 H2   HW0      0.679100        1.0080           
   17332 A    4333 TIP4 BD1  LP0     -1.358200        0.0000           
   17333 A    4334 TIP4 O1   OW0      0.000000       15.9990           
   17334 A    4334 TIP4 H1   HW0      0.679100        1.0080           
   17335 A    4334 TIP4 H2   HW0      0.679100        1.0080           
   17336 A    4334 TIP4 BD1  LP0     -1.358200        0.0000           
   17337 A    4335 TIP4 O1   OW0      0.000000       15.9990           
   17338 A    4335 TIP4 H1   HW0      0.679100        1.0080           
   17339 A    4335 TIP4 H2   HW0      0.679100        1.0080           
   17340 A    4335 TIP4 BD1  LP0     -1.358200        0.0000           
   17341 A    4336 TIP4 O1   OW0      0.000000       15.9990           
   17342 A    4336 TIP4 H1   HW0      0.679100        1.0080           
   17343 A    4336 TIP4 H2   HW0      0.679100        1.0080           
   17344 A    4336 TIP4 BD1  LP0     -1.358200        0.0000           
   17345 A    4337 TIP4 O1   OW0      0.000000       15.9990           
   17346 A    4337 TIP4 H1   HW0      0.679100        1.0080           
   17347 A    4337 TIP4 H2   HW0      0.679100        1.0080           
   17348 A    4337 TIP4 BD1  LP0     -1.358200        0.0000           
   17349 A    4338 TIP4 O1   OW0      0.000000       15.9990           
   17350 A    4338 TIP4 H1   HW0      0.679100        1.0080           
   17351 A    4338 TIP4 H2   HW0      0.679100        1.0080           
   17352 A    4338 TIP4 BD1  LP0     -1.358200        0.0000           
   17353 A    4339 TIP4 O1   OW0      0.000000       15.9990           
   17354 A    4339 TIP4 H1   HW0      0.679100        1.0080           
   17355 A    4339 TIP4 H2   HW0      0.679100        1.0080           
   17356 A    4339 TIP4 BD1  LP0     -1.358200        0.0000           
   17357 A    4340 TIP4 O1   OW0      0.000000       15.9990           
   17358 A    4340 TIP4 H1   HW0      0.679100        1.0080           
   17359 A    4340 TIP4 H2   HW0      0.679100        1.0080           
   17360 A    4340 TIP4 BD1  LP0     -1.358200        0.0000           
   17361 A    4341 TIP4 O1   OW0      0.000000       15.9990           
   17362 A    4341 TIP4 H1   HW0      0.679100        1.0080           
   17363 A    4341 TIP4 H2   HW0      0.679100        1.0080           
   17364 A    4341 TIP4 BD1  LP0     -1.358200        0.0000           
   17365 A    4342 TIP4 O1   OW0      0.000000       15.9990           
   17366 A    4342 TIP4 H1   HW0      0.679100        1.0080           
   17367 A    4342 TIP4 H2   HW0      0.679100        1.0080           
   17368 A    4342 TIP4 BD1  LP0     -1.358200        0.0000           
   17369 A    4343 TIP4 O1   OW0      0.000000       15.9990           
   17370 A    4343 TIP4 H1   HW0      0.679100        1.0080           
   17371 A    4343 TIP4 H2   HW0      0.679100        1.0080           
   17372 A    4343 TIP4 BD1  LP0     -1.358200        0.0000           
   17373 A    4344 TIP4 O1   OW0      0.000000       15.9990           
   17374 A    4344 TIP4 H1   HW0      0.679100        1.0080           
   17375 A    4344 TIP4 H2   HW0      0.679100        1.0080           
   17376 A    4344 TIP4 BD1  LP0     -1.358200        0.0000           
   17377 A    4345 TIP4 O1   OW0      0.000000       15.9990           
   17378 A    4345 TIP4 H1   HW0      0.679100        1.0080           
   17379 A    4345 TIP4 H2   HW0      0.679100        1.0080           
   17380 A    4345 TIP4 BD1  LP0     -1.358200        0.0000           
   17381 A    4346 TIP4 O1   OW0      0.000000       15.9990           
   17382 A    4346 TIP4 H1   HW0      0.679100        1.0080           
   17383 A    4346 TIP4 H2   HW0      0.679100        1.0080           
   17384 A    4346 TIP4 BD1  LP0     -1.358200        0.0000           
   17385 A    4347 TIP4 O1   OW0      0.000000       15.9990           
   17386 A    4347 TIP4 H1   HW0      0.679100        1.0080           
   17387 A    4347 TIP4 H2   HW0      0.679100        1.0080           
   17388 A    4347 TIP4 BD1  LP0     -1.358200        0.0000           
   17389 A    4348 TIP4 O1   OW0      0.000000       15.9990           
   17390 A    4348 TIP4 H1   HW0      0.679100        1.0080           
   17391 A    4348 TIP4 H2   HW0      0.679100        1.0080           
   17392 A    4348 TIP4 BD1  LP0     -1.358200        0.0000           
   17393 A    4349 TIP4 O1   OW0      0.000000       15.9990           
   17394 A    4349 TIP4 H1   HW0      0.679100        1.0080           
   17395 A    4349 TIP4 H2   HW0      0.679100        1.0080           
   17396 A    4349 TIP4 BD1  LP0     -1.358200        0.0000           
   17397 A    4350 TIP4 O1   OW0      0.000000       15.9990           
   17398 A    4350 TIP4 H1   HW0      0.679100        1.0080           
   17399 A    4350 TIP4 H2   HW0      0.679100        1.0080           
   17400 A    4350 TIP4 BD1  LP0     -1.358200        0.0000           
   17401 A    4351 TIP4 O1   OW0      0.000000       15.9990           
   17402 A    4351 TIP4 H1   HW0      0.679100        1.0080           
   17403 A    4351 TIP4 H2   HW0      0.679100        1.0080           
   17404 A    4351 TIP4 BD1  LP0     -1.358200        0.0000           
   17405 A    4352 TIP4 O1   OW0      0.000000       15.9990           
   17406 A    4352 TIP4 H1   HW0      0.679100        1.0080           
   17407 A    4352 TIP4 H2   HW0      0.679100        1.0080           
   17408 A    4352 TIP4 BD1  LP0     -1.358200        0.0000           
   17409 A    4353 TIP4 O1   OW0      0.000000       15.9990           
   17410 A    4353 TIP4 H1   HW0      0.679100        1.0080           
   17411 A    4353 TIP4 H2   HW0      0.679100        1.0080           
   17412 A    4353 TIP4 BD1  LP0     -1.358200        0.0000           
   17413 A    4354 TIP4 O1   OW0      0.000000       15.9990           
   17414 A    4354 TIP4 H1   HW0      0.679100        1.0080           
   17415 A    4354 TIP4 H2   HW0      0.679100        1.0080           
   17416 A    4354 TIP4 BD1  LP0     -1.358200        0.0000           
   17417 A    4355 TIP4 O1   OW0      0.000000       15.9990           
   17418 A    4355 TIP4 H1   HW0      0.679100        1.0080           
   17419 A    4355 TIP4 H2   HW0      0.679100        1.0080           
   17420 A    4355 TIP4 BD1  LP0     -1.358200        0.0000           
   17421 A    4356 TIP4 O1   OW0      0.000000       15.9990           
   17422 A    4356 TIP4 H1   HW0      0.679100        1.0080           
   17423 A    4356 TIP4 H2   HW0      0.679100        1.0080           
   17424 A    4356 TIP4 BD1  LP0     -1.358200        0.0000           
   17425 A    4357 TIP4 O1   OW0      0.000000       15.9990           
   17426 A    4357 TIP4 H1   HW0      0.679100        1.0080           
   17427 A    4357 TIP4 H2   HW0      0.679100        1.0080           
   17428 A    4357 TIP4 BD1  LP0     -1.358200        0.0000           
   17429 A    4358 TIP4 O1   OW0      0.000000       15.9990           
   17430 A    4358 TIP4 H1   HW0      0.679100        1.0080           
   17431 A    4358 TIP4 H2   HW0      0.679100        1.0080           
   17432 A    4358 TIP4 BD1  LP0     -1.358200        0.0000           
   17433 A    4359 TIP4 O1   OW0      0.000000       15.9990           
   17434 A    4359 TIP4 H1   HW0      0.679100        1.0080           
   17435 A    4359 TIP4 H2   HW0      0.679100        1.0080           
   17436 A    4359 TIP4 BD1  LP0     -1.358200        0.0000           
   17437 A    4360 TIP4 O1   OW0      0.000000       15.9990           
   17438 A    4360 TIP4 H1   HW0      0.679100        1.0080           
   17439 A    4360 TIP4 H2   HW0      0.679100        1.0080           
   17440 A    4360 TIP4 BD1  LP0     -1.358200        0.0000           
   17441 A    4361 TIP4 O1   OW0      0.000000       15.9990           
   17442 A    4361 TIP4 H1   HW0      0.679100        1.0080           
   17443 A    4361 TIP4 H2   HW0      0.679100        1.0080           
   17444 A    4361 TIP4 BD1  LP0     -1.358200        0.0000           
   17445 A    4362 TIP4 O1   OW0      0.000000       15.9990           
   17446 A    4362 TIP4 H1   HW0      0.679100        1.0080           
   17447 A    4362 TIP4 H2   HW0      0.679100        1.0080           
   17448 A    4362 TIP4 BD1  LP0     -1.358200        0.0000           
   17449 A    4363 TIP4 O1   OW0      0.000000       15.9990           
   17450 A    4363 TIP4 H1   HW0      0.679100        1.0080           
   17451 A    4363 TIP4 H2   HW0      0.679100        1.0080           
   17452 A    4363 TIP4 BD1  LP0     -1.358200        0.0000           
   17453 A    4364 TIP4 O1   OW0      0.000000       15.9990           
   17454 A    4364 TIP4 H1   HW0      0.679100        1.0080           
   17455 A    4364 TIP4 H2   HW0      0.679100        1.0080           
   17456 A    4364 TIP4 BD1  LP0     -1.358200        0.0000           
   17457 A    4365 TIP4 O1   OW0      0.000000       15.9990           
   17458 A    4365 TIP4 H1   HW0      0.679100        1.0080           
   17459 A    4365 TIP4 H2   HW0      0.679100        1.0080           
   17460 A    4365 TIP4 BD1  LP0     -1.358200        0.0000           
   17461 A    4366 TIP4 O1   OW0      0.000000       15.9990           
   17462 A    4366 TIP4 H1   HW0      0.679100        1.0080           
   17463 A    4366 TIP4 H2   HW0      0.679100        1.0080           
   17464 A    4366 TIP4 BD1  LP0     -1.358200        0.0000           
   17465 A    4367 TIP4 O1   OW0      0.000000       15.9990           
   17466 A    4367 TIP4 H1   HW0      0.679100        1.0080           
   17467 A    4367 TIP4 H2   HW0      0.679100        1.0080           
   17468 A    4367 TIP4 BD1  LP0     -1.358200        0.0000           
   17469 A    4368 TIP4 O1   OW0      0.000000       15.9990           
   17470 A    4368 TIP4 H1   HW0      0.679100        1.0080           
   17471 A    4368 TIP4 H2   HW0      0.679100        1.0080           
   17472 A    4368 TIP4 BD1  LP0     -1.358200        0.0000           
   17473 A    4369 TIP4 O1   OW0      0.000000       15.9990           
   17474 A    4369 TIP4 H1   HW0      0.679100        1.0080           
   17475 A    4369 TIP4 H2   HW0      0.679100        1.0080           
   17476 A    4369 TIP4 BD1  LP0     -1.358200        0.0000           
   17477 A    4370 TIP4 O1   OW0      0.000000       15.9990           
   17478 A    4370 TIP4 H1   HW0      0.679100        1.0080           
   17479 A    4370 TIP4 H2   HW0      0.679100        1.0080           
   17480 A    4370 TIP4 BD1  LP0     -1.358200        0.0000           
   17481 A    4371 TIP4 O1   OW0      0.000000       15.9990           
   17482 A    4371 TIP4 H1   HW0      0.679100        1.0080           
   17483 A    4371 TIP4 H2   HW0      0.679100        1.0080           
   17484 A    4371 TIP4 BD1  LP0     -1.358200        0.0000           
   17485 A    4372 TIP4 O1   OW0      0.000000       15.9990           
   17486 A    4372 TIP4 H1   HW0      0.679100        1.0080           
   17487 A    4372 TIP4 H2   HW0      0.679100        1.0080           
   17488 A    4372 TIP4 BD1  LP0     -1.358200        0.0000           
   17489 A    4373 TIP4 O1   OW0      0.000000       15.9990           
   17490 A    4373 TIP4 H1   HW0      0.679100        1.0080           
   17491 A    4373 TIP4 H2   HW0      0.679100        1.0080           
   17492 A    4373 TIP4 BD1  LP0     -1.358200        0.0000           
   17493 A    4374 TIP4 O1   OW0      0.000000       15.9990           
   17494 A    4374 TIP4 H1   HW0      0.679100        1.0080           
   17495 A    4374 TIP4 H2   HW0      0.679100        1.0080           
   17496 A    4374 TIP4 BD1  LP0     -1.358200        0.0000           
   17497 A    4375 TIP4 O1   OW0      0.000000       15.9990           
   17498 A    4375 TIP4 H1   HW0      0.679100        1.0080           
   17499 A    4375 TIP4 H2   HW0      0.679100        1.0080           
   17500 A    4375 TIP4 BD1  LP0     -1.358200        0.0000           
   17501 A    4376 TIP4 O1   OW0      0.000000       15.9990           
   17502 A    4376 TIP4 H1   HW0      0.679100        1.0080           
   17503 A    4376 TIP4 H2   HW0      0.679100        1.0080           
   17504 A    4376 TIP4 BD1  LP0     -1.358200        0.0000           
   17505 A    4377 TIP4 O1   OW0      0.000000       15.9990           
   17506 A    4377 TIP4 H1   HW0      0.679100        1.0080           
   17507 A    4377 TIP4 H2   HW0      0.679100        1.0080           
   17508 A    4377 TIP4 BD1  LP0     -1.358200        0.0000           
   17509 A    4378 TIP4 O1   OW0      0.000000       15.9990           
   17510 A    4378 TIP4 H1   HW0      0.679100        1.0080           
   17511 A    4378 TIP4 H2   HW0      0.679100        1.0080           
   17512 A    4378 TIP4 BD1  LP0     -1.358200        0.0000           
   17513 A    4379 TIP4 O1   OW0      0.000000       15.9990           
   17514 A    4379 TIP4 H1   HW0      0.679100        1.0080           
   17515 A    4379 TIP4 H2   HW0      0.679100        1.0080           
   17516 A    4379 TIP4 BD1  LP0     -1.358200        0.0000           
   17517 A    4380 TIP4 O1   OW0      0.000000       15.9990           
   17518 A    4380 TIP4 H1   HW0      0.679100        1.0080           
   17519 A    4380 TIP4 H2   HW0      0.679100        1.0080           
   17520 A    4380 TIP4 BD1  LP0     -1.358200        0.0000           
   17521 A    4381 TIP4 O1   OW0      0.000000       15.9990           
   17522 A    4381 TIP4 H1   HW0      0.679100        1.0080           
   17523 A    4381 TIP4 H2   HW0      0.679100        1.0080           
   17524 A    4381 TIP4 BD1  LP0     -1.358200        0.0000           
   17525 A    4382 TIP4 O1   OW0      0.000000       15.9990           
   17526 A    4382 TIP4 H1   HW0      0.679100        1.0080           
   17527 A    4382 TIP4 H2   HW0      0.679100        1.0080           
   17528 A    4382 TIP4 BD1  LP0     -1.358200        0.0000           
   17529 A    4383 TIP4 O1   OW0      0.000000       15.9990           
   17530 A    4383 TIP4 H1   HW0      0.679100        1.0080           
   17531 A    4383 TIP4 H2   HW0      0.679100        1.0080           
   17532 A    4383 TIP4 BD1  LP0     -1.358200        0.0000           
   17533 A    4384 TIP4 O1   OW0      0.000000       15.9990           
   17534 A    4384 TIP4 H1   HW0      0.679100        1.0080           
   17535 A    4384 TIP4 H2   HW0      0.679100        1.0080           
   17536 A    4384 TIP4 BD1  LP0     -1.358200        0.0000           
   17537 A    4385 TIP4 O1   OW0      0.000000       15.9990           
   17538 A    4385 TIP4 H1   HW0      0.679100        1.0080           
   17539 A    4385 TIP4 H2   HW0      0.679100        1.0080           
   17540 A    4385 TIP4 BD1  LP0     -1.358200        0.0000           
   17541 A    4386 TIP4 O1   OW0      0.000000       15.9990           
   17542 A    4386 TIP4 H1   HW0      0.679100        1.0080           
   17543 A    4386 TIP4 H2   HW0      0.679100        1.0080           
   17544 A    4386 TIP4 BD1  LP0     -1.358200        0.0000           
   17545 A    4387 TIP4 O1   OW0      0.000000       15.9990           
   17546 A    4387 TIP4 H1   HW0      0.679100        1.0080           
   17547 A    4387 TIP4 H2   HW0      0.679100        1.0080           
   17548 A    4387 TIP4 BD1  LP0     -1.358200        0.0000           
   17549 A    4388 TIP4 O1   OW0      0.000000       15.9990           
   17550 A    4388 TIP4 H1   HW0      0.679100        1.0080           
   17551 A    4388 TIP4 H2   HW0      0.679100        1.0080           
   17552 A    4388 TIP4 BD1  LP0     -1.358200        0.0000           
   17553 A    4389 TIP4 O1   OW0      0.000000       15.9990           
   17554 A    4389 TIP4 H1   HW0      0.679100        1.0080           
   17555 A    4389 TIP4 H2   HW0      0.679100        1.0080           
   17556 A    4389 TIP4 BD1  LP0     -1.358200        0.0000           
   17557 A    4390 TIP4 O1   OW0      0.000000       15.9990           
   17558 A    4390 TIP4 H1   HW0      0.679100        1.0080           
   17559 A    4390 TIP4 H2   HW0      0.679100        1.0080           
   17560 A    4390 TIP4 BD1  LP0     -1.358200        0.0000           
   17561 A    4391 TIP4 O1   OW0      0.000000       15.9990           
   17562 A    4391 TIP4 H1   HW0      0.679100        1.0080           
   17563 A    4391 TIP4 H2   HW0      0.679100        1.0080           
   17564 A    4391 TIP4 BD1  LP0     -1.358200        0.0000           
   17565 A    4392 TIP4 O1   OW0      0.000000       15.9990           
   17566 A    4392 TIP4 H1   HW0      0.679100        1.0080           
   17567 A    4392 TIP4 H2   HW0      0.679100        1.0080           
   17568 A    4392 TIP4 BD1  LP0     -1.358200        0.0000           
   17569 A    4393 TIP4 O1   OW0      0.000000       15.9990           
   17570 A    4393 TIP4 H1   HW0      0.679100        1.0080           
   17571 A    4393 TIP4 H2   HW0      0.679100        1.0080           
   17572 A    4393 TIP4 BD1  LP0     -1.358200        0.0000           
   17573 A    4394 TIP4 O1   OW0      0.000000       15.9990           
   17574 A    4394 TIP4 H1   HW0      0.679100        1.0080           
   17575 A    4394 TIP4 H2   HW0      0.679100        1.0080           
   17576 A    4394 TIP4 BD1  LP0     -1.358200        0.0000           
   17577 A    4395 TIP4 O1   OW0      0.000000       15.9990           
   17578 A    4395 TIP4 H1   HW0      0.679100        1.0080           
   17579 A    4395 TIP4 H2   HW0      0.679100        1.0080           
   17580 A    4395 TIP4 BD1  LP0     -1.358200        0.0000           
   17581 A    4396 TIP4 O1   OW0      0.000000       15.9990           
   17582 A    4396 TIP4 H1   HW0      0.679100        1.0080           
   17583 A    4396 TIP4 H2   HW0      0.679100        1.0080           
   17584 A    4396 TIP4 BD1  LP0     -1.358200        0.0000           
   17585 A    4397 TIP4 O1   OW0      0.000000       15.9990           
   17586 A    4397 TIP4 H1   HW0      0.679100        1.0080           
   17587 A    4397 TIP4 H2   HW0      0.679100        1.0080           
   17588 A    4397 TIP4 BD1  LP0     -1.358200        0.0000           
   17589 A    4398 TIP4 O1   OW0      0.000000       15.9990           
   17590 A    4398 TIP4 H1   HW0      0.679100        1.0080           
   17591 A    4398 TIP4 H2   HW0      0.679100        1.0080           
   17592 A    4398 TIP4 BD1  LP0     -1.358200        0.0000           
   17593 A    4399 TIP4 O1   OW0      0.000000       15.9990           
   17594 A    4399 TIP4 H1   HW0      0.679100        1.0080           
   17595 A    4399 TIP4 H2   HW0      0.679100        1.0080           
   17596 A    4399 TIP4 BD1  LP0     -1.358200        0.0000           
   17597 A    4400 TIP4 O1   OW0      0.000000       15.9990           
   17598 A    4400 TIP4 H1   HW0      0.679100        1.0080           
   17599 A    4400 TIP4 H2   HW0      0.679100        1.0080           
   17600 A    4400 TIP4 BD1  LP0     -1.358200        0.0000           
   17601 A    4401 TIP4 O1   OW0      0.000000       15.9990           
   17602 A    4401 TIP4 H1   HW0      0.679100        1.0080           
   17603 A    4401 TIP4 H2   HW0      0.679100        1.0080           
   17604 A    4401 TIP4 BD1  LP0     -1.358200        0.0000           
   17605 A    4402 TIP4 O1   OW0      0.000000       15.9990           
   17606 A    4402 TIP4 H1   HW0      0.679100        1.0080           
   17607 A    4402 TIP4 H2   HW0      0.679100        1.0080           
   17608 A    4402 TIP4 BD1  LP0     -1.358200        0.0000           
   17609 A    4403 TIP4 O1   OW0      0.000000       15.9990           
   17610 A    4403 TIP4 H1   HW0      0.679100        1.0080           
   17611 A    4403 TIP4 H2   HW0      0.679100        1.0080           
   17612 A    4403 TIP4 BD1  LP0     -1.358200        0.0000           
   17613 A    4404 TIP4 O1   OW0      0.000000       15.9990           
   17614 A    4404 TIP4 H1   HW0      0.679100        1.0080           
   17615 A    4404 TIP4 H2   HW0      0.679100        1.0080           
   17616 A    4404 TIP4 BD1  LP0     -1.358200        0.0000           
   17617 A    4405 TIP4 O1   OW0      0.000000       15.9990           
   17618 A    4405 TIP4 H1   HW0      0.679100        1.0080           
   17619 A    4405 TIP4 H2   HW0      0.679100        1.0080           
   17620 A    4405 TIP4 BD1  LP0     -1.358200        0.0000           
   17621 A    4406 TIP4 O1   OW0      0.000000       15.9990           
   17622 A    4406 TIP4 H1   HW0      0.679100        1.0080           
   17623 A    4406 TIP4 H2   HW0      0.679100        1.0080           
   17624 A    4406 TIP4 BD1  LP0     -1.358200        0.0000           
   17625 A    4407 TIP4 O1   OW0      0.000000       15.9990           
   17626 A    4407 TIP4 H1   HW0      0.679100        1.0080           
   17627 A    4407 TIP4 H2   HW0      0.679100        1.0080           
   17628 A    4407 TIP4 BD1  LP0     -1.358200        0.0000           
   17629 A    4408 TIP4 O1   OW0      0.000000       15.9990           
   17630 A    4408 TIP4 H1   HW0      0.679100        1.0080           
   17631 A    4408 TIP4 H2   HW0      0.679100        1.0080           
   17632 A    4408 TIP4 BD1  LP0     -1.358200        0.0000           
   17633 A    4409 TIP4 O1   OW0      0.000000       15.9990           
   17634 A    4409 TIP4 H1   HW0      0.679100        1.0080           
   17635 A    4409 TIP4 H2   HW0      0.679100        1.0080           
   17636 A    4409 TIP4 BD1  LP0     -1.358200        0.0000           
   17637 A    4410 TIP4 O1   OW0      0.000000       15.9990           
   17638 A    4410 TIP4 H1   HW0      0.679100        1.0080           
   17639 A    4410 TIP4 H2   HW0      0.679100        1.0080           
   17640 A    4410 TIP4 BD1  LP0     -1.358200        0.0000           
   17641 A    4411 TIP4 O1   OW0      0.000000       15.9990           
   17642 A    4411 TIP4 H1   HW0      0.679100        1.0080           
   17643 A    4411 TIP4 H2   HW0      0.679100        1.0080           
   17644 A    4411 TIP4 BD1  LP0     -1.358200        0.0000           
   17645 A    4412 TIP4 O1   OW0      0.000000       15.9990           
   17646 A    4412 TIP4 H1   HW0      0.679100        1.0080           
   17647 A    4412 TIP4 H2   HW0      0.679100        1.0080           
   17648 A    4412 TIP4 BD1  LP0     -1.358200        0.0000           
   17649 A    4413 TIP4 O1   OW0      0.000000       15.9990           
   17650 A    4413 TIP4 H1   HW0      0.679100        1.0080           
   17651 A    4413 TIP4 H2   HW0      0.679100        1.0080           
   17652 A    4413 TIP4 BD1  LP0     -1.358200        0.0000           
   17653 A    4414 TIP4 O1   OW0      0.000000       15.9990           
   17654 A    4414 TIP4 H1   HW0      0.679100        1.0080           
   17655 A    4414 TIP4 H2   HW0      0.679100        1.0080           
   17656 A    4414 TIP4 BD1  LP0     -1.358200        0.0000           
   17657 A    4415 TIP4 O1   OW0      0.000000       15.9990           
   17658 A    4415 TIP4 H1   HW0      0.679100        1.0080           
   17659 A    4415 TIP4 H2   HW0      0.679100        1.0080           
   17660 A    4415 TIP4 BD1  LP0     -1.358200        0.0000           
   17661 A    4416 TIP4 O1   OW0      0.000000       15.9990           
   17662 A    4416 TIP4 H1   HW0      0.679100        1.0080           
   17663 A    4416 TIP4 H2   HW0      0.679100        1.0080           
   17664 A    4416 TIP4 BD1  LP0     -1.358200        0.0000           
   17665 A    4417 TIP4 O1   OW0      0.000000       15.9990           
   17666 A    4417 TIP4 H1   HW0      0.679100        1.0080           
   17667 A    4417 TIP4 H2   HW0      0.679100        1.0080           
   17668 A    4417 TIP4 BD1  LP0     -1.358200        0.0000           
   17669 A    4418 TIP4 O1   OW0      0.000000       15.9990           
   17670 A    4418 TIP4 H1   HW0      0.679100        1.0080           
   17671 A    4418 TIP4 H2   HW0      0.679100        1.0080           
   17672 A    4418 TIP4 BD1  LP0     -1.358200        0.0000           
   17673 A    4419 TIP4 O1   OW0      0.000000       15.9990           
   17674 A    4419 TIP4 H1   HW0      0.679100        1.0080           
   17675 A    4419 TIP4 H2   HW0      0.679100        1.0080           
   17676 A    4419 TIP4 BD1  LP0     -1.358200        0.0000           
   17677 A    4420 TIP4 O1   OW0      0.000000       15.9990           
   17678 A    4420 TIP4 H1   HW0      0.679100        1.0080           
   17679 A    4420 TIP4 H2   HW0      0.679100        1.0080           
   17680 A    4420 TIP4 BD1  LP0     -1.358200        0.0000           
   17681 A    4421 TIP4 O1   OW0      0.000000       15.9990           
   17682 A    4421 TIP4 H1   HW0      0.679100        1.0080           
   17683 A    4421 TIP4 H2   HW0      0.679100        1.0080           
   17684 A    4421 TIP4 BD1  LP0     -1.358200        0.0000           
   17685 A    4422 TIP4 O1   OW0      0.000000       15.9990           
   17686 A    4422 TIP4 H1   HW0      0.679100        1.0080           
   17687 A    4422 TIP4 H2   HW0      0.679100        1.0080           
   17688 A    4422 TIP4 BD1  LP0     -1.358200        0.0000           
   17689 A    4423 TIP4 O1   OW0      0.000000       15.9990           
   17690 A    4423 TIP4 H1   HW0      0.679100        1.0080           
   17691 A    4423 TIP4 H2   HW0      0.679100        1.0080           
   17692 A    4423 TIP4 BD1  LP0     -1.358200        0.0000           
   17693 A    4424 TIP4 O1   OW0      0.000000       15.9990           
   17694 A    4424 TIP4 H1   HW0      0.679100        1.0080           
   17695 A    4424 TIP4 H2   HW0      0.679100        1.0080           
   17696 A    4424 TIP4 BD1  LP0     -1.358200        0.0000           
   17697 A    4425 TIP4 O1   OW0      0.000000       15.9990           
   17698 A    4425 TIP4 H1   HW0      0.679100        1.0080           
   17699 A    4425 TIP4 H2   HW0      0.679100        1.0080           
   17700 A    4425 TIP4 BD1  LP0     -1.358200        0.0000           
   17701 A    4426 TIP4 O1   OW0      0.000000       15.9990           
   17702 A    4426 TIP4 H1   HW0      0.679100        1.0080           
   17703 A    4426 TIP4 H2   HW0      0.679100        1.0080           
   17704 A    4426 TIP4 BD1  LP0     -1.358200        0.0000           
   17705 A    4427 TIP4 O1   OW0      0.000000       15.9990           
   17706 A    4427 TIP4 H1   HW0      0.679100        1.0080           
   17707 A    4427 TIP4 H2   HW0      0.679100        1.0080           
   17708 A    4427 TIP4 BD1  LP0     -1.358200        0.0000           
   17709 A    4428 TIP4 O1   OW0      0.000000       15.9990           
   17710 A    4428 TIP4 H1   HW0      0.679100        1.0080           
   17711 A    4428 TIP4 H2   HW0      0.679100        1.0080           
   17712 A    4428 TIP4 BD1  LP0     -1.358200        0.0000           
   17713 A    4429 TIP4 O1   OW0      0.000000       15.9990           
   17714 A    4429 TIP4 H1   HW0      0.679100        1.0080           
   17715 A    4429 TIP4 H2   HW0      0.679100        1.0080           
   17716 A    4429 TIP4 BD1  LP0     -1.358200        0.0000           
   17717 A    4430 TIP4 O1   OW0      0.000000       15.9990           
   17718 A    4430 TIP4 H1   HW0      0.679100        1.0080           
   17719 A    4430 TIP4 H2   HW0      0.679100        1.0080           
   17720 A    4430 TIP4 BD1  LP0     -1.358200        0.0000           
   17721 A    4431 TIP4 O1   OW0      0.000000       15.9990           
   17722 A    4431 TIP4 H1   HW0      0.679100        1.0080           
   17723 A    4431 TIP4 H2   HW0      0.679100        1.0080           
   17724 A    4431 TIP4 BD1  LP0     -1.358200        0.0000           
   17725 A    4432 TIP4 O1   OW0      0.000000       15.9990           
   17726 A    4432 TIP4 H1   HW0      0.679100        1.0080           
   17727 A    4432 TIP4 H2   HW0      0.679100        1.0080           
   17728 A    4432 TIP4 BD1  LP0     -1.358200        0.0000           
   17729 A    4433 TIP4 O1   OW0      0.000000       15.9990           
   17730 A    4433 TIP4 H1   HW0      0.679100        1.0080           
   17731 A    4433 TIP4 H2   HW0      0.679100        1.0080           
   17732 A    4433 TIP4 BD1  LP0     -1.358200        0.0000           
   17733 A    4434 TIP4 O1   OW0      0.000000       15.9990           
   17734 A    4434 TIP4 H1   HW0      0.679100        1.0080           
   17735 A    4434 TIP4 H2   HW0      0.679100        1.0080           
   17736 A    4434 TIP4 BD1  LP0     -1.358200        0.0000           
   17737 A    4435 TIP4 O1   OW0      0.000000       15.9990           
   17738 A    4435 TIP4 H1   HW0      0.679100        1.0080           
   17739 A    4435 TIP4 H2   HW0      0.679100        1.0080           
   17740 A    4435 TIP4 BD1  LP0     -1.358200        0.0000           
   17741 A    4436 TIP4 O1   OW0      0.000000       15.9990           
   17742 A    4436 TIP4 H1   HW0      0.679100        1.0080           
   17743 A    4436 TIP4 H2   HW0      0.679100        1.0080           
   17744 A    4436 TIP4 BD1  LP0     -1.358200        0.0000           
   17745 A    4437 TIP4 O1   OW0      0.000000       15.9990           
   17746 A    4437 TIP4 H1   HW0      0.679100        1.0080           
   17747 A    4437 TIP4 H2   HW0      0.679100        1.0080           
   17748 A    4437 TIP4 BD1  LP0     -1.358200        0.0000           
   17749 A    4438 TIP4 O1   OW0      0.000000       15.9990           
   17750 A    4438 TIP4 H1   HW0      0.679100        1.0080           
   17751 A    4438 TIP4 H2   HW0      0.679100        1.0080           
   17752 A    4438 TIP4 BD1  LP0     -1.358200        0.0000           
   17753 A    4439 TIP4 O1   OW0      0.000000       15.9990           
   17754 A    4439 TIP4 H1   HW0      0.679100        1.0080           
   17755 A    4439 TIP4 H2   HW0      0.679100        1.0080           
   17756 A    4439 TIP4 BD1  LP0     -1.358200        0.0000           
   17757 A    4440 TIP4 O1   OW0      0.000000       15.9990           
   17758 A    4440 TIP4 H1   HW0      0.679100        1.0080           
   17759 A    4440 TIP4 H2   HW0      0.679100        1.0080           
   17760 A    4440 TIP4 BD1  LP0     -1.358200        0.0000           
   17761 A    4441 TIP4 O1   OW0      0.000000       15.9990           
   17762 A    4441 TIP4 H1   HW0      0.679100        1.0080           
   17763 A    4441 TIP4 H2   HW0      0.679100        1.0080           
   17764 A    4441 TIP4 BD1  LP0     -1.358200        0.0000           
   17765 A    4442 TIP4 O1   OW0      0.000000       15.9990           
   17766 A    4442 TIP4 H1   HW0      0.679100        1.0080           
   17767 A    4442 TIP4 H2   HW0      0.679100        1.0080           
   17768 A    4442 TIP4 BD1  LP0     -1.358200        0.0000           
   17769 A    4443 TIP4 O1   OW0      0.000000       15.9990           
   17770 A    4443 TIP4 H1   HW0      0.679100        1.0080           
   17771 A    4443 TIP4 H2   HW0      0.679100        1.0080           
   17772 A    4443 TIP4 BD1  LP0     -1.358200        0.0000           
   17773 A    4444 TIP4 O1   OW0      0.000000       15.9990           
   17774 A    4444 TIP4 H1   HW0      0.679100        1.0080           
   17775 A    4444 TIP4 H2   HW0      0.679100        1.0080           
   17776 A    4444 TIP4 BD1  LP0     -1.358200        0.0000           
   17777 A    4445 TIP4 O1   OW0      0.000000       15.9990           
   17778 A    4445 TIP4 H1   HW0      0.679100        1.0080           
   17779 A    4445 TIP4 H2   HW0      0.679100        1.0080           
   17780 A    4445 TIP4 BD1  LP0     -1.358200        0.0000           
   17781 A    4446 TIP4 O1   OW0      0.000000       15.9990           
   17782 A    4446 TIP4 H1   HW0      0.679100        1.0080           
   17783 A    4446 TIP4 H2   HW0      0.679100        1.0080           
   17784 A    4446 TIP4 BD1  LP0     -1.358200        0.0000           
   17785 A    4447 TIP4 O1   OW0      0.000000       15.9990           
   17786 A    4447 TIP4 H1   HW0      0.679100        1.0080           
   17787 A    4447 TIP4 H2   HW0      0.679100        1.0080           
   17788 A    4447 TIP4 BD1  LP0     -1.358200        0.0000           
   17789 A    4448 TIP4 O1   OW0      0.000000       15.9990           
   17790 A    4448 TIP4 H1   HW0      0.679100        1.0080           
   17791 A    4448 TIP4 H2   HW0      0.679100        1.0080           
   17792 A    4448 TIP4 BD1  LP0     -1.358200        0.0000           
   17793 A    4449 TIP4 O1   OW0      0.000000       15.9990           
   17794 A    4449 TIP4 H1   HW0      0.679100        1.0080           
   17795 A    4449 TIP4 H2   HW0      0.679100        1.0080           
   17796 A    4449 TIP4 BD1  LP0     -1.358200        0.0000           
   17797 A    4450 TIP4 O1   OW0      0.000000       15.9990           
   17798 A    4450 TIP4 H1   HW0      0.679100        1.0080           
   17799 A    4450 TIP4 H2   HW0      0.679100        1.0080           
   17800 A    4450 TIP4 BD1  LP0     -1.358200        0.0000           
   17801 A    4451 TIP4 O1   OW0      0.000000       15.9990           
   17802 A    4451 TIP4 H1   HW0      0.679100        1.0080           
   17803 A    4451 TIP4 H2   HW0      0.679100        1.0080           
   17804 A    4451 TIP4 BD1  LP0     -1.358200        0.0000           
   17805 A    4452 TIP4 O1   OW0      0.000000       15.9990           
   17806 A    4452 TIP4 H1   HW0      0.679100        1.0080           
   17807 A    4452 TIP4 H2   HW0      0.679100        1.0080           
   17808 A    4452 TIP4 BD1  LP0     -1.358200        0.0000           
   17809 A    4453 TIP4 O1   OW0      0.000000       15.9990           
   17810 A    4453 TIP4 H1   HW0      0.679100        1.0080           
   17811 A    4453 TIP4 H2   HW0      0.679100        1.0080           
   17812 A    4453 TIP4 BD1  LP0     -1.358200        0.0000           
   17813 A    4454 TIP4 O1   OW0      0.000000       15.9990           
   17814 A    4454 TIP4 H1   HW0      0.679100        1.0080           
   17815 A    4454 TIP4 H2   HW0      0.679100        1.0080           
   17816 A    4454 TIP4 BD1  LP0     -1.358200        0.0000           
   17817 A    4455 TIP4 O1   OW0      0.000000       15.9990           
   17818 A    4455 TIP4 H1   HW0      0.679100        1.0080           
   17819 A    4455 TIP4 H2   HW0      0.679100        1.0080           
   17820 A    4455 TIP4 BD1  LP0     -1.358200        0.0000           
   17821 A    4456 TIP4 O1   OW0      0.000000       15.9990           
   17822 A    4456 TIP4 H1   HW0      0.679100        1.0080           
   17823 A    4456 TIP4 H2   HW0      0.679100        1.0080           
   17824 A    4456 TIP4 BD1  LP0     -1.358200        0.0000           
   17825 A    4457 TIP4 O1   OW0      0.000000       15.9990           
   17826 A    4457 TIP4 H1   HW0      0.679100        1.0080           
   17827 A    4457 TIP4 H2   HW0      0.679100        1.0080           
   17828 A    4457 TIP4 BD1  LP0     -1.358200        0.0000           
   17829 A    4458 TIP4 O1   OW0      0.000000       15.9990           
   17830 A    4458 TIP4 H1   HW0      0.679100        1.0080           
   17831 A    4458 TIP4 H2   HW0      0.679100        1.0080           
   17832 A    4458 TIP4 BD1  LP0     -1.358200        0.0000           
   17833 A    4459 TIP4 O1   OW0      0.000000       15.9990           
   17834 A    4459 TIP4 H1   HW0      0.679100        1.0080           
   17835 A    4459 TIP4 H2   HW0      0.679100        1.0080           
   17836 A    4459 TIP4 BD1  LP0     -1.358200        0.0000           
   17837 A    4460 TIP4 O1   OW0      0.000000       15.9990           
   17838 A    4460 TIP4 H1   HW0      0.679100        1.0080           
   17839 A    4460 TIP4 H2   HW0      0.679100        1.0080           
   17840 A    4460 TIP4 BD1  LP0     -1.358200        0.0000           
   17841 A    4461 TIP4 O1   OW0      0.000000       15.9990           
   17842 A    4461 TIP4 H1   HW0      0.679100        1.0080           
   17843 A    4461 TIP4 H2   HW0      0.679100        1.0080           
   17844 A    4461 TIP4 BD1  LP0     -1.358200        0.0000           
   17845 A    4462 TIP4 O1   OW0      0.000000       15.9990           
   17846 A    4462 TIP4 H1   HW0      0.679100        1.0080           
   17847 A    4462 TIP4 H2   HW0      0.679100        1.0080           
   17848 A    4462 TIP4 BD1  LP0     -1.358200        0.0000           
   17849 A    4463 TIP4 O1   OW0      0.000000       15.9990           
   17850 A    4463 TIP4 H1   HW0      0.679100        1.0080           
   17851 A    4463 TIP4 H2   HW0      0.679100        1.0080           
   17852 A    4463 TIP4 BD1  LP0     -1.358200        0.0000           
   17853 A    4464 TIP4 O1   OW0      0.000000       15.9990           
   17854 A    4464 TIP4 H1   HW0      0.679100        1.0080           
   17855 A    4464 TIP4 H2   HW0      0.679100        1.0080           
   17856 A    4464 TIP4 BD1  LP0     -1.358200        0.0000           
   17857 A    4465 TIP4 O1   OW0      0.000000       15.9990           
   17858 A    4465 TIP4 H1   HW0      0.679100        1.0080           
   17859 A    4465 TIP4 H2   HW0      0.679100        1.0080           
   17860 A    4465 TIP4 BD1  LP0     -1.358200        0.0000           
   17861 A    4466 TIP4 O1   OW0      0.000000       15.9990           
   17862 A    4466 TIP4 H1   HW0      0.679100        1.0080           
   17863 A    4466 TIP4 H2   HW0      0.679100        1.0080           
   17864 A    4466 TIP4 BD1  LP0     -1.358200        0.0000           
   17865 A    4467 TIP4 O1   OW0      0.000000       15.9990           
   17866 A    4467 TIP4 H1   HW0      0.679100        1.0080           
   17867 A    4467 TIP4 H2   HW0      0.679100        1.0080           
   17868 A    4467 TIP4 BD1  LP0     -1.358200        0.0000           
   17869 A    4468 TIP4 O1   OW0      0.000000       15.9990           
   17870 A    4468 TIP4 H1   HW0      0.679100        1.0080           
   17871 A    4468 TIP4 H2   HW0      0.679100        1.0080           
   17872 A    4468 TIP4 BD1  LP0     -1.358200        0.0000           
   17873 A    4469 TIP4 O1   OW0      0.000000       15.9990           
   17874 A    4469 TIP4 H1   HW0      0.679100        1.0080           
   17875 A    4469 TIP4 H2   HW0      0.679100        1.0080           
   17876 A    4469 TIP4 BD1  LP0     -1.358200        0.0000           
   17877 A    4470 TIP4 O1   OW0      0.000000       15.9990           
   17878 A    4470 TIP4 H1   HW0      0.679100        1.0080           
   17879 A    4470 TIP4 H2   HW0      0.679100        1.0080           
   17880 A    4470 TIP4 BD1  LP0     -1.358200        0.0000           
   17881 A    4471 TIP4 O1   OW0      0.000000       15.9990           
   17882 A    4471 TIP4 H1   HW0      0.679100        1.0080           
   17883 A    4471 TIP4 H2   HW0      0.679100        1.0080           
   17884 A    4471 TIP4 BD1  LP0     -1.358200        0.0000           
   17885 A    4472 TIP4 O1   OW0      0.000000       15.9990           
   17886 A    4472 TIP4 H1   HW0      0.679100        1.0080           
   17887 A    4472 TIP4 H2   HW0      0.679100        1.0080           
   17888 A    4472 TIP4 BD1  LP0     -1.358200        0.0000           
   17889 A    4473 TIP4 O1   OW0      0.000000       15.9990           
   17890 A    4473 TIP4 H1   HW0      0.679100        1.0080           
   17891 A    4473 TIP4 H2   HW0      0.679100        1.0080           
   17892 A    4473 TIP4 BD1  LP0     -1.358200        0.0000           
   17893 A    4474 TIP4 O1   OW0      0.000000       15.9990           
   17894 A    4474 TIP4 H1   HW0      0.679100        1.0080           
   17895 A    4474 TIP4 H2   HW0      0.679100        1.0080           
   17896 A    4474 TIP4 BD1  LP0     -1.358200        0.0000           
   17897 A    4475 TIP4 O1   OW0      0.000000       15.9990           
   17898 A    4475 TIP4 H1   HW0      0.679100        1.0080           
   17899 A    4475 TIP4 H2   HW0      0.679100        1.0080           
   17900 A    4475 TIP4 BD1  LP0     -1.358200        0.0000           
   17901 A    4476 TIP4 O1   OW0      0.000000       15.9990           
   17902 A    4476 TIP4 H1   HW0      0.679100        1.0080           
   17903 A    4476 TIP4 H2   HW0      0.679100        1.0080           
   17904 A    4476 TIP4 BD1  LP0     -1.358200        0.0000           
   17905 A    4477 TIP4 O1   OW0      0.000000       15.9990           
   17906 A    4477 TIP4 H1   HW0      0.679100        1.0080           
   17907 A    4477 TIP4 H2   HW0      0.679100        1.0080           
   17908 A    4477 TIP4 BD1  LP0     -1.358200        0.0000           
   17909 A    4478 TIP4 O1   OW0      0.000000       15.9990           
   17910 A    4478 TIP4 H1   HW0      0.679100        1.0080           
   17911 A    4478 TIP4 H2   HW0      0.679100        1.0080           
   17912 A    4478 TIP4 BD1  LP0     -1.358200        0.0000           
   17913 A    4479 TIP4 O1   OW0      0.000000       15.9990           
   17914 A    4479 TIP4 H1   HW0      0.679100        1.0080           
   17915 A    4479 TIP4 H2   HW0      0.679100        1.0080           
   17916 A    4479 TIP4 BD1  LP0     -1.358200        0.0000           
   17917 A    4480 TIP4 O1   OW0      0.000000       15.9990           
   17918 A    4480 TIP4 H1   HW0      0.679100        1.0080           
   17919 A    4480 TIP4 H2   HW0      0.679100        1.0080           
   17920 A    4480 TIP4 BD1  LP0     -1.358200        0.0000           
   17921 A    4481 TIP4 O1   OW0      0.000000       15.9990           
   17922 A    4481 TIP4 H1   HW0      0.679100        1.0080           
   17923 A    4481 TIP4 H2   HW0      0.679100        1.0080           
   17924 A    4481 TIP4 BD1  LP0     -1.358200        0.0000           
   17925 A    4482 TIP4 O1   OW0      0.000000       15.9990           
   17926 A    4482 TIP4 H1   HW0      0.679100        1.0080           
   17927 A    4482 TIP4 H2   HW0      0.679100        1.0080           
   17928 A    4482 TIP4 BD1  LP0     -1.358200        0.0000           
   17929 A    4483 TIP4 O1   OW0      0.000000       15.9990           
   17930 A    4483 TIP4 H1   HW0      0.679100        1.0080           
   17931 A    4483 TIP4 H2   HW0      0.679100        1.0080           
   17932 A    4483 TIP4 BD1  LP0     -1.358200        0.0000           
   17933 A    4484 TIP4 O1   OW0      0.000000       15.9990           
   17934 A    4484 TIP4 H1   HW0      0.679100        1.0080           
   17935 A    4484 TIP4 H2   HW0      0.679100        1.0080           
   17936 A    4484 TIP4 BD1  LP0     -1.358200        0.0000           
   17937 A    4485 TIP4 O1   OW0      0.000000       15.9990           
   17938 A    4485 TIP4 H1   HW0      0.679100        1.0080           
   17939 A    4485 TIP4 H2   HW0      0.679100        1.0080           
   17940 A    4485 TIP4 BD1  LP0     -1.358200        0.0000           
   17941 A    4486 TIP4 O1   OW0      0.000000       15.9990           
   17942 A    4486 TIP4 H1   HW0      0.679100        1.0080           
   17943 A    4486 TIP4 H2   HW0      0.679100        1.0080           
   17944 A    4486 TIP4 BD1  LP0     -1.358200        0.0000           
   17945 A    4487 TIP4 O1   OW0      0.000000       15.9990           
   17946 A    4487 TIP4 H1   HW0      0.679100        1.0080           
   17947 A    4487 TIP4 H2   HW0      0.679100        1.0080           
   17948 A    4487 TIP4 BD1  LP0     -1.358200        0.0000           
   17949 A    4488 TIP4 O1   OW0      0.000000       15.9990           
   17950 A    4488 TIP4 H1   HW0      0.679100        1.0080           
   17951 A    4488 TIP4 H2   HW0      0.679100        1.0080           
   17952 A    4488 TIP4 BD1  LP0     -1.358200        0.0000           
   17953 A    4489 TIP4 O1   OW0      0.000000       15.9990           
   17954 A    4489 TIP4 H1   HW0      0.679100        1.0080           
   17955 A    4489 TIP4 H2   HW0      0.679100        1.0080           
   17956 A    4489 TIP4 BD1  LP0     -1.358200        0.0000           
   17957 A    4490 TIP4 O1   OW0      0.000000       15.9990           
   17958 A    4490 TIP4 H1   HW0      0.679100        1.0080           
   17959 A    4490 TIP4 H2   HW0      0.679100        1.0080           
   17960 A    4490 TIP4 BD1  LP0     -1.358200        0.0000           
   17961 A    4491 TIP4 O1   OW0      0.000000       15.9990           
   17962 A    4491 TIP4 H1   HW0      0.679100        1.0080           
   17963 A    4491 TIP4 H2   HW0      0.679100        1.0080           
   17964 A    4491 TIP4 BD1  LP0     -1.358200        0.0000           
   17965 A    4492 TIP4 O1   OW0      0.000000       15.9990           
   17966 A    4492 TIP4 H1   HW0      0.679100        1.0080           
   17967 A    4492 TIP4 H2   HW0      0.679100        1.0080           
   17968 A    4492 TIP4 BD1  LP0     -1.358200        0.0000           
   17969 A    4493 TIP4 O1   OW0      0.000000       15.9990           
   17970 A    4493 TIP4 H1   HW0      0.679100        1.0080           
   17971 A    4493 TIP4 H2   HW0      0.679100        1.0080           
   17972 A    4493 TIP4 BD1  LP0     -1.358200        0.0000           
   17973 A    4494 TIP4 O1   OW0      0.000000       15.9990           
   17974 A    4494 TIP4 H1   HW0      0.679100        1.0080           
   17975 A    4494 TIP4 H2   HW0      0.679100        1.0080           
   17976 A    4494 TIP4 BD1  LP0     -1.358200        0.0000           
   17977 A    4495 TIP4 O1   OW0      0.000000       15.9990           
   17978 A    4495 TIP4 H1   HW0      0.679100        1.0080           
   17979 A    4495 TIP4 H2   HW0      0.679100        1.0080           
   17980 A    4495 TIP4 BD1  LP0     -1.358200        0.0000           
   17981 A    4496 TIP4 O1   OW0      0.000000       15.9990           
   17982 A    4496 TIP4 H1   HW0      0.679100        1.0080           
   17983 A    4496 TIP4 H2   HW0      0.679100        1.0080           
   17984 A    4496 TIP4 BD1  LP0     -1.358200        0.0000           
   17985 A    4497 TIP4 O1   OW0      0.000000       15.9990           
   17986 A    4497 TIP4 H1   HW0      0.679100        1.0080           
   17987 A    4497 TIP4 H2   HW0      0.679100        1.0080           
   17988 A    4497 TIP4 BD1  LP0     -1.358200        0.0000           
   17989 A    4498 TIP4 O1   OW0      0.000000       15.9990           
   17990 A    4498 TIP4 H1   HW0      0.679100        1.0080           
   17991 A    4498 TIP4 H2   HW0      0.679100        1.0080           
   17992 A    4498 TIP4 BD1  LP0     -1.358200        0.0000           
   17993 A    4499 TIP4 O1   OW0      0.000000       15.9990           
   17994 A    4499 TIP4 H1   HW0      0.679100        1.0080           
   17995 A    4499 TIP4 H2   HW0      0.679100        1.0080           
   17996 A    4499 TIP4 BD1  LP0     -1.358200        0.0000           
   17997 A    4500 TIP4 O1   OW0      0.000000       15.9990           
   17998 A    4500 TIP4 H1   HW0      0.679100        1.0080           
   17999 A    4500 TIP4 H2   HW0      0.679100        1.0080           
   18000 A    4500 TIP4 BD1  LP0     -1.358200        0.0000           
   18001 A    4501 TIP4 O1   OW0      0.000000       15.9990           
   18002 A    4501 TIP4 H1   HW0      0.679100        1.0080           
   18003 A    4501 TIP4 H2   HW0      0.679100        1.0080           
   18004 A    4501 TIP4 BD1  LP0     -1.358200        0.0000           
   18005 A    4502 TIP4 O1   OW0      0.000000       15.9990           
   18006 A    4502 TIP4 H1   HW0      0.679100        1.0080           
   18007 A    4502 TIP4 H2   HW0      0.679100        1.0080           
   18008 A    4502 TIP4 BD1  LP0     -1.358200        0.0000           
   18009 A    4503 TIP4 O1   OW0      0.000000       15.9990           
   18010 A    4503 TIP4 H1   HW0      0.679100        1.0080           
   18011 A    4503 TIP4 H2   HW0      0.679100        1.0080           
   18012 A    4503 TIP4 BD1  LP0     -1.358200        0.0000           
   18013 A    4504 TIP4 O1   OW0      0.000000       15.9990           
   18014 A    4504 TIP4 H1   HW0      0.679100        1.0080           
   18015 A    4504 TIP4 H2   HW0      0.679100        1.0080           
   18016 A    4504 TIP4 BD1  LP0     -1.358200        0.0000           
   18017 A    4505 TIP4 O1   OW0      0.000000       15.9990           
   18018 A    4505 TIP4 H1   HW0      0.679100        1.0080           
   18019 A    4505 TIP4 H2   HW0      0.679100        1.0080           
   18020 A    4505 TIP4 BD1  LP0     -1.358200        0.0000           
   18021 A    4506 TIP4 O1   OW0      0.000000       15.9990           
   18022 A    4506 TIP4 H1   HW0      0.679100        1.0080           
   18023 A    4506 TIP4 H2   HW0      0.679100        1.0080           
   18024 A    4506 TIP4 BD1  LP0     -1.358200        0.0000           
   18025 A    4507 TIP4 O1   OW0      0.000000       15.9990           
   18026 A    4507 TIP4 H1   HW0      0.679100        1.0080           
   18027 A    4507 TIP4 H2   HW0      0.679100        1.0080           
   18028 A    4507 TIP4 BD1  LP0     -1.358200        0.0000           
   18029 A    4508 TIP4 O1   OW0      0.000000       15.9990           
   18030 A    4508 TIP4 H1   HW0      0.679100        1.0080           
   18031 A    4508 TIP4 H2   HW0      0.679100        1.0080           
   18032 A    4508 TIP4 BD1  LP0     -1.358200        0.0000           
   18033 A    4509 TIP4 O1   OW0      0.000000       15.9990           
   18034 A    4509 TIP4 H1   HW0      0.679100        1.0080           
   18035 A    4509 TIP4 H2   HW0      0.679100        1.0080           
   18036 A    4509 TIP4 BD1  LP0     -1.358200        0.0000           
   18037 A    4510 TIP4 O1   OW0      0.000000       15.9990           
   18038 A    4510 TIP4 H1   HW0      0.679100        1.0080           
   18039 A    4510 TIP4 H2   HW0      0.679100        1.0080           
   18040 A    4510 TIP4 BD1  LP0     -1.358200        0.0000           
   18041 A    4511 TIP4 O1   OW0      0.000000       15.9990           
   18042 A    4511 TIP4 H1   HW0      0.679100        1.0080           
   18043 A    4511 TIP4 H2   HW0      0.679100        1.0080           
   18044 A    4511 TIP4 BD1  LP0     -1.358200        0.0000           
   18045 A    4512 TIP4 O1   OW0      0.000000       15.9990           
   18046 A    4512 TIP4 H1   HW0      0.679100        1.0080           
   18047 A    4512 TIP4 H2   HW0      0.679100        1.0080           
   18048 A    4512 TIP4 BD1  LP0     -1.358200        0.0000           
   18049 A    4513 TIP4 O1   OW0      0.000000       15.9990           
   18050 A    4513 TIP4 H1   HW0      0.679100        1.0080           
   18051 A    4513 TIP4 H2   HW0      0.679100        1.0080           
   18052 A    4513 TIP4 BD1  LP0     -1.358200        0.0000           
   18053 A    4514 TIP4 O1   OW0      0.000000       15.9990           
   18054 A    4514 TIP4 H1   HW0      0.679100        1.0080           
   18055 A    4514 TIP4 H2   HW0      0.679100        1.0080           
   18056 A    4514 TIP4 BD1  LP0     -1.358200        0.0000           
   18057 A    4515 TIP4 O1   OW0      0.000000       15.9990           
   18058 A    4515 TIP4 H1   HW0      0.679100        1.0080           
   18059 A    4515 TIP4 H2   HW0      0.679100        1.0080           
   18060 A    4515 TIP4 BD1  LP0     -1.358200        0.0000           
   18061 A    4516 TIP4 O1   OW0      0.000000       15.9990           
   18062 A    4516 TIP4 H1   HW0      0.679100        1.0080           
   18063 A    4516 TIP4 H2   HW0      0.679100        1.0080           
   18064 A    4516 TIP4 BD1  LP0     -1.358200        0.0000           
   18065 A    4517 TIP4 O1   OW0      0.000000       15.9990           
   18066 A    4517 TIP4 H1   HW0      0.679100        1.0080           
   18067 A    4517 TIP4 H2   HW0      0.679100        1.0080           
   18068 A    4517 TIP4 BD1  LP0     -1.358200        0.0000           
   18069 A    4518 TIP4 O1   OW0      0.000000       15.9990           
   18070 A    4518 TIP4 H1   HW0      0.679100        1.0080           
   18071 A    4518 TIP4 H2   HW0      0.679100        1.0080           
   18072 A    4518 TIP4 BD1  LP0     -1.358200        0.0000           
   18073 A    4519 TIP4 O1   OW0      0.000000       15.9990           
   18074 A    4519 TIP4 H1   HW0      0.679100        1.0080           
   18075 A    4519 TIP4 H2   HW0      0.679100        1.0080           
   18076 A    4519 TIP4 BD1  LP0     -1.358200        0.0000           
   18077 A    4520 TIP4 O1   OW0      0.000000       15.9990           
   18078 A    4520 TIP4 H1   HW0      0.679100        1.0080           
   18079 A    4520 TIP4 H2   HW0      0.679100        1.0080           
   18080 A    4520 TIP4 BD1  LP0     -1.358200        0.0000           
   18081 A    4521 TIP4 O1   OW0      0.000000       15.9990           
   18082 A    4521 TIP4 H1   HW0      0.679100        1.0080           
   18083 A    4521 TIP4 H2   HW0      0.679100        1.0080           
   18084 A    4521 TIP4 BD1  LP0     -1.358200        0.0000           
   18085 A    4522 TIP4 O1   OW0      0.000000       15.9990           
   18086 A    4522 TIP4 H1   HW0      0.679100        1.0080           
   18087 A    4522 TIP4 H2   HW0      0.679100        1.0080           
   18088 A    4522 TIP4 BD1  LP0     -1.358200        0.0000           
   18089 A    4523 TIP4 O1   OW0      0.000000       15.9990           
   18090 A    4523 TIP4 H1   HW0      0.679100        1.0080           
   18091 A    4523 TIP4 H2   HW0      0.679100        1.0080           
   18092 A    4523 TIP4 BD1  LP0     -1.358200        0.0000           
   18093 A    4524 TIP4 O1   OW0      0.000000       15.9990           
   18094 A    4524 TIP4 H1   HW0      0.679100        1.0080           
   18095 A    4524 TIP4 H2   HW0      0.679100        1.0080           
   18096 A    4524 TIP4 BD1  LP0     -1.358200        0.0000           
   18097 A    4525 TIP4 O1   OW0      0.000000       15.9990           
   18098 A    4525 TIP4 H1   HW0      0.679100        1.0080           
   18099 A    4525 TIP4 H2   HW0      0.679100        1.0080           
   18100 A    4525 TIP4 BD1  LP0     -1.358200        0.0000           
   18101 A    4526 TIP4 O1   OW0      0.000000       15.9990           
   18102 A    4526 TIP4 H1   HW0      0.679100        1.0080           
   18103 A    4526 TIP4 H2   HW0      0.679100        1.0080           
   18104 A    4526 TIP4 BD1  LP0     -1.358200        0.0000           
   18105 A    4527 TIP4 O1   OW0      0.000000       15.9990           
   18106 A    4527 TIP4 H1   HW0      0.679100        1.0080           
   18107 A    4527 TIP4 H2   HW0      0.679100        1.0080           
   18108 A    4527 TIP4 BD1  LP0     -1.358200        0.0000           
   18109 A    4528 TIP4 O1   OW0      0.000000       15.9990           
   18110 A    4528 TIP4 H1   HW0      0.679100        1.0080           
   18111 A    4528 TIP4 H2   HW0      0.679100        1.0080           
   18112 A    4528 TIP4 BD1  LP0     -1.358200        0.0000           
   18113 A    4529 TIP4 O1   OW0      0.000000       15.9990           
   18114 A    4529 TIP4 H1   HW0      0.679100        1.0080           
   18115 A    4529 TIP4 H2   HW0      0.679100        1.0080           
   18116 A    4529 TIP4 BD1  LP0     -1.358200        0.0000           
   18117 A    4530 TIP4 O1   OW0      0.000000       15.9990           
   18118 A    4530 TIP4 H1   HW0      0.679100        1.0080           
   18119 A    4530 TIP4 H2   HW0      0.679100        1.0080           
   18120 A    4530 TIP4 BD1  LP0     -1.358200        0.0000           
   18121 A    4531 TIP4 O1   OW0      0.000000       15.9990           
   18122 A    4531 TIP4 H1   HW0      0.679100        1.0080           
   18123 A    4531 TIP4 H2   HW0      0.679100        1.0080           
   18124 A    4531 TIP4 BD1  LP0     -1.358200        0.0000           
   18125 A    4532 TIP4 O1   OW0      0.000000       15.9990           
   18126 A    4532 TIP4 H1   HW0      0.679100        1.0080           
   18127 A    4532 TIP4 H2   HW0      0.679100        1.0080           
   18128 A    4532 TIP4 BD1  LP0     -1.358200        0.0000           
   18129 A    4533 TIP4 O1   OW0      0.000000       15.9990           
   18130 A    4533 TIP4 H1   HW0      0.679100        1.0080           
   18131 A    4533 TIP4 H2   HW0      0.679100        1.0080           
   18132 A    4533 TIP4 BD1  LP0     -1.358200        0.0000           
   18133 A    4534 TIP4 O1   OW0      0.000000       15.9990           
   18134 A    4534 TIP4 H1   HW0      0.679100        1.0080           
   18135 A    4534 TIP4 H2   HW0      0.679100        1.0080           
   18136 A    4534 TIP4 BD1  LP0     -1.358200        0.0000           
   18137 A    4535 TIP4 O1   OW0      0.000000       15.9990           
   18138 A    4535 TIP4 H1   HW0      0.679100        1.0080           
   18139 A    4535 TIP4 H2   HW0      0.679100        1.0080           
   18140 A    4535 TIP4 BD1  LP0     -1.358200        0.0000           
   18141 A    4536 TIP4 O1   OW0      0.000000       15.9990           
   18142 A    4536 TIP4 H1   HW0      0.679100        1.0080           
   18143 A    4536 TIP4 H2   HW0      0.679100        1.0080           
   18144 A    4536 TIP4 BD1  LP0     -1.358200        0.0000           
   18145 A    4537 TIP4 O1   OW0      0.000000       15.9990           
   18146 A    4537 TIP4 H1   HW0      0.679100        1.0080           
   18147 A    4537 TIP4 H2   HW0      0.679100        1.0080           
   18148 A    4537 TIP4 BD1  LP0     -1.358200        0.0000           
   18149 A    4538 TIP4 O1   OW0      0.000000       15.9990           
   18150 A    4538 TIP4 H1   HW0      0.679100        1.0080           
   18151 A    4538 TIP4 H2   HW0      0.679100        1.0080           
   18152 A    4538 TIP4 BD1  LP0     -1.358200        0.0000           
   18153 A    4539 TIP4 O1   OW0      0.000000       15.9990           
   18154 A    4539 TIP4 H1   HW0      0.679100        1.0080           
   18155 A    4539 TIP4 H2   HW0      0.679100        1.0080           
   18156 A    4539 TIP4 BD1  LP0     -1.358200        0.0000           
   18157 A    4540 TIP4 O1   OW0      0.000000       15.9990           
   18158 A    4540 TIP4 H1   HW0      0.679100        1.0080           
   18159 A    4540 TIP4 H2   HW0      0.679100        1.0080           
   18160 A    4540 TIP4 BD1  LP0     -1.358200        0.0000           
   18161 A    4541 TIP4 O1   OW0      0.000000       15.9990           
   18162 A    4541 TIP4 H1   HW0      0.679100        1.0080           
   18163 A    4541 TIP4 H2   HW0      0.679100        1.0080           
   18164 A    4541 TIP4 BD1  LP0     -1.358200        0.0000           
   18165 A    4542 TIP4 O1   OW0      0.000000       15.9990           
   18166 A    4542 TIP4 H1   HW0      0.679100        1.0080           
   18167 A    4542 TIP4 H2   HW0      0.679100        1.0080           
   18168 A    4542 TIP4 BD1  LP0     -1.358200        0.0000           
   18169 A    4543 TIP4 O1   OW0      0.000000       15.9990           
   18170 A    4543 TIP4 H1   HW0      0.679100        1.0080           
   18171 A    4543 TIP4 H2   HW0      0.679100        1.0080           
   18172 A    4543 TIP4 BD1  LP0     -1.358200        0.0000           
   18173 A    4544 TIP4 O1   OW0      0.000000       15.9990           
   18174 A    4544 TIP4 H1   HW0      0.679100        1.0080           
   18175 A    4544 TIP4 H2   HW0      0.679100        1.0080           
   18176 A    4544 TIP4 BD1  LP0     -1.358200        0.0000           
   18177 A    4545 TIP4 O1   OW0      0.000000       15.9990           
   18178 A    4545 TIP4 H1   HW0      0.679100        1.0080           
   18179 A    4545 TIP4 H2   HW0      0.679100        1.0080           
   18180 A    4545 TIP4 BD1  LP0     -1.358200        0.0000           
   18181 A    4546 TIP4 O1   OW0      0.000000       15.9990           
   18182 A    4546 TIP4 H1   HW0      0.679100        1.0080           
   18183 A    4546 TIP4 H2   HW0      0.679100        1.0080           
   18184 A    4546 TIP4 BD1  LP0     -1.358200        0.0000           
   18185 A    4547 TIP4 O1   OW0      0.000000       15.9990           
   18186 A    4547 TIP4 H1   HW0      0.679100        1.0080           
   18187 A    4547 TIP4 H2   HW0      0.679100        1.0080           
   18188 A    4547 TIP4 BD1  LP0     -1.358200        0.0000           
   18189 A    4548 TIP4 O1   OW0      0.000000       15.9990           
   18190 A    4548 TIP4 H1   HW0      0.679100        1.0080           
   18191 A    4548 TIP4 H2   HW0      0.679100        1.0080           
   18192 A    4548 TIP4 BD1  LP0     -1.358200        0.0000           
   18193 A    4549 TIP4 O1   OW0      0.000000       15.9990           
   18194 A    4549 TIP4 H1   HW0      0.679100        1.0080           
   18195 A    4549 TIP4 H2   HW0      0.679100        1.0080           
   18196 A    4549 TIP4 BD1  LP0     -1.358200        0.0000           
   18197 A    4550 TIP4 O1   OW0      0.000000       15.9990           
   18198 A    4550 TIP4 H1   HW0      0.679100        1.0080           
   18199 A    4550 TIP4 H2   HW0      0.679100        1.0080           
   18200 A    4550 TIP4 BD1  LP0     -1.358200        0.0000           
   18201 A    4551 TIP4 O1   OW0      0.000000       15.9990           
   18202 A    4551 TIP4 H1   HW0      0.679100        1.0080           
   18203 A    4551 TIP4 H2   HW0      0.679100        1.0080           
   18204 A    4551 TIP4 BD1  LP0     -1.358200        0.0000           
   18205 A    4552 TIP4 O1   OW0      0.000000       15.9990           
   18206 A    4552 TIP4 H1   HW0      0.679100        1.0080           
   18207 A    4552 TIP4 H2   HW0      0.679100        1.0080           
   18208 A    4552 TIP4 BD1  LP0     -1.358200        0.0000           
   18209 A    4553 TIP4 O1   OW0      0.000000       15.9990           
   18210 A    4553 TIP4 H1   HW0      0.679100        1.0080           
   18211 A    4553 TIP4 H2   HW0      0.679100        1.0080           
   18212 A    4553 TIP4 BD1  LP0     -1.358200        0.0000           
   18213 A    4554 TIP4 O1   OW0      0.000000       15.9990           
   18214 A    4554 TIP4 H1   HW0      0.679100        1.0080           
   18215 A    4554 TIP4 H2   HW0      0.679100        1.0080           
   18216 A    4554 TIP4 BD1  LP0     -1.358200        0.0000           
   18217 A    4555 TIP4 O1   OW0      0.000000       15.9990           
   18218 A    4555 TIP4 H1   HW0      0.679100        1.0080           
   18219 A    4555 TIP4 H2   HW0      0.679100        1.0080           
   18220 A    4555 TIP4 BD1  LP0     -1.358200        0.0000           
   18221 A    4556 TIP4 O1   OW0      0.000000       15.9990           
   18222 A    4556 TIP4 H1   HW0      0.679100        1.0080           
   18223 A    4556 TIP4 H2   HW0      0.679100        1.0080           
   18224 A    4556 TIP4 BD1  LP0     -1.358200        0.0000           
   18225 A    4557 TIP4 O1   OW0      0.000000       15.9990           
   18226 A    4557 TIP4 H1   HW0      0.679100        1.0080           
   18227 A    4557 TIP4 H2   HW0      0.679100        1.0080           
   18228 A    4557 TIP4 BD1  LP0     -1.358200        0.0000           
   18229 A    4558 TIP4 O1   OW0      0.000000       15.9990           
   18230 A    4558 TIP4 H1   HW0      0.679100        1.0080           
   18231 A    4558 TIP4 H2   HW0      0.679100        1.0080           
   18232 A    4558 TIP4 BD1  LP0     -1.358200        0.0000           
   18233 A    4559 TIP4 O1   OW0      0.000000       15.9990           
   18234 A    4559 TIP4 H1   HW0      0.679100        1.0080           
   18235 A    4559 TIP4 H2   HW0      0.679100        1.0080           
   18236 A    4559 TIP4 BD1  LP0     -1.358200        0.0000           
   18237 A    4560 TIP4 O1   OW0      0.000000       15.9990           
   18238 A    4560 TIP4 H1   HW0      0.679100        1.0080           
   18239 A    4560 TIP4 H2   HW0      0.679100        1.0080           
   18240 A    4560 TIP4 BD1  LP0     -1.358200        0.0000           
   18241 A    4561 TIP4 O1   OW0      0.000000       15.9990           
   18242 A    4561 TIP4 H1   HW0      0.679100        1.0080           
   18243 A    4561 TIP4 H2   HW0      0.679100        1.0080           
   18244 A    4561 TIP4 BD1  LP0     -1.358200        0.0000           
   18245 A    4562 TIP4 O1   OW0      0.000000       15.9990           
   18246 A    4562 TIP4 H1   HW0      0.679100        1.0080           
   18247 A    4562 TIP4 H2   HW0      0.679100        1.0080           
   18248 A    4562 TIP4 BD1  LP0     -1.358200        0.0000           
   18249 A    4563 TIP4 O1   OW0      0.000000       15.9990           
   18250 A    4563 TIP4 H1   HW0      0.679100        1.0080           
   18251 A    4563 TIP4 H2   HW0      0.679100        1.0080           
   18252 A    4563 TIP4 BD1  LP0     -1.358200        0.0000           
   18253 A    4564 TIP4 O1   OW0      0.000000       15.9990           
   18254 A    4564 TIP4 H1   HW0      0.679100        1.0080           
   18255 A    4564 TIP4 H2   HW0      0.679100        1.0080           
   18256 A    4564 TIP4 BD1  LP0     -1.358200        0.0000           
   18257 A    4565 TIP4 O1   OW0      0.000000       15.9990           
   18258 A    4565 TIP4 H1   HW0      0.679100        1.0080           
   18259 A    4565 TIP4 H2   HW0      0.679100        1.0080           
   18260 A    4565 TIP4 BD1  LP0     -1.358200        0.0000           
   18261 A    4566 TIP4 O1   OW0      0.000000       15.9990           
   18262 A    4566 TIP4 H1   HW0      0.679100        1.0080           
   18263 A    4566 TIP4 H2   HW0      0.679100        1.0080           
   18264 A    4566 TIP4 BD1  LP0     -1.358200        0.0000           
   18265 A    4567 TIP4 O1   OW0      0.000000       15.9990           
   18266 A    4567 TIP4 H1   HW0      0.679100        1.0080           
   18267 A    4567 TIP4 H2   HW0      0.679100        1.0080           
   18268 A    4567 TIP4 BD1  LP0     -1.358200        0.0000           
   18269 A    4568 TIP4 O1   OW0      0.000000       15.9990           
   18270 A    4568 TIP4 H1   HW0      0.679100        1.0080           
   18271 A    4568 TIP4 H2   HW0      0.679100        1.0080           
   18272 A    4568 TIP4 BD1  LP0     -1.358200        0.0000           
   18273 A    4569 TIP4 O1   OW0      0.000000       15.9990           
   18274 A    4569 TIP4 H1   HW0      0.679100        1.0080           
   18275 A    4569 TIP4 H2   HW0      0.679100        1.0080           
   18276 A    4569 TIP4 BD1  LP0     -1.358200        0.0000           
   18277 A    4570 TIP4 O1   OW0      0.000000       15.9990           
   18278 A    4570 TIP4 H1   HW0      0.679100        1.0080           
   18279 A    4570 TIP4 H2   HW0      0.679100        1.0080           
   18280 A    4570 TIP4 BD1  LP0     -1.358200        0.0000           
   18281 A    4571 TIP4 O1   OW0      0.000000       15.9990           
   18282 A    4571 TIP4 H1   HW0      0.679100        1.0080           
   18283 A    4571 TIP4 H2   HW0      0.679100        1.0080           
   18284 A    4571 TIP4 BD1  LP0     -1.358200        0.0000           
   18285 A    4572 TIP4 O1   OW0      0.000000       15.9990           
   18286 A    4572 TIP4 H1   HW0      0.679100        1.0080           
   18287 A    4572 TIP4 H2   HW0      0.679100        1.0080           
   18288 A    4572 TIP4 BD1  LP0     -1.358200        0.0000           
   18289 A    4573 TIP4 O1   OW0      0.000000       15.9990           
   18290 A    4573 TIP4 H1   HW0      0.679100        1.0080           
   18291 A    4573 TIP4 H2   HW0      0.679100        1.0080           
   18292 A    4573 TIP4 BD1  LP0     -1.358200        0.0000           
   18293 A    4574 TIP4 O1   OW0      0.000000       15.9990           
   18294 A    4574 TIP4 H1   HW0      0.679100        1.0080           
   18295 A    4574 TIP4 H2   HW0      0.679100        1.0080           
   18296 A    4574 TIP4 BD1  LP0     -1.358200        0.0000           
   18297 A    4575 TIP4 O1   OW0      0.000000       15.9990           
   18298 A    4575 TIP4 H1   HW0      0.679100        1.0080           
   18299 A    4575 TIP4 H2   HW0      0.679100        1.0080           
   18300 A    4575 TIP4 BD1  LP0     -1.358200        0.0000           
   18301 A    4576 TIP4 O1   OW0      0.000000       15.9990           
   18302 A    4576 TIP4 H1   HW0      0.679100        1.0080           
   18303 A    4576 TIP4 H2   HW0      0.679100        1.0080           
   18304 A    4576 TIP4 BD1  LP0     -1.358200        0.0000           
   18305 A    4577 TIP4 O1   OW0      0.000000       15.9990           
   18306 A    4577 TIP4 H1   HW0      0.679100        1.0080           
   18307 A    4577 TIP4 H2   HW0      0.679100        1.0080           
   18308 A    4577 TIP4 BD1  LP0     -1.358200        0.0000           
   18309 A    4578 TIP4 O1   OW0      0.000000       15.9990           
   18310 A    4578 TIP4 H1   HW0      0.679100        1.0080           
   18311 A    4578 TIP4 H2   HW0      0.679100        1.0080           
   18312 A    4578 TIP4 BD1  LP0     -1.358200        0.0000           
   18313 A    4579 TIP4 O1   OW0      0.000000       15.9990           
   18314 A    4579 TIP4 H1   HW0      0.679100        1.0080           
   18315 A    4579 TIP4 H2   HW0      0.679100        1.0080           
   18316 A    4579 TIP4 BD1  LP0     -1.358200        0.0000           
   18317 A    4580 TIP4 O1   OW0      0.000000       15.9990           
   18318 A    4580 TIP4 H1   HW0      0.679100        1.0080           
   18319 A    4580 TIP4 H2   HW0      0.679100        1.0080           
   18320 A    4580 TIP4 BD1  LP0     -1.358200        0.0000           
   18321 A    4581 TIP4 O1   OW0      0.000000       15.9990           
   18322 A    4581 TIP4 H1   HW0      0.679100        1.0080           
   18323 A    4581 TIP4 H2   HW0      0.679100        1.0080           
   18324 A    4581 TIP4 BD1  LP0     -1.358200        0.0000           
   18325 A    4582 TIP4 O1   OW0      0.000000       15.9990           
   18326 A    4582 TIP4 H1   HW0      0.679100        1.0080           
   18327 A    4582 TIP4 H2   HW0      0.679100        1.0080           
   18328 A    4582 TIP4 BD1  LP0     -1.358200        0.0000           
   18329 A    4583 TIP4 O1   OW0      0.000000       15.9990           
   18330 A    4583 TIP4 H1   HW0      0.679100        1.0080           
   18331 A    4583 TIP4 H2   HW0      0.679100        1.0080           
   18332 A    4583 TIP4 BD1  LP0     -1.358200        0.0000           
   18333 A    4584 TIP4 O1   OW0      0.000000       15.9990           
   18334 A    4584 TIP4 H1   HW0      0.679100        1.0080           
   18335 A    4584 TIP4 H2   HW0      0.679100        1.0080           
   18336 A    4584 TIP4 BD1  LP0     -1.358200        0.0000           
   18337 A    4585 TIP4 O1   OW0      0.000000       15.9990           
   18338 A    4585 TIP4 H1   HW0      0.679100        1.0080           
   18339 A    4585 TIP4 H2   HW0      0.679100        1.0080           
   18340 A    4585 TIP4 BD1  LP0     -1.358200        0.0000           
   18341 A    4586 TIP4 O1   OW0      0.000000       15.9990           
   18342 A    4586 TIP4 H1   HW0      0.679100        1.0080           
   18343 A    4586 TIP4 H2   HW0      0.679100        1.0080           
   18344 A    4586 TIP4 BD1  LP0     -1.358200        0.0000           
   18345 A    4587 TIP4 O1   OW0      0.000000       15.9990           
   18346 A    4587 TIP4 H1   HW0      0.679100        1.0080           
   18347 A    4587 TIP4 H2   HW0      0.679100        1.0080           
   18348 A    4587 TIP4 BD1  LP0     -1.358200        0.0000           
   18349 A    4588 TIP4 O1   OW0      0.000000       15.9990           
   18350 A    4588 TIP4 H1   HW0      0.679100        1.0080           
   18351 A    4588 TIP4 H2   HW0      0.679100        1.0080           
   18352 A    4588 TIP4 BD1  LP0     -1.358200        0.0000           
   18353 A    4589 TIP4 O1   OW0      0.000000       15.9990           
   18354 A    4589 TIP4 H1   HW0      0.679100        1.0080           
   18355 A    4589 TIP4 H2   HW0      0.679100        1.0080           
   18356 A    4589 TIP4 BD1  LP0     -1.358200        0.0000           
   18357 A    4590 TIP4 O1   OW0      0.000000       15.9990           
   18358 A    4590 TIP4 H1   HW0      0.679100        1.0080           
   18359 A    4590 TIP4 H2   HW0      0.679100        1.0080           
   18360 A    4590 TIP4 BD1  LP0     -1.358200        0.0000           
   18361 A    4591 TIP4 O1   OW0      0.000000       15.9990           
   18362 A    4591 TIP4 H1   HW0      0.679100        1.0080           
   18363 A    4591 TIP4 H2   HW0      0.679100        1.0080           
   18364 A    4591 TIP4 BD1  LP0     -1.358200        0.0000           
   18365 A    4592 TIP4 O1   OW0      0.000000       15.9990           
   18366 A    4592 TIP4 H1   HW0      0.679100        1.0080           
   18367 A    4592 TIP4 H2   HW0      0.679100        1.0080           
   18368 A    4592 TIP4 BD1  LP0     -1.358200        0.0000           
   18369 A    4593 TIP4 O1   OW0      0.000000       15.9990           
   18370 A    4593 TIP4 H1   HW0      0.679100        1.0080           
   18371 A    4593 TIP4 H2   HW0      0.679100        1.0080           
   18372 A    4593 TIP4 BD1  LP0     -1.358200        0.0000           
   18373 A    4594 TIP4 O1   OW0      0.000000       15.9990           
   18374 A    4594 TIP4 H1   HW0      0.679100        1.0080           
   18375 A    4594 TIP4 H2   HW0      0.679100        1.0080           
   18376 A    4594 TIP4 BD1  LP0     -1.358200        0.0000           
   18377 A    4595 TIP4 O1   OW0      0.000000       15.9990           
   18378 A    4595 TIP4 H1   HW0      0.679100        1.0080           
   18379 A    4595 TIP4 H2   HW0      0.679100        1.0080           
   18380 A    4595 TIP4 BD1  LP0     -1.358200        0.0000           
   18381 A    4596 TIP4 O1   OW0      0.000000       15.9990           
   18382 A    4596 TIP4 H1   HW0      0.679100        1.0080           
   18383 A    4596 TIP4 H2   HW0      0.679100        1.0080           
   18384 A    4596 TIP4 BD1  LP0     -1.358200        0.0000           
   18385 A    4597 TIP4 O1   OW0      0.000000       15.9990           
   18386 A    4597 TIP4 H1   HW0      0.679100        1.0080           
   18387 A    4597 TIP4 H2   HW0      0.679100        1.0080           
   18388 A    4597 TIP4 BD1  LP0     -1.358200        0.0000           
   18389 A    4598 TIP4 O1   OW0      0.000000       15.9990           
   18390 A    4598 TIP4 H1   HW0      0.679100        1.0080           
   18391 A    4598 TIP4 H2   HW0      0.679100        1.0080           
   18392 A    4598 TIP4 BD1  LP0     -1.358200        0.0000           
   18393 A    4599 TIP4 O1   OW0      0.000000       15.9990           
   18394 A    4599 TIP4 H1   HW0      0.679100        1.0080           
   18395 A    4599 TIP4 H2   HW0      0.679100        1.0080           
   18396 A    4599 TIP4 BD1  LP0     -1.358200        0.0000           
   18397 A    4600 TIP4 O1   OW0      0.000000       15.9990           
   18398 A    4600 TIP4 H1   HW0      0.679100        1.0080           
   18399 A    4600 TIP4 H2   HW0      0.679100        1.0080           
   18400 A    4600 TIP4 BD1  LP0     -1.358200        0.0000           
   18401 A    4601 TIP4 O1   OW0      0.000000       15.9990           
   18402 A    4601 TIP4 H1   HW0      0.679100        1.0080           
   18403 A    4601 TIP4 H2   HW0      0.679100        1.0080           
   18404 A    4601 TIP4 BD1  LP0     -1.358200        0.0000           
   18405 A    4602 TIP4 O1   OW0      0.000000       15.9990           
   18406 A    4602 TIP4 H1   HW0      0.679100        1.0080           
   18407 A    4602 TIP4 H2   HW0      0.679100        1.0080           
   18408 A    4602 TIP4 BD1  LP0     -1.358200        0.0000           
   18409 A    4603 TIP4 O1   OW0      0.000000       15.9990           
   18410 A    4603 TIP4 H1   HW0      0.679100        1.0080           
   18411 A    4603 TIP4 H2   HW0      0.679100        1.0080           
   18412 A    4603 TIP4 BD1  LP0     -1.358200        0.0000           
   18413 A    4604 TIP4 O1   OW0      0.000000       15.9990           
   18414 A    4604 TIP4 H1   HW0      0.679100        1.0080           
   18415 A    4604 TIP4 H2   HW0      0.679100        1.0080           
   18416 A    4604 TIP4 BD1  LP0     -1.358200        0.0000           
   18417 A    4605 TIP4 O1   OW0      0.000000       15.9990           
   18418 A    4605 TIP4 H1   HW0      0.679100        1.0080           
   18419 A    4605 TIP4 H2   HW0      0.679100        1.0080           
   18420 A    4605 TIP4 BD1  LP0     -1.358200        0.0000           
   18421 A    4606 TIP4 O1   OW0      0.000000       15.9990           
   18422 A    4606 TIP4 H1   HW0      0.679100        1.0080           
   18423 A    4606 TIP4 H2   HW0      0.679100        1.0080           
   18424 A    4606 TIP4 BD1  LP0     -1.358200        0.0000           
   18425 A    4607 TIP4 O1   OW0      0.000000       15.9990           
   18426 A    4607 TIP4 H1   HW0      0.679100        1.0080           
   18427 A    4607 TIP4 H2   HW0      0.679100        1.0080           
   18428 A    4607 TIP4 BD1  LP0     -1.358200        0.0000           
   18429 A    4608 TIP4 O1   OW0      0.000000       15.9990           
   18430 A    4608 TIP4 H1   HW0      0.679100        1.0080           
   18431 A    4608 TIP4 H2   HW0      0.679100        1.0080           
   18432 A    4608 TIP4 BD1  LP0     -1.358200        0.0000           
   18433 A    4609 TIP4 O1   OW0      0.000000       15.9990           
   18434 A    4609 TIP4 H1   HW0      0.679100        1.0080           
   18435 A    4609 TIP4 H2   HW0      0.679100        1.0080           
   18436 A    4609 TIP4 BD1  LP0     -1.358200        0.0000           
   18437 A    4610 TIP4 O1   OW0      0.000000       15.9990           
   18438 A    4610 TIP4 H1   HW0      0.679100        1.0080           
   18439 A    4610 TIP4 H2   HW0      0.679100        1.0080           
   18440 A    4610 TIP4 BD1  LP0     -1.358200        0.0000           
   18441 A    4611 TIP4 O1   OW0      0.000000       15.9990           
   18442 A    4611 TIP4 H1   HW0      0.679100        1.0080           
   18443 A    4611 TIP4 H2   HW0      0.679100        1.0080           
   18444 A    4611 TIP4 BD1  LP0     -1.358200        0.0000           
   18445 A    4612 TIP4 O1   OW0      0.000000       15.9990           
   18446 A    4612 TIP4 H1   HW0      0.679100        1.0080           
   18447 A    4612 TIP4 H2   HW0      0.679100        1.0080           
   18448 A    4612 TIP4 BD1  LP0     -1.358200        0.0000           
   18449 A    4613 TIP4 O1   OW0      0.000000       15.9990           
   18450 A    4613 TIP4 H1   HW0      0.679100        1.0080           
   18451 A    4613 TIP4 H2   HW0      0.679100        1.0080           
   18452 A    4613 TIP4 BD1  LP0     -1.358200        0.0000           
   18453 A    4614 TIP4 O1   OW0      0.000000       15.9990           
   18454 A    4614 TIP4 H1   HW0      0.679100        1.0080           
   18455 A    4614 TIP4 H2   HW0      0.679100        1.0080           
   18456 A    4614 TIP4 BD1  LP0     -1.358200        0.0000           
   18457 A    4615 TIP4 O1   OW0      0.000000       15.9990           
   18458 A    4615 TIP4 H1   HW0      0.679100        1.0080           
   18459 A    4615 TIP4 H2   HW0      0.679100        1.0080           
   18460 A    4615 TIP4 BD1  LP0     -1.358200        0.0000           
   18461 A    4616 TIP4 O1   OW0      0.000000       15.9990           
   18462 A    4616 TIP4 H1   HW0      0.679100        1.0080           
   18463 A    4616 TIP4 H2   HW0      0.679100        1.0080           
   18464 A    4616 TIP4 BD1  LP0     -1.358200        0.0000           
   18465 A    4617 TIP4 O1   OW0      0.000000       15.9990           
   18466 A    4617 TIP4 H1   HW0      0.679100        1.0080           
   18467 A    4617 TIP4 H2   HW0      0.679100        1.0080           
   18468 A    4617 TIP4 BD1  LP0     -1.358200        0.0000           
   18469 A    4618 TIP4 O1   OW0      0.000000       15.9990           
   18470 A    4618 TIP4 H1   HW0      0.679100        1.0080           
   18471 A    4618 TIP4 H2   HW0      0.679100        1.0080           
   18472 A    4618 TIP4 BD1  LP0     -1.358200        0.0000           
   18473 A    4619 TIP4 O1   OW0      0.000000       15.9990           
   18474 A    4619 TIP4 H1   HW0      0.679100        1.0080           
   18475 A    4619 TIP4 H2   HW0      0.679100        1.0080           
   18476 A    4619 TIP4 BD1  LP0     -1.358200        0.0000           
   18477 A    4620 TIP4 O1   OW0      0.000000       15.9990           
   18478 A    4620 TIP4 H1   HW0      0.679100        1.0080           
   18479 A    4620 TIP4 H2   HW0      0.679100        1.0080           
   18480 A    4620 TIP4 BD1  LP0     -1.358200        0.0000           
   18481 A    4621 TIP4 O1   OW0      0.000000       15.9990           
   18482 A    4621 TIP4 H1   HW0      0.679100        1.0080           
   18483 A    4621 TIP4 H2   HW0      0.679100        1.0080           
   18484 A    4621 TIP4 BD1  LP0     -1.358200        0.0000           
   18485 A    4622 TIP4 O1   OW0      0.000000       15.9990           
   18486 A    4622 TIP4 H1   HW0      0.679100        1.0080           
   18487 A    4622 TIP4 H2   HW0      0.679100        1.0080           
   18488 A    4622 TIP4 BD1  LP0     -1.358200        0.0000           
   18489 A    4623 TIP4 O1   OW0      0.000000       15.9990           
   18490 A    4623 TIP4 H1   HW0      0.679100        1.0080           
   18491 A    4623 TIP4 H2   HW0      0.679100        1.0080           
   18492 A    4623 TIP4 BD1  LP0     -1.358200        0.0000           
   18493 A    4624 TIP4 O1   OW0      0.000000       15.9990           
   18494 A    4624 TIP4 H1   HW0      0.679100        1.0080           
   18495 A    4624 TIP4 H2   HW0      0.679100        1.0080           
   18496 A    4624 TIP4 BD1  LP0     -1.358200        0.0000           
   18497 A    4625 TIP4 O1   OW0      0.000000       15.9990           
   18498 A    4625 TIP4 H1   HW0      0.679100        1.0080           
   18499 A    4625 TIP4 H2   HW0      0.679100        1.0080           
   18500 A    4625 TIP4 BD1  LP0     -1.358200        0.0000           
   18501 A    4626 TIP4 O1   OW0      0.000000       15.9990           
   18502 A    4626 TIP4 H1   HW0      0.679100        1.0080           
   18503 A    4626 TIP4 H2   HW0      0.679100        1.0080           
   18504 A    4626 TIP4 BD1  LP0     -1.358200        0.0000           
   18505 A    4627 TIP4 O1   OW0      0.000000       15.9990           
   18506 A    4627 TIP4 H1   HW0      0.679100        1.0080           
   18507 A    4627 TIP4 H2   HW0      0.679100        1.0080           
   18508 A    4627 TIP4 BD1  LP0     -1.358200        0.0000           
   18509 A    4628 TIP4 O1   OW0      0.000000       15.9990           
   18510 A    4628 TIP4 H1   HW0      0.679100        1.0080           
   18511 A    4628 TIP4 H2   HW0      0.679100        1.0080           
   18512 A    4628 TIP4 BD1  LP0     -1.358200        0.0000           
   18513 A    4629 TIP4 O1   OW0      0.000000       15.9990           
   18514 A    4629 TIP4 H1   HW0      0.679100        1.0080           
   18515 A    4629 TIP4 H2   HW0      0.679100        1.0080           
   18516 A    4629 TIP4 BD1  LP0     -1.358200        0.0000           
   18517 A    4630 TIP4 O1   OW0      0.000000       15.9990           
   18518 A    4630 TIP4 H1   HW0      0.679100        1.0080           
   18519 A    4630 TIP4 H2   HW0      0.679100        1.0080           
   18520 A    4630 TIP4 BD1  LP0     -1.358200        0.0000           
   18521 A    4631 TIP4 O1   OW0      0.000000       15.9990           
   18522 A    4631 TIP4 H1   HW0      0.679100        1.0080           
   18523 A    4631 TIP4 H2   HW0      0.679100        1.0080           
   18524 A    4631 TIP4 BD1  LP0     -1.358200        0.0000           
   18525 A    4632 TIP4 O1   OW0      0.000000       15.9990           
   18526 A    4632 TIP4 H1   HW0      0.679100        1.0080           
   18527 A    4632 TIP4 H2   HW0      0.679100        1.0080           
   18528 A    4632 TIP4 BD1  LP0     -1.358200        0.0000           
   18529 A    4633 TIP4 O1   OW0      0.000000       15.9990           
   18530 A    4633 TIP4 H1   HW0      0.679100        1.0080           
   18531 A    4633 TIP4 H2   HW0      0.679100        1.0080           
   18532 A    4633 TIP4 BD1  LP0     -1.358200        0.0000           
   18533 A    4634 TIP4 O1   OW0      0.000000       15.9990           
   18534 A    4634 TIP4 H1   HW0      0.679100        1.0080           
   18535 A    4634 TIP4 H2   HW0      0.679100        1.0080           
   18536 A    4634 TIP4 BD1  LP0     -1.358200        0.0000           
   18537 A    4635 TIP4 O1   OW0      0.000000       15.9990           
   18538 A    4635 TIP4 H1   HW0      0.679100        1.0080           
   18539 A    4635 TIP4 H2   HW0      0.679100        1.0080           
   18540 A    4635 TIP4 BD1  LP0     -1.358200        0.0000           
   18541 A    4636 TIP4 O1   OW0      0.000000       15.9990           
   18542 A    4636 TIP4 H1   HW0      0.679100        1.0080           
   18543 A    4636 TIP4 H2   HW0      0.679100        1.0080           
   18544 A    4636 TIP4 BD1  LP0     -1.358200        0.0000           
   18545 A    4637 TIP4 O1   OW0      0.000000       15.9990           
   18546 A    4637 TIP4 H1   HW0      0.679100        1.0080           
   18547 A    4637 TIP4 H2   HW0      0.679100        1.0080           
   18548 A    4637 TIP4 BD1  LP0     -1.358200        0.0000           
   18549 A    4638 TIP4 O1   OW0      0.000000       15.9990           
   18550 A    4638 TIP4 H1   HW0      0.679100        1.0080           
   18551 A    4638 TIP4 H2   HW0      0.679100        1.0080           
   18552 A    4638 TIP4 BD1  LP0     -1.358200        0.0000           
   18553 A    4639 TIP4 O1   OW0      0.000000       15.9990           
   18554 A    4639 TIP4 H1   HW0      0.679100        1.0080           
   18555 A    4639 TIP4 H2   HW0      0.679100        1.0080           
   18556 A    4639 TIP4 BD1  LP0     -1.358200        0.0000           
   18557 A    4640 TIP4 O1   OW0      0.000000       15.9990           
   18558 A    4640 TIP4 H1   HW0      0.679100        1.0080           
   18559 A    4640 TIP4 H2   HW0      0.679100        1.0080           
   18560 A    4640 TIP4 BD1  LP0     -1.358200        0.0000           
   18561 A    4641 TIP4 O1   OW0      0.000000       15.9990           
   18562 A    4641 TIP4 H1   HW0      0.679100        1.0080           
   18563 A    4641 TIP4 H2   HW0      0.679100        1.0080           
   18564 A    4641 TIP4 BD1  LP0     -1.358200        0.0000           
   18565 A    4642 TIP4 O1   OW0      0.000000       15.9990           
   18566 A    4642 TIP4 H1   HW0      0.679100        1.0080           
   18567 A    4642 TIP4 H2   HW0      0.679100        1.0080           
   18568 A    4642 TIP4 BD1  LP0     -1.358200        0.0000           
   18569 A    4643 TIP4 O1   OW0      0.000000       15.9990           
   18570 A    4643 TIP4 H1   HW0      0.679100        1.0080           
   18571 A    4643 TIP4 H2   HW0      0.679100        1.0080           
   18572 A    4643 TIP4 BD1  LP0     -1.358200        0.0000           
   18573 A    4644 TIP4 O1   OW0      0.000000       15.9990           
   18574 A    4644 TIP4 H1   HW0      0.679100        1.0080           
   18575 A    4644 TIP4 H2   HW0      0.679100        1.0080           
   18576 A    4644 TIP4 BD1  LP0     -1.358200        0.0000           
   18577 A    4645 TIP4 O1   OW0      0.000000       15.9990           
   18578 A    4645 TIP4 H1   HW0      0.679100        1.0080           
   18579 A    4645 TIP4 H2   HW0      0.679100        1.0080           
   18580 A    4645 TIP4 BD1  LP0     -1.358200        0.0000           
   18581 A    4646 TIP4 O1   OW0      0.000000       15.9990           
   18582 A    4646 TIP4 H1   HW0      0.679100        1.0080           
   18583 A    4646 TIP4 H2   HW0      0.679100        1.0080           
   18584 A    4646 TIP4 BD1  LP0     -1.358200        0.0000           
   18585 A    4647 TIP4 O1   OW0      0.000000       15.9990           
   18586 A    4647 TIP4 H1   HW0      0.679100        1.0080           
   18587 A    4647 TIP4 H2   HW0      0.679100        1.0080           
   18588 A    4647 TIP4 BD1  LP0     -1.358200        0.0000           
   18589 A    4648 TIP4 O1   OW0      0.000000       15.9990           
   18590 A    4648 TIP4 H1   HW0      0.679100        1.0080           
   18591 A    4648 TIP4 H2   HW0      0.679100        1.0080           
   18592 A    4648 TIP4 BD1  LP0     -1.358200        0.0000           
   18593 A    4649 TIP4 O1   OW0      0.000000       15.9990           
   18594 A    4649 TIP4 H1   HW0      0.679100        1.0080           
   18595 A    4649 TIP4 H2   HW0      0.679100        1.0080           
   18596 A    4649 TIP4 BD1  LP0     -1.358200        0.0000           
   18597 A    4650 TIP4 O1   OW0      0.000000       15.9990           
   18598 A    4650 TIP4 H1   HW0      0.679100        1.0080           
   18599 A    4650 TIP4 H2   HW0      0.679100        1.0080           
   18600 A    4650 TIP4 BD1  LP0     -1.358200        0.0000           
   18601 A    4651 TIP4 O1   OW0      0.000000       15.9990           
   18602 A    4651 TIP4 H1   HW0      0.679100        1.0080           
   18603 A    4651 TIP4 H2   HW0      0.679100        1.0080           
   18604 A    4651 TIP4 BD1  LP0     -1.358200        0.0000           
   18605 A    4652 TIP4 O1   OW0      0.000000       15.9990           
   18606 A    4652 TIP4 H1   HW0      0.679100        1.0080           
   18607 A    4652 TIP4 H2   HW0      0.679100        1.0080           
   18608 A    4652 TIP4 BD1  LP0     -1.358200        0.0000           
   18609 A    4653 TIP4 O1   OW0      0.000000       15.9990           
   18610 A    4653 TIP4 H1   HW0      0.679100        1.0080           
   18611 A    4653 TIP4 H2   HW0      0.679100        1.0080           
   18612 A    4653 TIP4 BD1  LP0     -1.358200        0.0000           
   18613 A    4654 TIP4 O1   OW0      0.000000       15.9990           
   18614 A    4654 TIP4 H1   HW0      0.679100        1.0080           
   18615 A    4654 TIP4 H2   HW0      0.679100        1.0080           
   18616 A    4654 TIP4 BD1  LP0     -1.358200        0.0000           
   18617 A    4655 TIP4 O1   OW0      0.000000       15.9990           
   18618 A    4655 TIP4 H1   HW0      0.679100        1.0080           
   18619 A    4655 TIP4 H2   HW0      0.679100        1.0080           
   18620 A    4655 TIP4 BD1  LP0     -1.358200        0.0000           
   18621 A    4656 TIP4 O1   OW0      0.000000       15.9990           
   18622 A    4656 TIP4 H1   HW0      0.679100        1.0080           
   18623 A    4656 TIP4 H2   HW0      0.679100        1.0080           
   18624 A    4656 TIP4 BD1  LP0     -1.358200        0.0000           
   18625 A    4657 TIP4 O1   OW0      0.000000       15.9990           
   18626 A    4657 TIP4 H1   HW0      0.679100        1.0080           
   18627 A    4657 TIP4 H2   HW0      0.679100        1.0080           
   18628 A    4657 TIP4 BD1  LP0     -1.358200        0.0000           
   18629 A    4658 TIP4 O1   OW0      0.000000       15.9990           
   18630 A    4658 TIP4 H1   HW0      0.679100        1.0080           
   18631 A    4658 TIP4 H2   HW0      0.679100        1.0080           
   18632 A    4658 TIP4 BD1  LP0     -1.358200        0.0000           
   18633 A    4659 TIP4 O1   OW0      0.000000       15.9990           
   18634 A    4659 TIP4 H1   HW0      0.679100        1.0080           
   18635 A    4659 TIP4 H2   HW0      0.679100        1.0080           
   18636 A    4659 TIP4 BD1  LP0     -1.358200        0.0000           
   18637 A    4660 TIP4 O1   OW0      0.000000       15.9990           
   18638 A    4660 TIP4 H1   HW0      0.679100        1.0080           
   18639 A    4660 TIP4 H2   HW0      0.679100        1.0080           
   18640 A    4660 TIP4 BD1  LP0     -1.358200        0.0000           
   18641 A    4661 TIP4 O1   OW0      0.000000       15.9990           
   18642 A    4661 TIP4 H1   HW0      0.679100        1.0080           
   18643 A    4661 TIP4 H2   HW0      0.679100        1.0080           
   18644 A    4661 TIP4 BD1  LP0     -1.358200        0.0000           
   18645 A    4662 TIP4 O1   OW0      0.000000       15.9990           
   18646 A    4662 TIP4 H1   HW0      0.679100        1.0080           
   18647 A    4662 TIP4 H2   HW0      0.679100        1.0080           
   18648 A    4662 TIP4 BD1  LP0     -1.358200        0.0000           
   18649 A    4663 TIP4 O1   OW0      0.000000       15.9990           
   18650 A    4663 TIP4 H1   HW0      0.679100        1.0080           
   18651 A    4663 TIP4 H2   HW0      0.679100        1.0080           
   18652 A    4663 TIP4 BD1  LP0     -1.358200        0.0000           
   18653 A    4664 TIP4 O1   OW0      0.000000       15.9990           
   18654 A    4664 TIP4 H1   HW0      0.679100        1.0080           
   18655 A    4664 TIP4 H2   HW0      0.679100        1.0080           
   18656 A    4664 TIP4 BD1  LP0     -1.358200        0.0000           
   18657 A    4665 TIP4 O1   OW0      0.000000       15.9990           
   18658 A    4665 TIP4 H1   HW0      0.679100        1.0080           
   18659 A    4665 TIP4 H2   HW0      0.679100        1.0080           
   18660 A    4665 TIP4 BD1  LP0     -1.358200        0.0000           
   18661 A    4666 TIP4 O1   OW0      0.000000       15.9990           
   18662 A    4666 TIP4 H1   HW0      0.679100        1.0080           
   18663 A    4666 TIP4 H2   HW0      0.679100        1.0080           
   18664 A    4666 TIP4 BD1  LP0     -1.358200        0.0000           
   18665 A    4667 TIP4 O1   OW0      0.000000       15.9990           
   18666 A    4667 TIP4 H1   HW0      0.679100        1.0080           
   18667 A    4667 TIP4 H2   HW0      0.679100        1.0080           
   18668 A    4667 TIP4 BD1  LP0     -1.358200        0.0000           
   18669 A    4668 TIP4 O1   OW0      0.000000       15.9990           
   18670 A    4668 TIP4 H1   HW0      0.679100        1.0080           
   18671 A    4668 TIP4 H2   HW0      0.679100        1.0080           
   18672 A    4668 TIP4 BD1  LP0     -1.358200        0.0000           
   18673 A    4669 TIP4 O1   OW0      0.000000       15.9990           
   18674 A    4669 TIP4 H1   HW0      0.679100        1.0080           
   18675 A    4669 TIP4 H2   HW0      0.679100        1.0080           
   18676 A    4669 TIP4 BD1  LP0     -1.358200        0.0000           
   18677 A    4670 TIP4 O1   OW0      0.000000       15.9990           
   18678 A    4670 TIP4 H1   HW0      0.679100        1.0080           
   18679 A    4670 TIP4 H2   HW0      0.679100        1.0080           
   18680 A    4670 TIP4 BD1  LP0     -1.358200        0.0000           
   18681 A    4671 TIP4 O1   OW0      0.000000       15.9990           
   18682 A    4671 TIP4 H1   HW0      0.679100        1.0080           
   18683 A    4671 TIP4 H2   HW0      0.679100        1.0080           
   18684 A    4671 TIP4 BD1  LP0     -1.358200        0.0000           
   18685 A    4672 TIP4 O1   OW0      0.000000       15.9990           
   18686 A    4672 TIP4 H1   HW0      0.679100        1.0080           
   18687 A    4672 TIP4 H2   HW0      0.679100        1.0080           
   18688 A    4672 TIP4 BD1  LP0     -1.358200        0.0000           
   18689 A    4673 TIP4 O1   OW0      0.000000       15.9990           
   18690 A    4673 TIP4 H1   HW0      0.679100        1.0080           
   18691 A    4673 TIP4 H2   HW0      0.679100        1.0080           
   18692 A    4673 TIP4 BD1  LP0     -1.358200        0.0000           
   18693 A    4674 TIP4 O1   OW0      0.000000       15.9990           
   18694 A    4674 TIP4 H1   HW0      0.679100        1.0080           
   18695 A    4674 TIP4 H2   HW0      0.679100        1.0080           
   18696 A    4674 TIP4 BD1  LP0     -1.358200        0.0000           
   18697 A    4675 TIP4 O1   OW0      0.000000       15.9990           
   18698 A    4675 TIP4 H1   HW0      0.679100        1.0080           
   18699 A    4675 TIP4 H2   HW0      0.679100        1.0080           
   18700 A    4675 TIP4 BD1  LP0     -1.358200        0.0000           
   18701 A    4676 TIP4 O1   OW0      0.000000       15.9990           
   18702 A    4676 TIP4 H1   HW0      0.679100        1.0080           
   18703 A    4676 TIP4 H2   HW0      0.679100        1.0080           
   18704 A    4676 TIP4 BD1  LP0     -1.358200        0.0000           
   18705 A    4677 TIP4 O1   OW0      0.000000       15.9990           
   18706 A    4677 TIP4 H1   HW0      0.679100        1.0080           
   18707 A    4677 TIP4 H2   HW0      0.679100        1.0080           
   18708 A    4677 TIP4 BD1  LP0     -1.358200        0.0000           
   18709 A    4678 TIP4 O1   OW0      0.000000       15.9990           
   18710 A    4678 TIP4 H1   HW0      0.679100        1.0080           
   18711 A    4678 TIP4 H2   HW0      0.679100        1.0080           
   18712 A    4678 TIP4 BD1  LP0     -1.358200        0.0000           
   18713 A    4679 TIP4 O1   OW0      0.000000       15.9990           
   18714 A    4679 TIP4 H1   HW0      0.679100        1.0080           
   18715 A    4679 TIP4 H2   HW0      0.679100        1.0080           
   18716 A    4679 TIP4 BD1  LP0     -1.358200        0.0000           
   18717 A    4680 TIP4 O1   OW0      0.000000       15.9990           
   18718 A    4680 TIP4 H1   HW0      0.679100        1.0080           
   18719 A    4680 TIP4 H2   HW0      0.679100        1.0080           
   18720 A    4680 TIP4 BD1  LP0     -1.358200        0.0000           
   18721 A    4681 TIP4 O1   OW0      0.000000       15.9990           
   18722 A    4681 TIP4 H1   HW0      0.679100        1.0080           
   18723 A    4681 TIP4 H2   HW0      0.679100        1.0080           
   18724 A    4681 TIP4 BD1  LP0     -1.358200        0.0000           
   18725 A    4682 TIP4 O1   OW0      0.000000       15.9990           
   18726 A    4682 TIP4 H1   HW0      0.679100        1.0080           
   18727 A    4682 TIP4 H2   HW0      0.679100        1.0080           
   18728 A    4682 TIP4 BD1  LP0     -1.358200        0.0000           
   18729 A    4683 TIP4 O1   OW0      0.000000       15.9990           
   18730 A    4683 TIP4 H1   HW0      0.679100        1.0080           
   18731 A    4683 TIP4 H2   HW0      0.679100        1.0080           
   18732 A    4683 TIP4 BD1  LP0     -1.358200        0.0000           
   18733 A    4684 TIP4 O1   OW0      0.000000       15.9990           
   18734 A    4684 TIP4 H1   HW0      0.679100        1.0080           
   18735 A    4684 TIP4 H2   HW0      0.679100        1.0080           
   18736 A    4684 TIP4 BD1  LP0     -1.358200        0.0000           
   18737 A    4685 TIP4 O1   OW0      0.000000       15.9990           
   18738 A    4685 TIP4 H1   HW0      0.679100        1.0080           
   18739 A    4685 TIP4 H2   HW0      0.679100        1.0080           
   18740 A    4685 TIP4 BD1  LP0     -1.358200        0.0000           
   18741 A    4686 TIP4 O1   OW0      0.000000       15.9990           
   18742 A    4686 TIP4 H1   HW0      0.679100        1.0080           
   18743 A    4686 TIP4 H2   HW0      0.679100        1.0080           
   18744 A    4686 TIP4 BD1  LP0     -1.358200        0.0000           
   18745 A    4687 TIP4 O1   OW0      0.000000       15.9990           
   18746 A    4687 TIP4 H1   HW0      0.679100        1.0080           
   18747 A    4687 TIP4 H2   HW0      0.679100        1.0080           
   18748 A    4687 TIP4 BD1  LP0     -1.358200        0.0000           
   18749 A    4688 TIP4 O1   OW0      0.000000       15.9990           
   18750 A    4688 TIP4 H1   HW0      0.679100        1.0080           
   18751 A    4688 TIP4 H2   HW0      0.679100        1.0080           
   18752 A    4688 TIP4 BD1  LP0     -1.358200        0.0000           
   18753 A    4689 TIP4 O1   OW0      0.000000       15.9990           
   18754 A    4689 TIP4 H1   HW0      0.679100        1.0080           
   18755 A    4689 TIP4 H2   HW0      0.679100        1.0080           
   18756 A    4689 TIP4 BD1  LP0     -1.358200        0.0000           
   18757 A    4690 TIP4 O1   OW0      0.000000       15.9990           
   18758 A    4690 TIP4 H1   HW0      0.679100        1.0080           
   18759 A    4690 TIP4 H2   HW0      0.679100        1.0080           
   18760 A    4690 TIP4 BD1  LP0     -1.358200        0.0000           
   18761 A    4691 TIP4 O1   OW0      0.000000       15.9990           
   18762 A    4691 TIP4 H1   HW0      0.679100        1.0080           
   18763 A    4691 TIP4 H2   HW0      0.679100        1.0080           
   18764 A    4691 TIP4 BD1  LP0     -1.358200        0.0000           
   18765 A    4692 TIP4 O1   OW0      0.000000       15.9990           
   18766 A    4692 TIP4 H1   HW0      0.679100        1.0080           
   18767 A    4692 TIP4 H2   HW0      0.679100        1.0080           
   18768 A    4692 TIP4 BD1  LP0     -1.358200        0.0000           
   18769 A    4693 TIP4 O1   OW0      0.000000       15.9990           
   18770 A    4693 TIP4 H1   HW0      0.679100        1.0080           
   18771 A    4693 TIP4 H2   HW0      0.679100        1.0080           
   18772 A    4693 TIP4 BD1  LP0     -1.358200        0.0000           
   18773 A    4694 TIP4 O1   OW0      0.000000       15.9990           
   18774 A    4694 TIP4 H1   HW0      0.679100        1.0080           
   18775 A    4694 TIP4 H2   HW0      0.679100        1.0080           
   18776 A    4694 TIP4 BD1  LP0     -1.358200        0.0000           
   18777 A    4695 TIP4 O1   OW0      0.000000       15.9990           
   18778 A    4695 TIP4 H1   HW0      0.679100        1.0080           
   18779 A    4695 TIP4 H2   HW0      0.679100        1.0080           
   18780 A    4695 TIP4 BD1  LP0     -1.358200        0.0000           
   18781 A    4696 TIP4 O1   OW0      0.000000       15.9990           
   18782 A    4696 TIP4 H1   HW0      0.679100        1.0080           
   18783 A    4696 TIP4 H2   HW0      0.679100        1.0080           
   18784 A    4696 TIP4 BD1  LP0     -1.358200        0.0000           
   18785 A    4697 TIP4 O1   OW0      0.000000       15.9990           
   18786 A    4697 TIP4 H1   HW0      0.679100        1.0080           
   18787 A    4697 TIP4 H2   HW0      0.679100        1.0080           
   18788 A    4697 TIP4 BD1  LP0     -1.358200        0.0000           
   18789 A    4698 TIP4 O1   OW0      0.000000       15.9990           
   18790 A    4698 TIP4 H1   HW0      0.679100        1.0080           
   18791 A    4698 TIP4 H2   HW0      0.679100        1.0080           
   18792 A    4698 TIP4 BD1  LP0     -1.358200        0.0000           
   18793 A    4699 TIP4 O1   OW0      0.000000       15.9990           
   18794 A    4699 TIP4 H1   HW0      0.679100        1.0080           
   18795 A    4699 TIP4 H2   HW0      0.679100        1.0080           
   18796 A    4699 TIP4 BD1  LP0     -1.358200        0.0000           
   18797 A    4700 TIP4 O1   OW0      0.000000       15.9990           
   18798 A    4700 TIP4 H1   HW0      0.679100        1.0080           
   18799 A    4700 TIP4 H2   HW0      0.679100        1.0080           
   18800 A    4700 TIP4 BD1  LP0     -1.358200        0.0000           
   18801 A    4701 TIP4 O1   OW0      0.000000       15.9990           
   18802 A    4701 TIP4 H1   HW0      0.679100        1.0080           
   18803 A    4701 TIP4 H2   HW0      0.679100        1.0080           
   18804 A    4701 TIP4 BD1  LP0     -1.358200        0.0000           
   18805 A    4702 TIP4 O1   OW0      0.000000       15.9990           
   18806 A    4702 TIP4 H1   HW0      0.679100        1.0080           
   18807 A    4702 TIP4 H2   HW0      0.679100        1.0080           
   18808 A    4702 TIP4 BD1  LP0     -1.358200        0.0000           
   18809 A    4703 TIP4 O1   OW0      0.000000       15.9990           
   18810 A    4703 TIP4 H1   HW0      0.679100        1.0080           
   18811 A    4703 TIP4 H2   HW0      0.679100        1.0080           
   18812 A    4703 TIP4 BD1  LP0     -1.358200        0.0000           
   18813 A    4704 TIP4 O1   OW0      0.000000       15.9990           
   18814 A    4704 TIP4 H1   HW0      0.679100        1.0080           
   18815 A    4704 TIP4 H2   HW0      0.679100        1.0080           
   18816 A    4704 TIP4 BD1  LP0     -1.358200        0.0000           
   18817 A    4705 TIP4 O1   OW0      0.000000       15.9990           
   18818 A    4705 TIP4 H1   HW0      0.679100        1.0080           
   18819 A    4705 TIP4 H2   HW0      0.679100        1.0080           
   18820 A    4705 TIP4 BD1  LP0     -1.358200        0.0000           
   18821 A    4706 TIP4 O1   OW0      0.000000       15.9990           
   18822 A    4706 TIP4 H1   HW0      0.679100        1.0080           
   18823 A    4706 TIP4 H2   HW0      0.679100        1.0080           
   18824 A    4706 TIP4 BD1  LP0     -1.358200        0.0000           
   18825 A    4707 TIP4 O1   OW0      0.000000       15.9990           
   18826 A    4707 TIP4 H1   HW0      0.679100        1.0080           
   18827 A    4707 TIP4 H2   HW0      0.679100        1.0080           
   18828 A    4707 TIP4 BD1  LP0     -1.358200        0.0000           
   18829 A    4708 TIP4 O1   OW0      0.000000       15.9990           
   18830 A    4708 TIP4 H1   HW0      0.679100        1.0080           
   18831 A    4708 TIP4 H2   HW0      0.679100        1.0080           
   18832 A    4708 TIP4 BD1  LP0     -1.358200        0.0000           
   18833 A    4709 TIP4 O1   OW0      0.000000       15.9990           
   18834 A    4709 TIP4 H1   HW0      0.679100        1.0080           
   18835 A    4709 TIP4 H2   HW0      0.679100        1.0080           
   18836 A    4709 TIP4 BD1  LP0     -1.358200        0.0000           
   18837 A    4710 TIP4 O1   OW0      0.000000       15.9990           
   18838 A    4710 TIP4 H1   HW0      0.679100        1.0080           
   18839 A    4710 TIP4 H2   HW0      0.679100        1.0080           
   18840 A    4710 TIP4 BD1  LP0     -1.358200        0.0000           
   18841 A    4711 TIP4 O1   OW0      0.000000       15.9990           
   18842 A    4711 TIP4 H1   HW0      0.679100        1.0080           
   18843 A    4711 TIP4 H2   HW0      0.679100        1.0080           
   18844 A    4711 TIP4 BD1  LP0     -1.358200        0.0000           
   18845 A    4712 TIP4 O1   OW0      0.000000       15.9990           
   18846 A    4712 TIP4 H1   HW0      0.679100        1.0080           
   18847 A    4712 TIP4 H2   HW0      0.679100        1.0080           
   18848 A    4712 TIP4 BD1  LP0     -1.358200        0.0000           
   18849 A    4713 TIP4 O1   OW0      0.000000       15.9990           
   18850 A    4713 TIP4 H1   HW0      0.679100        1.0080           
   18851 A    4713 TIP4 H2   HW0      0.679100        1.0080           
   18852 A    4713 TIP4 BD1  LP0     -1.358200        0.0000           
   18853 A    4714 TIP4 O1   OW0      0.000000       15.9990           
   18854 A    4714 TIP4 H1   HW0      0.679100        1.0080           
   18855 A    4714 TIP4 H2   HW0      0.679100        1.0080           
   18856 A    4714 TIP4 BD1  LP0     -1.358200        0.0000           
   18857 A    4715 TIP4 O1   OW0      0.000000       15.9990           
   18858 A    4715 TIP4 H1   HW0      0.679100        1.0080           
   18859 A    4715 TIP4 H2   HW0      0.679100        1.0080           
   18860 A    4715 TIP4 BD1  LP0     -1.358200        0.0000           
   18861 A    4716 TIP4 O1   OW0      0.000000       15.9990           
   18862 A    4716 TIP4 H1   HW0      0.679100        1.0080           
   18863 A    4716 TIP4 H2   HW0      0.679100        1.0080           
   18864 A    4716 TIP4 BD1  LP0     -1.358200        0.0000           
   18865 A    4717 TIP4 O1   OW0      0.000000       15.9990           
   18866 A    4717 TIP4 H1   HW0      0.679100        1.0080           
   18867 A    4717 TIP4 H2   HW0      0.679100        1.0080           
   18868 A    4717 TIP4 BD1  LP0     -1.358200        0.0000           
   18869 A    4718 TIP4 O1   OW0      0.000000       15.9990           
   18870 A    4718 TIP4 H1   HW0      0.679100        1.0080           
   18871 A    4718 TIP4 H2   HW0      0.679100        1.0080           
   18872 A    4718 TIP4 BD1  LP0     -1.358200        0.0000           
   18873 A    4719 TIP4 O1   OW0      0.000000       15.9990           
   18874 A    4719 TIP4 H1   HW0      0.679100        1.0080           
   18875 A    4719 TIP4 H2   HW0      0.679100        1.0080           
   18876 A    4719 TIP4 BD1  LP0     -1.358200        0.0000           
   18877 A    4720 TIP4 O1   OW0      0.000000       15.9990           
   18878 A    4720 TIP4 H1   HW0      0.679100        1.0080           
   18879 A    4720 TIP4 H2   HW0      0.679100        1.0080           
   18880 A    4720 TIP4 BD1  LP0     -1.358200        0.0000           
   18881 A    4721 TIP4 O1   OW0      0.000000       15.9990           
   18882 A    4721 TIP4 H1   HW0      0.679100        1.0080           
   18883 A    4721 TIP4 H2   HW0      0.679100        1.0080           
   18884 A    4721 TIP4 BD1  LP0     -1.358200        0.0000           
   18885 A    4722 TIP4 O1   OW0      0.000000       15.9990           
   18886 A    4722 TIP4 H1   HW0      0.679100        1.0080           
   18887 A    4722 TIP4 H2   HW0      0.679100        1.0080           
   18888 A    4722 TIP4 BD1  LP0     -1.358200        0.0000           
   18889 A    4723 TIP4 O1   OW0      0.000000       15.9990           
   18890 A    4723 TIP4 H1   HW0      0.679100        1.0080           
   18891 A    4723 TIP4 H2   HW0      0.679100        1.0080           
   18892 A    4723 TIP4 BD1  LP0     -1.358200        0.0000           
   18893 A    4724 TIP4 O1   OW0      0.000000       15.9990           
   18894 A    4724 TIP4 H1   HW0      0.679100        1.0080           
   18895 A    4724 TIP4 H2   HW0      0.679100        1.0080           
   18896 A    4724 TIP4 BD1  LP0     -1.358200        0.0000           
   18897 A    4725 TIP4 O1   OW0      0.000000       15.9990           
   18898 A    4725 TIP4 H1   HW0      0.679100        1.0080           
   18899 A    4725 TIP4 H2   HW0      0.679100        1.0080           
   18900 A    4725 TIP4 BD1  LP0     -1.358200        0.0000           
   18901 A    4726 TIP4 O1   OW0      0.000000       15.9990           
   18902 A    4726 TIP4 H1   HW0      0.679100        1.0080           
   18903 A    4726 TIP4 H2   HW0      0.679100        1.0080           
   18904 A    4726 TIP4 BD1  LP0     -1.358200        0.0000           
   18905 A    4727 TIP4 O1   OW0      0.000000       15.9990           
   18906 A    4727 TIP4 H1   HW0      0.679100        1.0080           
   18907 A    4727 TIP4 H2   HW0      0.679100        1.0080           
   18908 A    4727 TIP4 BD1  LP0     -1.358200        0.0000           
   18909 A    4728 TIP4 O1   OW0      0.000000       15.9990           
   18910 A    4728 TIP4 H1   HW0      0.679100        1.0080           
   18911 A    4728 TIP4 H2   HW0      0.679100        1.0080           
   18912 A    4728 TIP4 BD1  LP0     -1.358200        0.0000           
   18913 A    4729 TIP4 O1   OW0      0.000000       15.9990           
   18914 A    4729 TIP4 H1   HW0      0.679100        1.0080           
   18915 A    4729 TIP4 H2   HW0      0.679100        1.0080           
   18916 A    4729 TIP4 BD1  LP0     -1.358200        0.0000           
   18917 A    4730 TIP4 O1   OW0      0.000000       15.9990           
   18918 A    4730 TIP4 H1   HW0      0.679100        1.0080           
   18919 A    4730 TIP4 H2   HW0      0.679100        1.0080           
   18920 A    4730 TIP4 BD1  LP0     -1.358200        0.0000           
   18921 A    4731 TIP4 O1   OW0      0.000000       15.9990           
   18922 A    4731 TIP4 H1   HW0      0.679100        1.0080           
   18923 A    4731 TIP4 H2   HW0      0.679100        1.0080           
   18924 A    4731 TIP4 BD1  LP0     -1.358200        0.0000           
   18925 A    4732 TIP4 O1   OW0      0.000000       15.9990           
   18926 A    4732 TIP4 H1   HW0      0.679100        1.0080           
   18927 A    4732 TIP4 H2   HW0      0.679100        1.0080           
   18928 A    4732 TIP4 BD1  LP0     -1.358200        0.0000           
   18929 A    4733 TIP4 O1   OW0      0.000000       15.9990           
   18930 A    4733 TIP4 H1   HW0      0.679100        1.0080           
   18931 A    4733 TIP4 H2   HW0      0.679100        1.0080           
   18932 A    4733 TIP4 BD1  LP0     -1.358200        0.0000           
   18933 A    4734 TIP4 O1   OW0      0.000000       15.9990           
   18934 A    4734 TIP4 H1   HW0      0.679100        1.0080           
   18935 A    4734 TIP4 H2   HW0      0.679100        1.0080           
   18936 A    4734 TIP4 BD1  LP0     -1.358200        0.0000           
   18937 A    4735 TIP4 O1   OW0      0.000000       15.9990           
   18938 A    4735 TIP4 H1   HW0      0.679100        1.0080           
   18939 A    4735 TIP4 H2   HW0      0.679100        1.0080           
   18940 A    4735 TIP4 BD1  LP0     -1.358200        0.0000           
   18941 A    4736 TIP4 O1   OW0      0.000000       15.9990           
   18942 A    4736 TIP4 H1   HW0      0.679100        1.0080           
   18943 A    4736 TIP4 H2   HW0      0.679100        1.0080           
   18944 A    4736 TIP4 BD1  LP0     -1.358200        0.0000           
   18945 A    4737 TIP4 O1   OW0      0.000000       15.9990           
   18946 A    4737 TIP4 H1   HW0      0.679100        1.0080           
   18947 A    4737 TIP4 H2   HW0      0.679100        1.0080           
   18948 A    4737 TIP4 BD1  LP0     -1.358200        0.0000           
   18949 A    4738 TIP4 O1   OW0      0.000000       15.9990           
   18950 A    4738 TIP4 H1   HW0      0.679100        1.0080           
   18951 A    4738 TIP4 H2   HW0      0.679100        1.0080           
   18952 A    4738 TIP4 BD1  LP0     -1.358200        0.0000           
   18953 A    4739 TIP4 O1   OW0      0.000000       15.9990           
   18954 A    4739 TIP4 H1   HW0      0.679100        1.0080           
   18955 A    4739 TIP4 H2   HW0      0.679100        1.0080           
   18956 A    4739 TIP4 BD1  LP0     -1.358200        0.0000           
   18957 A    4740 TIP4 O1   OW0      0.000000       15.9990           
   18958 A    4740 TIP4 H1   HW0      0.679100        1.0080           
   18959 A    4740 TIP4 H2   HW0      0.679100        1.0080           
   18960 A    4740 TIP4 BD1  LP0     -1.358200        0.0000           
   18961 A    4741 TIP4 O1   OW0      0.000000       15.9990           
   18962 A    4741 TIP4 H1   HW0      0.679100        1.0080           
   18963 A    4741 TIP4 H2   HW0      0.679100        1.0080           
   18964 A    4741 TIP4 BD1  LP0     -1.358200        0.0000           
   18965 A    4742 TIP4 O1   OW0      0.000000       15.9990           
   18966 A    4742 TIP4 H1   HW0      0.679100        1.0080           
   18967 A    4742 TIP4 H2   HW0      0.679100        1.0080           
   18968 A    4742 TIP4 BD1  LP0     -1.358200        0.0000           
   18969 A    4743 TIP4 O1   OW0      0.000000       15.9990           
   18970 A    4743 TIP4 H1   HW0      0.679100        1.0080           
   18971 A    4743 TIP4 H2   HW0      0.679100        1.0080           
   18972 A    4743 TIP4 BD1  LP0     -1.358200        0.0000           
   18973 A    4744 TIP4 O1   OW0      0.000000       15.9990           
   18974 A    4744 TIP4 H1   HW0      0.679100        1.0080           
   18975 A    4744 TIP4 H2   HW0      0.679100        1.0080           
   18976 A    4744 TIP4 BD1  LP0     -1.358200        0.0000           
   18977 A    4745 TIP4 O1   OW0      0.000000       15.9990           
   18978 A    4745 TIP4 H1   HW0      0.679100        1.0080           
   18979 A    4745 TIP4 H2   HW0      0.679100        1.0080           
   18980 A    4745 TIP4 BD1  LP0     -1.358200        0.0000           
   18981 A    4746 TIP4 O1   OW0      0.000000       15.9990           
   18982 A    4746 TIP4 H1   HW0      0.679100        1.0080           
   18983 A    4746 TIP4 H2   HW0      0.679100        1.0080           
   18984 A    4746 TIP4 BD1  LP0     -1.358200        0.0000           
   18985 A    4747 TIP4 O1   OW0      0.000000       15.9990           
   18986 A    4747 TIP4 H1   HW0      0.679100        1.0080           
   18987 A    4747 TIP4 H2   HW0      0.679100        1.0080           
   18988 A    4747 TIP4 BD1  LP0     -1.358200        0.0000           
   18989 A    4748 TIP4 O1   OW0      0.000000       15.9990           
   18990 A    4748 TIP4 H1   HW0      0.679100        1.0080           
   18991 A    4748 TIP4 H2   HW0      0.679100        1.0080           
   18992 A    4748 TIP4 BD1  LP0     -1.358200        0.0000           
   18993 A    4749 TIP4 O1   OW0      0.000000       15.9990           
   18994 A    4749 TIP4 H1   HW0      0.679100        1.0080           
   18995 A    4749 TIP4 H2   HW0      0.679100        1.0080           
   18996 A    4749 TIP4 BD1  LP0     -1.358200        0.0000           
   18997 A    4750 TIP4 O1   OW0      0.000000       15.9990           
   18998 A    4750 TIP4 H1   HW0      0.679100        1.0080           
   18999 A    4750 TIP4 H2   HW0      0.679100        1.0080           
   19000 A    4750 TIP4 BD1  LP0     -1.358200        0.0000           
   19001 A    4751 TIP4 O1   OW0      0.000000       15.9990           
   19002 A    4751 TIP4 H1   HW0      0.679100        1.0080           
   19003 A    4751 TIP4 H2   HW0      0.679100        1.0080           
   19004 A    4751 TIP4 BD1  LP0     -1.358200        0.0000           
   19005 A    4752 TIP4 O1   OW0      0.000000       15.9990           
   19006 A    4752 TIP4 H1   HW0      0.679100        1.0080           
   19007 A    4752 TIP4 H2   HW0      0.679100        1.0080           
   19008 A    4752 TIP4 BD1  LP0     -1.358200        0.0000           
   19009 A    4753 TIP4 O1   OW0      0.000000       15.9990           
   19010 A    4753 TIP4 H1   HW0      0.679100        1.0080           
   19011 A    4753 TIP4 H2   HW0      0.679100        1.0080           
   19012 A    4753 TIP4 BD1  LP0     -1.358200        0.0000           
   19013 A    4754 TIP4 O1   OW0      0.000000       15.9990           
   19014 A    4754 TIP4 H1   HW0      0.679100        1.0080           
   19015 A    4754 TIP4 H2   HW0      0.679100        1.0080           
   19016 A    4754 TIP4 BD1  LP0     -1.358200        0.0000           
   19017 A    4755 TIP4 O1   OW0      0.000000       15.9990           
   19018 A    4755 TIP4 H1   HW0      0.679100        1.0080           
   19019 A    4755 TIP4 H2   HW0      0.679100        1.0080           
   19020 A    4755 TIP4 BD1  LP0     -1.358200        0.0000           
   19021 A    4756 TIP4 O1   OW0      0.000000       15.9990           
   19022 A    4756 TIP4 H1   HW0      0.679100        1.0080           
   19023 A    4756 TIP4 H2   HW0      0.679100        1.0080           
   19024 A    4756 TIP4 BD1  LP0     -1.358200        0.0000           
   19025 A    4757 TIP4 O1   OW0      0.000000       15.9990           
   19026 A    4757 TIP4 H1   HW0      0.679100        1.0080           
   19027 A    4757 TIP4 H2   HW0      0.679100        1.0080           
   19028 A    4757 TIP4 BD1  LP0     -1.358200        0.0000           
   19029 A    4758 TIP4 O1   OW0      0.000000       15.9990           
   19030 A    4758 TIP4 H1   HW0      0.679100        1.0080           
   19031 A    4758 TIP4 H2   HW0      0.679100        1.0080           
   19032 A    4758 TIP4 BD1  LP0     -1.358200        0.0000           
   19033 A    4759 TIP4 O1   OW0      0.000000       15.9990           
   19034 A    4759 TIP4 H1   HW0      0.679100        1.0080           
   19035 A    4759 TIP4 H2   HW0      0.679100        1.0080           
   19036 A    4759 TIP4 BD1  LP0     -1.358200        0.0000           
   19037 A    4760 TIP4 O1   OW0      0.000000       15.9990           
   19038 A    4760 TIP4 H1   HW0      0.679100        1.0080           
   19039 A    4760 TIP4 H2   HW0      0.679100        1.0080           
   19040 A    4760 TIP4 BD1  LP0     -1.358200        0.0000           
   19041 A    4761 TIP4 O1   OW0      0.000000       15.9990           
   19042 A    4761 TIP4 H1   HW0      0.679100        1.0080           
   19043 A    4761 TIP4 H2   HW0      0.679100        1.0080           
   19044 A    4761 TIP4 BD1  LP0     -1.358200        0.0000           
   19045 A    4762 TIP4 O1   OW0      0.000000       15.9990           
   19046 A    4762 TIP4 H1   HW0      0.679100        1.0080           
   19047 A    4762 TIP4 H2   HW0      0.679100        1.0080           
   19048 A    4762 TIP4 BD1  LP0     -1.358200        0.0000           
   19049 A    4763 TIP4 O1   OW0      0.000000       15.9990           
   19050 A    4763 TIP4 H1   HW0      0.679100        1.0080           
   19051 A    4763 TIP4 H2   HW0      0.679100        1.0080           
   19052 A    4763 TIP4 BD1  LP0     -1.358200        0.0000           
   19053 A    4764 TIP4 O1   OW0      0.000000       15.9990           
   19054 A    4764 TIP4 H1   HW0      0.679100        1.0080           
   19055 A    4764 TIP4 H2   HW0      0.679100        1.0080           
   19056 A    4764 TIP4 BD1  LP0     -1.358200        0.0000           
   19057 A    4765 TIP4 O1   OW0      0.000000       15.9990           
   19058 A    4765 TIP4 H1   HW0      0.679100        1.0080           
   19059 A    4765 TIP4 H2   HW0      0.679100        1.0080           
   19060 A    4765 TIP4 BD1  LP0     -1.358200        0.0000           
   19061 A    4766 TIP4 O1   OW0      0.000000       15.9990           
   19062 A    4766 TIP4 H1   HW0      0.679100        1.0080           
   19063 A    4766 TIP4 H2   HW0      0.679100        1.0080           
   19064 A    4766 TIP4 BD1  LP0     -1.358200        0.0000           
   19065 A    4767 TIP4 O1   OW0      0.000000       15.9990           
   19066 A    4767 TIP4 H1   HW0      0.679100        1.0080           
   19067 A    4767 TIP4 H2   HW0      0.679100        1.0080           
   19068 A    4767 TIP4 BD1  LP0     -1.358200        0.0000           
   19069 A    4768 TIP4 O1   OW0      0.000000       15.9990           
   19070 A    4768 TIP4 H1   HW0      0.679100        1.0080           
   19071 A    4768 TIP4 H2   HW0      0.679100        1.0080           
   19072 A    4768 TIP4 BD1  LP0     -1.358200        0.0000           
   19073 A    4769 TIP4 O1   OW0      0.000000       15.9990           
   19074 A    4769 TIP4 H1   HW0      0.679100        1.0080           
   19075 A    4769 TIP4 H2   HW0      0.679100        1.0080           
   19076 A    4769 TIP4 BD1  LP0     -1.358200        0.0000           
   19077 A    4770 TIP4 O1   OW0      0.000000       15.9990           
   19078 A    4770 TIP4 H1   HW0      0.679100        1.0080           
   19079 A    4770 TIP4 H2   HW0      0.679100        1.0080           
   19080 A    4770 TIP4 BD1  LP0     -1.358200        0.0000           
   19081 A    4771 TIP4 O1   OW0      0.000000       15.9990           
   19082 A    4771 TIP4 H1   HW0      0.679100        1.0080           
   19083 A    4771 TIP4 H2   HW0      0.679100        1.0080           
   19084 A    4771 TIP4 BD1  LP0     -1.358200        0.0000           
   19085 A    4772 TIP4 O1   OW0      0.000000       15.9990           
   19086 A    4772 TIP4 H1   HW0      0.679100        1.0080           
   19087 A    4772 TIP4 H2   HW0      0.679100        1.0080           
   19088 A    4772 TIP4 BD1  LP0     -1.358200        0.0000           
   19089 A    4773 TIP4 O1   OW0      0.000000       15.9990           
   19090 A    4773 TIP4 H1   HW0      0.679100        1.0080           
   19091 A    4773 TIP4 H2   HW0      0.679100        1.0080           
   19092 A    4773 TIP4 BD1  LP0     -1.358200        0.0000           
   19093 A    4774 TIP4 O1   OW0      0.000000       15.9990           
   19094 A    4774 TIP4 H1   HW0      0.679100        1.0080           
   19095 A    4774 TIP4 H2   HW0      0.679100        1.0080           
   19096 A    4774 TIP4 BD1  LP0     -1.358200        0.0000           
   19097 A    4775 TIP4 O1   OW0      0.000000       15.9990           
   19098 A    4775 TIP4 H1   HW0      0.679100        1.0080           
   19099 A    4775 TIP4 H2   HW0      0.679100        1.0080           
   19100 A    4775 TIP4 BD1  LP0     -1.358200        0.0000           
   19101 A    4776 TIP4 O1   OW0      0.000000       15.9990           
   19102 A    4776 TIP4 H1   HW0      0.679100        1.0080           
   19103 A    4776 TIP4 H2   HW0      0.679100        1.0080           
   19104 A    4776 TIP4 BD1  LP0     -1.358200        0.0000           
   19105 A    4777 TIP4 O1   OW0      0.000000       15.9990           
   19106 A    4777 TIP4 H1   HW0      0.679100        1.0080           
   19107 A    4777 TIP4 H2   HW0      0.679100        1.0080           
   19108 A    4777 TIP4 BD1  LP0     -1.358200        0.0000           
   19109 A    4778 TIP4 O1   OW0      0.000000       15.9990           
   19110 A    4778 TIP4 H1   HW0      0.679100        1.0080           
   19111 A    4778 TIP4 H2   HW0      0.679100        1.0080           
   19112 A    4778 TIP4 BD1  LP0     -1.358200        0.0000           
   19113 A    4779 TIP4 O1   OW0      0.000000       15.9990           
   19114 A    4779 TIP4 H1   HW0      0.679100        1.0080           
   19115 A    4779 TIP4 H2   HW0      0.679100        1.0080           
   19116 A    4779 TIP4 BD1  LP0     -1.358200        0.0000           
   19117 A    4780 TIP4 O1   OW0      0.000000       15.9990           
   19118 A    4780 TIP4 H1   HW0      0.679100        1.0080           
   19119 A    4780 TIP4 H2   HW0      0.679100        1.0080           
   19120 A    4780 TIP4 BD1  LP0     -1.358200        0.0000           
   19121 A    4781 TIP4 O1   OW0      0.000000       15.9990           
   19122 A    4781 TIP4 H1   HW0      0.679100        1.0080           
   19123 A    4781 TIP4 H2   HW0      0.679100        1.0080           
   19124 A    4781 TIP4 BD1  LP0     -1.358200        0.0000           
   19125 A    4782 TIP4 O1   OW0      0.000000       15.9990           
   19126 A    4782 TIP4 H1   HW0      0.679100        1.0080           
   19127 A    4782 TIP4 H2   HW0      0.679100        1.0080           
   19128 A    4782 TIP4 BD1  LP0     -1.358200        0.0000           
   19129 A    4783 TIP4 O1   OW0      0.000000       15.9990           
   19130 A    4783 TIP4 H1   HW0      0.679100        1.0080           
   19131 A    4783 TIP4 H2   HW0      0.679100        1.0080           
   19132 A    4783 TIP4 BD1  LP0     -1.358200        0.0000           
   19133 A    4784 TIP4 O1   OW0      0.000000       15.9990           
   19134 A    4784 TIP4 H1   HW0      0.679100        1.0080           
   19135 A    4784 TIP4 H2   HW0      0.679100        1.0080           
   19136 A    4784 TIP4 BD1  LP0     -1.358200        0.0000           
   19137 A    4785 TIP4 O1   OW0      0.000000       15.9990           
   19138 A    4785 TIP4 H1   HW0      0.679100        1.0080           
   19139 A    4785 TIP4 H2   HW0      0.679100        1.0080           
   19140 A    4785 TIP4 BD1  LP0     -1.358200        0.0000           
   19141 A    4786 TIP4 O1   OW0      0.000000       15.9990           
   19142 A    4786 TIP4 H1   HW0      0.679100        1.0080           
   19143 A    4786 TIP4 H2   HW0      0.679100        1.0080           
   19144 A    4786 TIP4 BD1  LP0     -1.358200        0.0000           
   19145 A    4787 TIP4 O1   OW0      0.000000       15.9990           
   19146 A    4787 TIP4 H1   HW0      0.679100        1.0080           
   19147 A    4787 TIP4 H2   HW0      0.679100        1.0080           
   19148 A    4787 TIP4 BD1  LP0     -1.358200        0.0000           
   19149 A    4788 TIP4 O1   OW0      0.000000       15.9990           
   19150 A    4788 TIP4 H1   HW0      0.679100        1.0080           
   19151 A    4788 TIP4 H2   HW0      0.679100        1.0080           
   19152 A    4788 TIP4 BD1  LP0     -1.358200        0.0000           
   19153 A    4789 TIP4 O1   OW0      0.000000       15.9990           
   19154 A    4789 TIP4 H1   HW0      0.679100        1.0080           
   19155 A    4789 TIP4 H2   HW0      0.679100        1.0080           
   19156 A    4789 TIP4 BD1  LP0     -1.358200        0.0000           
   19157 A    4790 TIP4 O1   OW0      0.000000       15.9990           
   19158 A    4790 TIP4 H1   HW0      0.679100        1.0080           
   19159 A    4790 TIP4 H2   HW0      0.679100        1.0080           
   19160 A    4790 TIP4 BD1  LP0     -1.358200        0.0000           
   19161 A    4791 TIP4 O1   OW0      0.000000       15.9990           
   19162 A    4791 TIP4 H1   HW0      0.679100        1.0080           
   19163 A    4791 TIP4 H2   HW0      0.679100        1.0080           
   19164 A    4791 TIP4 BD1  LP0     -1.358200        0.0000           
   19165 A    4792 TIP4 O1   OW0      0.000000       15.9990           
   19166 A    4792 TIP4 H1   HW0      0.679100        1.0080           
   19167 A    4792 TIP4 H2   HW0      0.679100        1.0080           
   19168 A    4792 TIP4 BD1  LP0     -1.358200        0.0000           
   19169 A    4793 TIP4 O1   OW0      0.000000       15.9990           
   19170 A    4793 TIP4 H1   HW0      0.679100        1.0080           
   19171 A    4793 TIP4 H2   HW0      0.679100        1.0080           
   19172 A    4793 TIP4 BD1  LP0     -1.358200        0.0000           
   19173 A    4794 TIP4 O1   OW0      0.000000       15.9990           
   19174 A    4794 TIP4 H1   HW0      0.679100        1.0080           
   19175 A    4794 TIP4 H2   HW0      0.679100        1.0080           
   19176 A    4794 TIP4 BD1  LP0     -1.358200        0.0000           
   19177 A    4795 TIP4 O1   OW0      0.000000       15.9990           
   19178 A    4795 TIP4 H1   HW0      0.679100        1.0080           
   19179 A    4795 TIP4 H2   HW0      0.679100        1.0080           
   19180 A    4795 TIP4 BD1  LP0     -1.358200        0.0000           
   19181 A    4796 TIP4 O1   OW0      0.000000       15.9990           
   19182 A    4796 TIP4 H1   HW0      0.679100        1.0080           
   19183 A    4796 TIP4 H2   HW0      0.679100        1.0080           
   19184 A    4796 TIP4 BD1  LP0     -1.358200        0.0000           
   19185 A    4797 TIP4 O1   OW0      0.000000       15.9990           
   19186 A    4797 TIP4 H1   HW0      0.679100        1.0080           
   19187 A    4797 TIP4 H2   HW0      0.679100        1.0080           
   19188 A    4797 TIP4 BD1  LP0     -1.358200        0.0000           
   19189 A    4798 TIP4 O1   OW0      0.000000       15.9990           
   19190 A    4798 TIP4 H1   HW0      0.679100        1.0080           
   19191 A    4798 TIP4 H2   HW0      0.679100        1.0080           
   19192 A    4798 TIP4 BD1  LP0     -1.358200        0.0000           
   19193 A    4799 TIP4 O1   OW0      0.000000       15.9990           
   19194 A    4799 TIP4 H1   HW0      0.679100        1.0080           
   19195 A    4799 TIP4 H2   HW0      0.679100        1.0080           
   19196 A    4799 TIP4 BD1  LP0     -1.358200        0.0000           
   19197 A    4800 TIP4 O1   OW0      0.000000       15.9990           
   19198 A    4800 TIP4 H1   HW0      0.679100        1.0080           
   19199 A    4800 TIP4 H2   HW0      0.679100        1.0080           
   19200 A    4800 TIP4 BD1  LP0     -1.358200        0.0000           
   19201 A    4801 TIP4 O1   OW0      0.000000       15.9990           
   19202 A    4801 TIP4 H1   HW0      0.679100        1.0080           
   19203 A    4801 TIP4 H2   HW0      0.679100        1.0080           
   19204 A    4801 TIP4 BD1  LP0     -1.358200        0.0000           
   19205 A    4802 TIP4 O1   OW0      0.000000       15.9990           
   19206 A    4802 TIP4 H1   HW0      0.679100        1.0080           
   19207 A    4802 TIP4 H2   HW0      0.679100        1.0080           
   19208 A    4802 TIP4 BD1  LP0     -1.358200        0.0000           
   19209 A    4803 TIP4 O1   OW0      0.000000       15.9990           
   19210 A    4803 TIP4 H1   HW0      0.679100        1.0080           
   19211 A    4803 TIP4 H2   HW0      0.679100        1.0080           
   19212 A    4803 TIP4 BD1  LP0     -1.358200        0.0000           
   19213 A    4804 TIP4 O1   OW0      0.000000       15.9990           
   19214 A    4804 TIP4 H1   HW0      0.679100        1.0080           
   19215 A    4804 TIP4 H2   HW0      0.679100        1.0080           
   19216 A    4804 TIP4 BD1  LP0     -1.358200        0.0000           
   19217 A    4805 TIP4 O1   OW0      0.000000       15.9990           
   19218 A    4805 TIP4 H1   HW0      0.679100        1.0080           
   19219 A    4805 TIP4 H2   HW0      0.679100        1.0080           
   19220 A    4805 TIP4 BD1  LP0     -1.358200        0.0000           
   19221 A    4806 TIP4 O1   OW0      0.000000       15.9990           
   19222 A    4806 TIP4 H1   HW0      0.679100        1.0080           
   19223 A    4806 TIP4 H2   HW0      0.679100        1.0080           
   19224 A    4806 TIP4 BD1  LP0     -1.358200        0.0000           
   19225 A    4807 TIP4 O1   OW0      0.000000       15.9990           
   19226 A    4807 TIP4 H1   HW0      0.679100        1.0080           
   19227 A    4807 TIP4 H2   HW0      0.679100        1.0080           
   19228 A    4807 TIP4 BD1  LP0     -1.358200        0.0000           
   19229 A    4808 TIP4 O1   OW0      0.000000       15.9990           
   19230 A    4808 TIP4 H1   HW0      0.679100        1.0080           
   19231 A    4808 TIP4 H2   HW0      0.679100        1.0080           
   19232 A    4808 TIP4 BD1  LP0     -1.358200        0.0000           
   19233 A    4809 TIP4 O1   OW0      0.000000       15.9990           
   19234 A    4809 TIP4 H1   HW0      0.679100        1.0080           
   19235 A    4809 TIP4 H2   HW0      0.679100        1.0080           
   19236 A    4809 TIP4 BD1  LP0     -1.358200        0.0000           
   19237 A    4810 TIP4 O1   OW0      0.000000       15.9990           
   19238 A    4810 TIP4 H1   HW0      0.679100        1.0080           
   19239 A    4810 TIP4 H2   HW0      0.679100        1.0080           
   19240 A    4810 TIP4 BD1  LP0     -1.358200        0.0000           
   19241 A    4811 TIP4 O1   OW0      0.000000       15.9990           
   19242 A    4811 TIP4 H1   HW0      0.679100        1.0080           
   19243 A    4811 TIP4 H2   HW0      0.679100        1.0080           
   19244 A    4811 TIP4 BD1  LP0     -1.358200        0.0000           
   19245 A    4812 TIP4 O1   OW0      0.000000       15.9990           
   19246 A    4812 TIP4 H1   HW0      0.679100        1.0080           
   19247 A    4812 TIP4 H2   HW0      0.679100        1.0080           
   19248 A    4812 TIP4 BD1  LP0     -1.358200        0.0000           
   19249 A    4813 TIP4 O1   OW0      0.000000       15.9990           
   19250 A    4813 TIP4 H1   HW0      0.679100        1.0080           
   19251 A    4813 TIP4 H2   HW0      0.679100        1.0080           
   19252 A    4813 TIP4 BD1  LP0     -1.358200        0.0000           
   19253 A    4814 TIP4 O1   OW0      0.000000       15.9990           
   19254 A    4814 TIP4 H1   HW0      0.679100        1.0080           
   19255 A    4814 TIP4 H2   HW0      0.679100        1.0080           
   19256 A    4814 TIP4 BD1  LP0     -1.358200        0.0000           
   19257 A    4815 TIP4 O1   OW0      0.000000       15.9990           
   19258 A    4815 TIP4 H1   HW0      0.679100        1.0080           
   19259 A    4815 TIP4 H2   HW0      0.679100        1.0080           
   19260 A    4815 TIP4 BD1  LP0     -1.358200        0.0000           
   19261 A    4816 TIP4 O1   OW0      0.000000       15.9990           
   19262 A    4816 TIP4 H1   HW0      0.679100        1.0080           
   19263 A    4816 TIP4 H2   HW0      0.679100        1.0080           
   19264 A    4816 TIP4 BD1  LP0     -1.358200        0.0000           
   19265 A    4817 TIP4 O1   OW0      0.000000       15.9990           
   19266 A    4817 TIP4 H1   HW0      0.679100        1.0080           
   19267 A    4817 TIP4 H2   HW0      0.679100        1.0080           
   19268 A    4817 TIP4 BD1  LP0     -1.358200        0.0000           
   19269 A    4818 TIP4 O1   OW0      0.000000       15.9990           
   19270 A    4818 TIP4 H1   HW0      0.679100        1.0080           
   19271 A    4818 TIP4 H2   HW0      0.679100        1.0080           
   19272 A    4818 TIP4 BD1  LP0     -1.358200        0.0000           
   19273 A    4819 TIP4 O1   OW0      0.000000       15.9990           
   19274 A    4819 TIP4 H1   HW0      0.679100        1.0080           
   19275 A    4819 TIP4 H2   HW0      0.679100        1.0080           
   19276 A    4819 TIP4 BD1  LP0     -1.358200        0.0000           
   19277 A    4820 TIP4 O1   OW0      0.000000       15.9990           
   19278 A    4820 TIP4 H1   HW0      0.679100        1.0080           
   19279 A    4820 TIP4 H2   HW0      0.679100        1.0080           
   19280 A    4820 TIP4 BD1  LP0     -1.358200        0.0000           
   19281 A    4821 TIP4 O1   OW0      0.000000       15.9990           
   19282 A    4821 TIP4 H1   HW0      0.679100        1.0080           
   19283 A    4821 TIP4 H2   HW0      0.679100        1.0080           
   19284 A    4821 TIP4 BD1  LP0     -1.358200        0.0000           
   19285 A    4822 TIP4 O1   OW0      0.000000       15.9990           
   19286 A    4822 TIP4 H1   HW0      0.679100        1.0080           
   19287 A    4822 TIP4 H2   HW0      0.679100        1.0080           
   19288 A    4822 TIP4 BD1  LP0     -1.358200        0.0000           
   19289 A    4823 TIP4 O1   OW0      0.000000       15.9990           
   19290 A    4823 TIP4 H1   HW0      0.679100        1.0080           
   19291 A    4823 TIP4 H2   HW0      0.679100        1.0080           
   19292 A    4823 TIP4 BD1  LP0     -1.358200        0.0000           
   19293 A    4824 TIP4 O1   OW0      0.000000       15.9990           
   19294 A    4824 TIP4 H1   HW0      0.679100        1.0080           
   19295 A    4824 TIP4 H2   HW0      0.679100        1.0080           
   19296 A    4824 TIP4 BD1  LP0     -1.358200        0.0000           
   19297 A    4825 TIP4 O1   OW0      0.000000       15.9990           
   19298 A    4825 TIP4 H1   HW0      0.679100        1.0080           
   19299 A    4825 TIP4 H2   HW0      0.679100        1.0080           
   19300 A    4825 TIP4 BD1  LP0     -1.358200        0.0000           
   19301 A    4826 TIP4 O1   OW0      0.000000       15.9990           
   19302 A    4826 TIP4 H1   HW0      0.679100        1.0080           
   19303 A    4826 TIP4 H2   HW0      0.679100        1.0080           
   19304 A    4826 TIP4 BD1  LP0     -1.358200        0.0000           
   19305 A    4827 TIP4 O1   OW0      0.000000       15.9990           
   19306 A    4827 TIP4 H1   HW0      0.679100        1.0080           
   19307 A    4827 TIP4 H2   HW0      0.679100        1.0080           
   19308 A    4827 TIP4 BD1  LP0     -1.358200        0.0000           
   19309 A    4828 TIP4 O1   OW0      0.000000       15.9990           
   19310 A    4828 TIP4 H1   HW0      0.679100        1.0080           
   19311 A    4828 TIP4 H2   HW0      0.679100        1.0080           
   19312 A    4828 TIP4 BD1  LP0     -1.358200        0.0000           
   19313 A    4829 TIP4 O1   OW0      0.000000       15.9990           
   19314 A    4829 TIP4 H1   HW0      0.679100        1.0080           
   19315 A    4829 TIP4 H2   HW0      0.679100        1.0080           
   19316 A    4829 TIP4 BD1  LP0     -1.358200        0.0000           
   19317 A    4830 TIP4 O1   OW0      0.000000       15.9990           
   19318 A    4830 TIP4 H1   HW0      0.679100        1.0080           
   19319 A    4830 TIP4 H2   HW0      0.679100        1.0080           
   19320 A    4830 TIP4 BD1  LP0     -1.358200        0.0000           
   19321 A    4831 TIP4 O1   OW0      0.000000       15.9990           
   19322 A    4831 TIP4 H1   HW0      0.679100        1.0080           
   19323 A    4831 TIP4 H2   HW0      0.679100        1.0080           
   19324 A    4831 TIP4 BD1  LP0     -1.358200        0.0000           
   19325 A    4832 TIP4 O1   OW0      0.000000       15.9990           
   19326 A    4832 TIP4 H1   HW0      0.679100        1.0080           
   19327 A    4832 TIP4 H2   HW0      0.679100        1.0080           
   19328 A    4832 TIP4 BD1  LP0     -1.358200        0.0000           
   19329 A    4833 TIP4 O1   OW0      0.000000       15.9990           
   19330 A    4833 TIP4 H1   HW0      0.679100        1.0080           
   19331 A    4833 TIP4 H2   HW0      0.679100        1.0080           
   19332 A    4833 TIP4 BD1  LP0     -1.358200        0.0000           
   19333 A    4834 TIP4 O1   OW0      0.000000       15.9990           
   19334 A    4834 TIP4 H1   HW0      0.679100        1.0080           
   19335 A    4834 TIP4 H2   HW0      0.679100        1.0080           
   19336 A    4834 TIP4 BD1  LP0     -1.358200        0.0000           
   19337 A    4835 TIP4 O1   OW0      0.000000       15.9990           
   19338 A    4835 TIP4 H1   HW0      0.679100        1.0080           
   19339 A    4835 TIP4 H2   HW0      0.679100        1.0080           
   19340 A    4835 TIP4 BD1  LP0     -1.358200        0.0000           
   19341 A    4836 TIP4 O1   OW0      0.000000       15.9990           
   19342 A    4836 TIP4 H1   HW0      0.679100        1.0080           
   19343 A    4836 TIP4 H2   HW0      0.679100        1.0080           
   19344 A    4836 TIP4 BD1  LP0     -1.358200        0.0000           
   19345 A    4837 TIP4 O1   OW0      0.000000       15.9990           
   19346 A    4837 TIP4 H1   HW0      0.679100        1.0080           
   19347 A    4837 TIP4 H2   HW0      0.679100        1.0080           
   19348 A    4837 TIP4 BD1  LP0     -1.358200        0.0000           
   19349 A    4838 TIP4 O1   OW0      0.000000       15.9990           
   19350 A    4838 TIP4 H1   HW0      0.679100        1.0080           
   19351 A    4838 TIP4 H2   HW0      0.679100        1.0080           
   19352 A    4838 TIP4 BD1  LP0     -1.358200        0.0000           
   19353 A    4839 TIP4 O1   OW0      0.000000       15.9990           
   19354 A    4839 TIP4 H1   HW0      0.679100        1.0080           
   19355 A    4839 TIP4 H2   HW0      0.679100        1.0080           
   19356 A    4839 TIP4 BD1  LP0     -1.358200        0.0000           
   19357 A    4840 TIP4 O1   OW0      0.000000       15.9990           
   19358 A    4840 TIP4 H1   HW0      0.679100        1.0080           
   19359 A    4840 TIP4 H2   HW0      0.679100        1.0080           
   19360 A    4840 TIP4 BD1  LP0     -1.358200        0.0000           
   19361 A    4841 TIP4 O1   OW0      0.000000       15.9990           
   19362 A    4841 TIP4 H1   HW0      0.679100        1.0080           
   19363 A    4841 TIP4 H2   HW0      0.679100        1.0080           
   19364 A    4841 TIP4 BD1  LP0     -1.358200        0.0000           
   19365 A    4842 TIP4 O1   OW0      0.000000       15.9990           
   19366 A    4842 TIP4 H1   HW0      0.679100        1.0080           
   19367 A    4842 TIP4 H2   HW0      0.679100        1.0080           
   19368 A    4842 TIP4 BD1  LP0     -1.358200        0.0000           
   19369 A    4843 TIP4 O1   OW0      0.000000       15.9990           
   19370 A    4843 TIP4 H1   HW0      0.679100        1.0080           
   19371 A    4843 TIP4 H2   HW0      0.679100        1.0080           
   19372 A    4843 TIP4 BD1  LP0     -1.358200        0.0000           
   19373 A    4844 TIP4 O1   OW0      0.000000       15.9990           
   19374 A    4844 TIP4 H1   HW0      0.679100        1.0080           
   19375 A    4844 TIP4 H2   HW0      0.679100        1.0080           
   19376 A    4844 TIP4 BD1  LP0     -1.358200        0.0000           
   19377 A    4845 TIP4 O1   OW0      0.000000       15.9990           
   19378 A    4845 TIP4 H1   HW0      0.679100        1.0080           
   19379 A    4845 TIP4 H2   HW0      0.679100        1.0080           
   19380 A    4845 TIP4 BD1  LP0     -1.358200        0.0000           
   19381 A    4846 TIP4 O1   OW0      0.000000       15.9990           
   19382 A    4846 TIP4 H1   HW0      0.679100        1.0080           
   19383 A    4846 TIP4 H2   HW0      0.679100        1.0080           
   19384 A    4846 TIP4 BD1  LP0     -1.358200        0.0000           
   19385 A    4847 TIP4 O1   OW0      0.000000       15.9990           
   19386 A    4847 TIP4 H1   HW0      0.679100        1.0080           
   19387 A    4847 TIP4 H2   HW0      0.679100        1.0080           
   19388 A    4847 TIP4 BD1  LP0     -1.358200        0.0000           
   19389 A    4848 TIP4 O1   OW0      0.000000       15.9990           
   19390 A    4848 TIP4 H1   HW0      0.679100        1.0080           
   19391 A    4848 TIP4 H2   HW0      0.679100        1.0080           
   19392 A    4848 TIP4 BD1  LP0     -1.358200        0.0000           
   19393 A    4849 TIP4 O1   OW0      0.000000       15.9990           
   19394 A    4849 TIP4 H1   HW0      0.679100        1.0080           
   19395 A    4849 TIP4 H2   HW0      0.679100        1.0080           
   19396 A    4849 TIP4 BD1  LP0     -1.358200        0.0000           
   19397 A    4850 TIP4 O1   OW0      0.000000       15.9990           
   19398 A    4850 TIP4 H1   HW0      0.679100        1.0080           
   19399 A    4850 TIP4 H2   HW0      0.679100        1.0080           
   19400 A    4850 TIP4 BD1  LP0     -1.358200        0.0000           
   19401 A    4851 TIP4 O1   OW0      0.000000       15.9990           
   19402 A    4851 TIP4 H1   HW0      0.679100        1.0080           
   19403 A    4851 TIP4 H2   HW0      0.679100        1.0080           
   19404 A    4851 TIP4 BD1  LP0     -1.358200        0.0000           
   19405 A    4852 TIP4 O1   OW0      0.000000       15.9990           
   19406 A    4852 TIP4 H1   HW0      0.679100        1.0080           
   19407 A    4852 TIP4 H2   HW0      0.679100        1.0080           
   19408 A    4852 TIP4 BD1  LP0     -1.358200        0.0000           
   19409 A    4853 TIP4 O1   OW0      0.000000       15.9990           
   19410 A    4853 TIP4 H1   HW0      0.679100        1.0080           
   19411 A    4853 TIP4 H2   HW0      0.679100        1.0080           
   19412 A    4853 TIP4 BD1  LP0     -1.358200        0.0000           
   19413 A    4854 TIP4 O1   OW0      0.000000       15.9990           
   19414 A    4854 TIP4 H1   HW0      0.679100        1.0080           
   19415 A    4854 TIP4 H2   HW0      0.679100        1.0080           
   19416 A    4854 TIP4 BD1  LP0     -1.358200        0.0000           
   19417 A    4855 TIP4 O1   OW0      0.000000       15.9990           
   19418 A    4855 TIP4 H1   HW0      0.679100        1.0080           
   19419 A    4855 TIP4 H2   HW0      0.679100        1.0080           
   19420 A    4855 TIP4 BD1  LP0     -1.358200        0.0000           
   19421 A    4856 TIP4 O1   OW0      0.000000       15.9990           
   19422 A    4856 TIP4 H1   HW0      0.679100        1.0080           
   19423 A    4856 TIP4 H2   HW0      0.679100        1.0080           
   19424 A    4856 TIP4 BD1  LP0     -1.358200        0.0000           
   19425 A    4857 TIP4 O1   OW0      0.000000       15.9990           
   19426 A    4857 TIP4 H1   HW0      0.679100        1.0080           
   19427 A    4857 TIP4 H2   HW0      0.679100        1.0080           
   19428 A    4857 TIP4 BD1  LP0     -1.358200        0.0000           
   19429 A    4858 TIP4 O1   OW0      0.000000       15.9990           
   19430 A    4858 TIP4 H1   HW0      0.679100        1.0080           
   19431 A    4858 TIP4 H2   HW0      0.679100        1.0080           
   19432 A    4858 TIP4 BD1  LP0     -1.358200        0.0000           
   19433 A    4859 TIP4 O1   OW0      0.000000       15.9990           
   19434 A    4859 TIP4 H1   HW0      0.679100        1.0080           
   19435 A    4859 TIP4 H2   HW0      0.679100        1.0080           
   19436 A    4859 TIP4 BD1  LP0     -1.358200        0.0000           
   19437 A    4860 TIP4 O1   OW0      0.000000       15.9990           
   19438 A    4860 TIP4 H1   HW0      0.679100        1.0080           
   19439 A    4860 TIP4 H2   HW0      0.679100        1.0080           
   19440 A    4860 TIP4 BD1  LP0     -1.358200        0.0000           
   19441 A    4861 TIP4 O1   OW0      0.000000       15.9990           
   19442 A    4861 TIP4 H1   HW0      0.679100        1.0080           
   19443 A    4861 TIP4 H2   HW0      0.679100        1.0080           
   19444 A    4861 TIP4 BD1  LP0     -1.358200        0.0000           
   19445 A    4862 TIP4 O1   OW0      0.000000       15.9990           
   19446 A    4862 TIP4 H1   HW0      0.679100        1.0080           
   19447 A    4862 TIP4 H2   HW0      0.679100        1.0080           
   19448 A    4862 TIP4 BD1  LP0     -1.358200        0.0000           
   19449 A    4863 TIP4 O1   OW0      0.000000       15.9990           
   19450 A    4863 TIP4 H1   HW0      0.679100        1.0080           
   19451 A    4863 TIP4 H2   HW0      0.679100        1.0080           
   19452 A    4863 TIP4 BD1  LP0     -1.358200        0.0000           
   19453 A    4864 TIP4 O1   OW0      0.000000       15.9990           
   19454 A    4864 TIP4 H1   HW0      0.679100        1.0080           
   19455 A    4864 TIP4 H2   HW0      0.679100        1.0080           
   19456 A    4864 TIP4 BD1  LP0     -1.358200        0.0000           
   19457 A    4865 TIP4 O1   OW0      0.000000       15.9990           
   19458 A    4865 TIP4 H1   HW0      0.679100        1.0080           
   19459 A    4865 TIP4 H2   HW0      0.679100        1.0080           
   19460 A    4865 TIP4 BD1  LP0     -1.358200        0.0000           
   19461 A    4866 TIP4 O1   OW0      0.000000       15.9990           
   19462 A    4866 TIP4 H1   HW0      0.679100        1.0080           
   19463 A    4866 TIP4 H2   HW0      0.679100        1.0080           
   19464 A    4866 TIP4 BD1  LP0     -1.358200        0.0000           
   19465 A    4867 TIP4 O1   OW0      0.000000       15.9990           
   19466 A    4867 TIP4 H1   HW0      0.679100        1.0080           
   19467 A    4867 TIP4 H2   HW0      0.679100        1.0080           
   19468 A    4867 TIP4 BD1  LP0     -1.358200        0.0000           
   19469 A    4868 TIP4 O1   OW0      0.000000       15.9990           
   19470 A    4868 TIP4 H1   HW0      0.679100        1.0080           
   19471 A    4868 TIP4 H2   HW0      0.679100        1.0080           
   19472 A    4868 TIP4 BD1  LP0     -1.358200        0.0000           
   19473 A    4869 TIP4 O1   OW0      0.000000       15.9990           
   19474 A    4869 TIP4 H1   HW0      0.679100        1.0080           
   19475 A    4869 TIP4 H2   HW0      0.679100        1.0080           
   19476 A    4869 TIP4 BD1  LP0     -1.358200        0.0000           
   19477 A    4870 TIP4 O1   OW0      0.000000       15.9990           
   19478 A    4870 TIP4 H1   HW0      0.679100        1.0080           
   19479 A    4870 TIP4 H2   HW0      0.679100        1.0080           
   19480 A    4870 TIP4 BD1  LP0     -1.358200        0.0000           
   19481 A    4871 TIP4 O1   OW0      0.000000       15.9990           
   19482 A    4871 TIP4 H1   HW0      0.679100        1.0080           
   19483 A    4871 TIP4 H2   HW0      0.679100        1.0080           
   19484 A    4871 TIP4 BD1  LP0     -1.358200        0.0000           
   19485 A    4872 TIP4 O1   OW0      0.000000       15.9990           
   19486 A    4872 TIP4 H1   HW0      0.679100        1.0080           
   19487 A    4872 TIP4 H2   HW0      0.679100        1.0080           
   19488 A    4872 TIP4 BD1  LP0     -1.358200        0.0000           
   19489 A    4873 TIP4 O1   OW0      0.000000       15.9990           
   19490 A    4873 TIP4 H1   HW0      0.679100        1.0080           
   19491 A    4873 TIP4 H2   HW0      0.679100        1.0080           
   19492 A    4873 TIP4 BD1  LP0     -1.358200        0.0000           
   19493 A    4874 TIP4 O1   OW0      0.000000       15.9990           
   19494 A    4874 TIP4 H1   HW0      0.679100        1.0080           
   19495 A    4874 TIP4 H2   HW0      0.679100        1.0080           
   19496 A    4874 TIP4 BD1  LP0     -1.358200        0.0000           
   19497 A    4875 TIP4 O1   OW0      0.000000       15.9990           
   19498 A    4875 TIP4 H1   HW0      0.679100        1.0080           
   19499 A    4875 TIP4 H2   HW0      0.679100        1.0080           
   19500 A    4875 TIP4 BD1  LP0     -1.358200        0.0000           
   19501 A    4876 TIP4 O1   OW0      0.000000       15.9990           
   19502 A    4876 TIP4 H1   HW0      0.679100        1.0080           
   19503 A    4876 TIP4 H2   HW0      0.679100        1.0080           
   19504 A    4876 TIP4 BD1  LP0     -1.358200        0.0000           
   19505 A    4877 TIP4 O1   OW0      0.000000       15.9990           
   19506 A    4877 TIP4 H1   HW0      0.679100        1.0080           
   19507 A    4877 TIP4 H2   HW0      0.679100        1.0080           
   19508 A    4877 TIP4 BD1  LP0     -1.358200        0.0000           
   19509 A    4878 TIP4 O1   OW0      0.000000       15.9990           
   19510 A    4878 TIP4 H1   HW0      0.679100        1.0080           
   19511 A    4878 TIP4 H2   HW0      0.679100        1.0080           
   19512 A    4878 TIP4 BD1  LP0     -1.358200        0.0000           
   19513 A    4879 TIP4 O1   OW0      0.000000       15.9990           
   19514 A    4879 TIP4 H1   HW0      0.679100        1.0080           
   19515 A    4879 TIP4 H2   HW0      0.679100        1.0080           
   19516 A    4879 TIP4 BD1  LP0     -1.358200        0.0000           
   19517 A    4880 TIP4 O1   OW0      0.000000       15.9990           
   19518 A    4880 TIP4 H1   HW0      0.679100        1.0080           
   19519 A    4880 TIP4 H2   HW0      0.679100        1.0080           
   19520 A    4880 TIP4 BD1  LP0     -1.358200        0.0000           
   19521 A    4881 TIP4 O1   OW0      0.000000       15.9990           
   19522 A    4881 TIP4 H1   HW0      0.679100        1.0080           
   19523 A    4881 TIP4 H2   HW0      0.679100        1.0080           
   19524 A    4881 TIP4 BD1  LP0     -1.358200        0.0000           
   19525 A    4882 TIP4 O1   OW0      0.000000       15.9990           
   19526 A    4882 TIP4 H1   HW0      0.679100        1.0080           
   19527 A    4882 TIP4 H2   HW0      0.679100        1.0080           
   19528 A    4882 TIP4 BD1  LP0     -1.358200        0.0000           
   19529 A    4883 TIP4 O1   OW0      0.000000       15.9990           
   19530 A    4883 TIP4 H1   HW0      0.679100        1.0080           
   19531 A    4883 TIP4 H2   HW0      0.679100        1.0080           
   19532 A    4883 TIP4 BD1  LP0     -1.358200        0.0000           
   19533 A    4884 TIP4 O1   OW0      0.000000       15.9990           
   19534 A    4884 TIP4 H1   HW0      0.679100        1.0080           
   19535 A    4884 TIP4 H2   HW0      0.679100        1.0080           
   19536 A    4884 TIP4 BD1  LP0     -1.358200        0.0000           
   19537 A    4885 TIP4 O1   OW0      0.000000       15.9990           
   19538 A    4885 TIP4 H1   HW0      0.679100        1.0080           
   19539 A    4885 TIP4 H2   HW0      0.679100        1.0080           
   19540 A    4885 TIP4 BD1  LP0     -1.358200        0.0000           
   19541 A    4886 TIP4 O1   OW0      0.000000       15.9990           
   19542 A    4886 TIP4 H1   HW0      0.679100        1.0080           
   19543 A    4886 TIP4 H2   HW0      0.679100        1.0080           
   19544 A    4886 TIP4 BD1  LP0     -1.358200        0.0000           
   19545 A    4887 TIP4 O1   OW0      0.000000       15.9990           
   19546 A    4887 TIP4 H1   HW0      0.679100        1.0080           
   19547 A    4887 TIP4 H2   HW0      0.679100        1.0080           
   19548 A    4887 TIP4 BD1  LP0     -1.358200        0.0000           
   19549 A    4888 TIP4 O1   OW0      0.000000       15.9990           
   19550 A    4888 TIP4 H1   HW0      0.679100        1.0080           
   19551 A    4888 TIP4 H2   HW0      0.679100        1.0080           
   19552 A    4888 TIP4 BD1  LP0     -1.358200        0.0000           
   19553 A    4889 TIP4 O1   OW0      0.000000       15.9990           
   19554 A    4889 TIP4 H1   HW0      0.679100        1.0080           
   19555 A    4889 TIP4 H2   HW0      0.679100        1.0080           
   19556 A    4889 TIP4 BD1  LP0     -1.358200        0.0000           
   19557 A    4890 TIP4 O1   OW0      0.000000       15.9990           
   19558 A    4890 TIP4 H1   HW0      0.679100        1.0080           
   19559 A    4890 TIP4 H2   HW0      0.679100        1.0080           
   19560 A    4890 TIP4 BD1  LP0     -1.358200        0.0000           
   19561 A    4891 TIP4 O1   OW0      0.000000       15.9990           
   19562 A    4891 TIP4 H1   HW0      0.679100        1.0080           
   19563 A    4891 TIP4 H2   HW0      0.679100        1.0080           
   19564 A    4891 TIP4 BD1  LP0     -1.358200        0.0000           
   19565 A    4892 TIP4 O1   OW0      0.000000       15.9990           
   19566 A    4892 TIP4 H1   HW0      0.679100        1.0080           
   19567 A    4892 TIP4 H2   HW0      0.679100        1.0080           
   19568 A    4892 TIP4 BD1  LP0     -1.358200        0.0000           
   19569 A    4893 TIP4 O1   OW0      0.000000       15.9990           
   19570 A    4893 TIP4 H1   HW0      0.679100        1.0080           
   19571 A    4893 TIP4 H2   HW0      0.679100        1.0080           
   19572 A    4893 TIP4 BD1  LP0     -1.358200        0.0000           
   19573 A    4894 TIP4 O1   OW0      0.000000       15.9990           
   19574 A    4894 TIP4 H1   HW0      0.679100        1.0080           
   19575 A    4894 TIP4 H2   HW0      0.679100        1.0080           
   19576 A    4894 TIP4 BD1  LP0     -1.358200        0.0000           
   19577 A    4895 TIP4 O1   OW0      0.000000       15.9990           
   19578 A    4895 TIP4 H1   HW0      0.679100        1.0080           
   19579 A    4895 TIP4 H2   HW0      0.679100        1.0080           
   19580 A    4895 TIP4 BD1  LP0     -1.358200        0.0000           
   19581 A    4896 TIP4 O1   OW0      0.000000       15.9990           
   19582 A    4896 TIP4 H1   HW0      0.679100        1.0080           
   19583 A    4896 TIP4 H2   HW0      0.679100        1.0080           
   19584 A    4896 TIP4 BD1  LP0     -1.358200        0.0000           
   19585 A    4897 TIP4 O1   OW0      0.000000       15.9990           
   19586 A    4897 TIP4 H1   HW0      0.679100        1.0080           
   19587 A    4897 TIP4 H2   HW0      0.679100        1.0080           
   19588 A    4897 TIP4 BD1  LP0     -1.358200        0.0000           
   19589 A    4898 TIP4 O1   OW0      0.000000       15.9990           
   19590 A    4898 TIP4 H1   HW0      0.679100        1.0080           
   19591 A    4898 TIP4 H2   HW0      0.679100        1.0080           
   19592 A    4898 TIP4 BD1  LP0     -1.358200        0.0000           
   19593 A    4899 TIP4 O1   OW0      0.000000       15.9990           
   19594 A    4899 TIP4 H1   HW0      0.679100        1.0080           
   19595 A    4899 TIP4 H2   HW0      0.679100        1.0080           
   19596 A    4899 TIP4 BD1  LP0     -1.358200        0.0000           
   19597 A    4900 TIP4 O1   OW0      0.000000       15.9990           
   19598 A    4900 TIP4 H1   HW0      0.679100        1.0080           
   19599 A    4900 TIP4 H2   HW0      0.679100        1.0080           
   19600 A    4900 TIP4 BD1  LP0     -1.358200        0.0000           
   19601 A    4901 TIP4 O1   OW0      0.000000       15.9990           
   19602 A    4901 TIP4 H1   HW0      0.679100        1.0080           
   19603 A    4901 TIP4 H2   HW0      0.679100        1.0080           
   19604 A    4901 TIP4 BD1  LP0     -1.358200        0.0000           
   19605 A    4902 TIP4 O1   OW0      0.000000       15.9990           
   19606 A    4902 TIP4 H1   HW0      0.679100        1.0080           
   19607 A    4902 TIP4 H2   HW0      0.679100        1.0080           
   19608 A    4902 TIP4 BD1  LP0     -1.358200        0.0000           
   19609 A    4903 TIP4 O1   OW0      0.000000       15.9990           
   19610 A    4903 TIP4 H1   HW0      0.679100        1.0080           
   19611 A    4903 TIP4 H2   HW0      0.679100        1.0080           
   19612 A    4903 TIP4 BD1  LP0     -1.358200        0.0000           
   19613 A    4904 TIP4 O1   OW0      0.000000       15.9990           
   19614 A    4904 TIP4 H1   HW0      0.679100        1.0080           
   19615 A    4904 TIP4 H2   HW0      0.679100        1.0080           
   19616 A    4904 TIP4 BD1  LP0     -1.358200        0.0000           
   19617 A    4905 TIP4 O1   OW0      0.000000       15.9990           
   19618 A    4905 TIP4 H1   HW0      0.679100        1.0080           
   19619 A    4905 TIP4 H2   HW0      0.679100        1.0080           
   19620 A    4905 TIP4 BD1  LP0     -1.358200        0.0000           
   19621 A    4906 TIP4 O1   OW0      0.000000       15.9990           
   19622 A    4906 TIP4 H1   HW0      0.679100        1.0080           
   19623 A    4906 TIP4 H2   HW0      0.679100        1.0080           
   19624 A    4906 TIP4 BD1  LP0     -1.358200        0.0000           
   19625 A    4907 TIP4 O1   OW0      0.000000       15.9990           
   19626 A    4907 TIP4 H1   HW0      0.679100        1.0080           
   19627 A    4907 TIP4 H2   HW0      0.679100        1.0080           
   19628 A    4907 TIP4 BD1  LP0     -1.358200        0.0000           
   19629 A    4908 TIP4 O1   OW0      0.000000       15.9990           
   19630 A    4908 TIP4 H1   HW0      0.679100        1.0080           
   19631 A    4908 TIP4 H2   HW0      0.679100        1.0080           
   19632 A    4908 TIP4 BD1  LP0     -1.358200        0.0000           
   19633 A    4909 TIP4 O1   OW0      0.000000       15.9990           
   19634 A    4909 TIP4 H1   HW0      0.679100        1.0080           
   19635 A    4909 TIP4 H2   HW0      0.679100        1.0080           
   19636 A    4909 TIP4 BD1  LP0     -1.358200        0.0000           
   19637 A    4910 TIP4 O1   OW0      0.000000       15.9990           
   19638 A    4910 TIP4 H1   HW0      0.679100        1.0080           
   19639 A    4910 TIP4 H2   HW0      0.679100        1.0080           
   19640 A    4910 TIP4 BD1  LP0     -1.358200        0.0000           
   19641 A    4911 TIP4 O1   OW0      0.000000       15.9990           
   19642 A    4911 TIP4 H1   HW0      0.679100        1.0080           
   19643 A    4911 TIP4 H2   HW0      0.679100        1.0080           
   19644 A    4911 TIP4 BD1  LP0     -1.358200        0.0000           
   19645 A    4912 TIP4 O1   OW0      0.000000       15.9990           
   19646 A    4912 TIP4 H1   HW0      0.679100        1.0080           
   19647 A    4912 TIP4 H2   HW0      0.679100        1.0080           
   19648 A    4912 TIP4 BD1  LP0     -1.358200        0.0000           
   19649 A    4913 TIP4 O1   OW0      0.000000       15.9990           
   19650 A    4913 TIP4 H1   HW0      0.679100        1.0080           
   19651 A    4913 TIP4 H2   HW0      0.679100        1.0080           
   19652 A    4913 TIP4 BD1  LP0     -1.358200        0.0000           
   19653 A    4914 TIP4 O1   OW0      0.000000       15.9990           
   19654 A    4914 TIP4 H1   HW0      0.679100        1.0080           
   19655 A    4914 TIP4 H2   HW0      0.679100        1.0080           
   19656 A    4914 TIP4 BD1  LP0     -1.358200        0.0000           
   19657 A    4915 TIP4 O1   OW0      0.000000       15.9990           
   19658 A    4915 TIP4 H1   HW0      0.679100        1.0080           
   19659 A    4915 TIP4 H2   HW0      0.679100        1.0080           
   19660 A    4915 TIP4 BD1  LP0     -1.358200        0.0000           
   19661 A    4916 TIP4 O1   OW0      0.000000       15.9990           
   19662 A    4916 TIP4 H1   HW0      0.679100        1.0080           
   19663 A    4916 TIP4 H2   HW0      0.679100        1.0080           
   19664 A    4916 TIP4 BD1  LP0     -1.358200        0.0000           
   19665 A    4917 TIP4 O1   OW0      0.000000       15.9990           
   19666 A    4917 TIP4 H1   HW0      0.679100        1.0080           
   19667 A    4917 TIP4 H2   HW0      0.679100        1.0080           
   19668 A    4917 TIP4 BD1  LP0     -1.358200        0.0000           
   19669 A    4918 TIP4 O1   OW0      0.000000       15.9990           
   19670 A    4918 TIP4 H1   HW0      0.679100        1.0080           
   19671 A    4918 TIP4 H2   HW0      0.679100        1.0080           
   19672 A    4918 TIP4 BD1  LP0     -1.358200        0.0000           
   19673 A    4919 TIP4 O1   OW0      0.000000       15.9990           
   19674 A    4919 TIP4 H1   HW0      0.679100        1.0080           
   19675 A    4919 TIP4 H2   HW0      0.679100        1.0080           
   19676 A    4919 TIP4 BD1  LP0     -1.358200        0.0000           
   19677 A    4920 TIP4 O1   OW0      0.000000       15.9990           
   19678 A    4920 TIP4 H1   HW0      0.679100        1.0080           
   19679 A    4920 TIP4 H2   HW0      0.679100        1.0080           
   19680 A    4920 TIP4 BD1  LP0     -1.358200        0.0000           
   19681 A    4921 TIP4 O1   OW0      0.000000       15.9990           
   19682 A    4921 TIP4 H1   HW0      0.679100        1.0080           
   19683 A    4921 TIP4 H2   HW0      0.679100        1.0080           
   19684 A    4921 TIP4 BD1  LP0     -1.358200        0.0000           
   19685 A    4922 TIP4 O1   OW0      0.000000       15.9990           
   19686 A    4922 TIP4 H1   HW0      0.679100        1.0080           
   19687 A    4922 TIP4 H2   HW0      0.679100        1.0080           
   19688 A    4922 TIP4 BD1  LP0     -1.358200        0.0000           
   19689 A    4923 TIP4 O1   OW0      0.000000       15.9990           
   19690 A    4923 TIP4 H1   HW0      0.679100        1.0080           
   19691 A    4923 TIP4 H2   HW0      0.679100        1.0080           
   19692 A    4923 TIP4 BD1  LP0     -1.358200        0.0000           
   19693 A    4924 TIP4 O1   OW0      0.000000       15.9990           
   19694 A    4924 TIP4 H1   HW0      0.679100        1.0080           
   19695 A    4924 TIP4 H2   HW0      0.679100        1.0080           
   19696 A    4924 TIP4 BD1  LP0     -1.358200        0.0000           
   19697 A    4925 TIP4 O1   OW0      0.000000       15.9990           
   19698 A    4925 TIP4 H1   HW0      0.679100        1.0080           
   19699 A    4925 TIP4 H2   HW0      0.679100        1.0080           
   19700 A    4925 TIP4 BD1  LP0     -1.358200        0.0000           
   19701 A    4926 TIP4 O1   OW0      0.000000       15.9990           
   19702 A    4926 TIP4 H1   HW0      0.679100        1.0080           
   19703 A    4926 TIP4 H2   HW0      0.679100        1.0080           
   19704 A    4926 TIP4 BD1  LP0     -1.358200        0.0000           
   19705 A    4927 TIP4 O1   OW0      0.000000       15.9990           
   19706 A    4927 TIP4 H1   HW0      0.679100        1.0080           
   19707 A    4927 TIP4 H2   HW0      0.679100        1.0080           
   19708 A    4927 TIP4 BD1  LP0     -1.358200        0.0000           
   19709 A    4928 TIP4 O1   OW0      0.000000       15.9990           
   19710 A    4928 TIP4 H1   HW0      0.679100        1.0080           
   19711 A    4928 TIP4 H2   HW0      0.679100        1.0080           
   19712 A    4928 TIP4 BD1  LP0     -1.358200        0.0000           
   19713 A    4929 TIP4 O1   OW0      0.000000       15.9990           
   19714 A    4929 TIP4 H1   HW0      0.679100        1.0080           
   19715 A    4929 TIP4 H2   HW0      0.679100        1.0080           
   19716 A    4929 TIP4 BD1  LP0     -1.358200        0.0000           
   19717 A    4930 TIP4 O1   OW0      0.000000       15.9990           
   19718 A    4930 TIP4 H1   HW0      0.679100        1.0080           
   19719 A    4930 TIP4 H2   HW0      0.679100        1.0080           
   19720 A    4930 TIP4 BD1  LP0     -1.358200        0.0000           
   19721 A    4931 TIP4 O1   OW0      0.000000       15.9990           
   19722 A    4931 TIP4 H1   HW0      0.679100        1.0080           
   19723 A    4931 TIP4 H2   HW0      0.679100        1.0080           
   19724 A    4931 TIP4 BD1  LP0     -1.358200        0.0000           
   19725 A    4932 TIP4 O1   OW0      0.000000       15.9990           
   19726 A    4932 TIP4 H1   HW0      0.679100        1.0080           
   19727 A    4932 TIP4 H2   HW0      0.679100        1.0080           
   19728 A    4932 TIP4 BD1  LP0     -1.358200        0.0000           
   19729 A    4933 TIP4 O1   OW0      0.000000       15.9990           
   19730 A    4933 TIP4 H1   HW0      0.679100        1.0080           
   19731 A    4933 TIP4 H2   HW0      0.679100        1.0080           
   19732 A    4933 TIP4 BD1  LP0     -1.358200        0.0000           
   19733 A    4934 TIP4 O1   OW0      0.000000       15.9990           
   19734 A    4934 TIP4 H1   HW0      0.679100        1.0080           
   19735 A    4934 TIP4 H2   HW0      0.679100        1.0080           
   19736 A    4934 TIP4 BD1  LP0     -1.358200        0.0000           
   19737 A    4935 TIP4 O1   OW0      0.000000       15.9990           
   19738 A    4935 TIP4 H1   HW0      0.679100        1.0080           
   19739 A    4935 TIP4 H2   HW0      0.679100        1.0080           
   19740 A    4935 TIP4 BD1  LP0     -1.358200        0.0000           
   19741 A    4936 TIP4 O1   OW0      0.000000       15.9990           
   19742 A    4936 TIP4 H1   HW0      0.679100        1.0080           
   19743 A    4936 TIP4 H2   HW0      0.679100        1.0080           
   19744 A    4936 TIP4 BD1  LP0     -1.358200        0.0000           
   19745 A    4937 TIP4 O1   OW0      0.000000       15.9990           
   19746 A    4937 TIP4 H1   HW0      0.679100        1.0080           
   19747 A    4937 TIP4 H2   HW0      0.679100        1.0080           
   19748 A    4937 TIP4 BD1  LP0     -1.358200        0.0000           
   19749 A    4938 TIP4 O1   OW0      0.000000       15.9990           
   19750 A    4938 TIP4 H1   HW0      0.679100        1.0080           
   19751 A    4938 TIP4 H2   HW0      0.679100        1.0080           
   19752 A    4938 TIP4 BD1  LP0     -1.358200        0.0000           
   19753 A    4939 TIP4 O1   OW0      0.000000       15.9990           
   19754 A    4939 TIP4 H1   HW0      0.679100        1.0080           
   19755 A    4939 TIP4 H2   HW0      0.679100        1.0080           
   19756 A    4939 TIP4 BD1  LP0     -1.358200        0.0000           
   19757 A    4940 TIP4 O1   OW0      0.000000       15.9990           
   19758 A    4940 TIP4 H1   HW0      0.679100        1.0080           
   19759 A    4940 TIP4 H2   HW0      0.679100        1.0080           
   19760 A    4940 TIP4 BD1  LP0     -1.358200        0.0000           
   19761 A    4941 TIP4 O1   OW0      0.000000       15.9990           
   19762 A    4941 TIP4 H1   HW0      0.679100        1.0080           
   19763 A    4941 TIP4 H2   HW0      0.679100        1.0080           
   19764 A    4941 TIP4 BD1  LP0     -1.358200        0.0000           
   19765 A    4942 TIP4 O1   OW0      0.000000       15.9990           
   19766 A    4942 TIP4 H1   HW0      0.679100        1.0080           
   19767 A    4942 TIP4 H2   HW0      0.679100        1.0080           
   19768 A    4942 TIP4 BD1  LP0     -1.358200        0.0000           
   19769 A    4943 TIP4 O1   OW0      0.000000       15.9990           
   19770 A    4943 TIP4 H1   HW0      0.679100        1.0080           
   19771 A    4943 TIP4 H2   HW0      0.679100        1.0080           
   19772 A    4943 TIP4 BD1  LP0     -1.358200        0.0000           
   19773 A    4944 TIP4 O1   OW0      0.000000       15.9990           
   19774 A    4944 TIP4 H1   HW0      0.679100        1.0080           
   19775 A    4944 TIP4 H2   HW0      0.679100        1.0080           
   19776 A    4944 TIP4 BD1  LP0     -1.358200        0.0000           
   19777 A    4945 TIP4 O1   OW0      0.000000       15.9990           
   19778 A    4945 TIP4 H1   HW0      0.679100        1.0080           
   19779 A    4945 TIP4 H2   HW0      0.679100        1.0080           
   19780 A    4945 TIP4 BD1  LP0     -1.358200        0.0000           
   19781 A    4946 TIP4 O1   OW0      0.000000       15.9990           
   19782 A    4946 TIP4 H1   HW0      0.679100        1.0080           
   19783 A    4946 TIP4 H2   HW0      0.679100        1.0080           
   19784 A    4946 TIP4 BD1  LP0     -1.358200        0.0000           
   19785 A    4947 TIP4 O1   OW0      0.000000       15.9990           
   19786 A    4947 TIP4 H1   HW0      0.679100        1.0080           
   19787 A    4947 TIP4 H2   HW0      0.679100        1.0080           
   19788 A    4947 TIP4 BD1  LP0     -1.358200        0.0000           
   19789 A    4948 TIP4 O1   OW0      0.000000       15.9990           
   19790 A    4948 TIP4 H1   HW0      0.679100        1.0080           
   19791 A    4948 TIP4 H2   HW0      0.679100        1.0080           
   19792 A    4948 TIP4 BD1  LP0     -1.358200        0.0000           
   19793 A    4949 TIP4 O1   OW0      0.000000       15.9990           
   19794 A    4949 TIP4 H1   HW0      0.679100        1.0080           
   19795 A    4949 TIP4 H2   HW0      0.679100        1.0080           
   19796 A    4949 TIP4 BD1  LP0     -1.358200        0.0000           
   19797 A    4950 TIP4 O1   OW0      0.000000       15.9990           
   19798 A    4950 TIP4 H1   HW0      0.679100        1.0080           
   19799 A    4950 TIP4 H2   HW0      0.679100        1.0080           
   19800 A    4950 TIP4 BD1  LP0     -1.358200        0.0000           
   19801 A    4951 TIP4 O1   OW0      0.000000       15.9990           
   19802 A    4951 TIP4 H1   HW0      0.679100        1.0080           
   19803 A    4951 TIP4 H2   HW0      0.679100        1.0080           
   19804 A    4951 TIP4 BD1  LP0     -1.358200        0.0000           
   19805 A    4952 TIP4 O1   OW0      0.000000       15.9990           
   19806 A    4952 TIP4 H1   HW0      0.679100        1.0080           
   19807 A    4952 TIP4 H2   HW0      0.679100        1.0080           
   19808 A    4952 TIP4 BD1  LP0     -1.358200        0.0000           
   19809 A    4953 TIP4 O1   OW0      0.000000       15.9990           
   19810 A    4953 TIP4 H1   HW0      0.679100        1.0080           
   19811 A    4953 TIP4 H2   HW0      0.679100        1.0080           
   19812 A    4953 TIP4 BD1  LP0     -1.358200        0.0000           
   19813 A    4954 TIP4 O1   OW0      0.000000       15.9990           
   19814 A    4954 TIP4 H1   HW0      0.679100        1.0080           
   19815 A    4954 TIP4 H2   HW0      0.679100        1.0080           
   19816 A    4954 TIP4 BD1  LP0     -1.358200        0.0000           
   19817 A    4955 TIP4 O1   OW0      0.000000       15.9990           
   19818 A    4955 TIP4 H1   HW0      0.679100        1.0080           
   19819 A    4955 TIP4 H2   HW0      0.679100        1.0080           
   19820 A    4955 TIP4 BD1  LP0     -1.358200        0.0000           
   19821 A    4956 TIP4 O1   OW0      0.000000       15.9990           
   19822 A    4956 TIP4 H1   HW0      0.679100        1.0080           
   19823 A    4956 TIP4 H2   HW0      0.679100        1.0080           
   19824 A    4956 TIP4 BD1  LP0     -1.358200        0.0000           
   19825 A    4957 TIP4 O1   OW0      0.000000       15.9990           
   19826 A    4957 TIP4 H1   HW0      0.679100        1.0080           
   19827 A    4957 TIP4 H2   HW0      0.679100        1.0080           
   19828 A    4957 TIP4 BD1  LP0     -1.358200        0.0000           
   19829 A    4958 TIP4 O1   OW0      0.000000       15.9990           
   19830 A    4958 TIP4 H1   HW0      0.679100        1.0080           
   19831 A    4958 TIP4 H2   HW0      0.679100        1.0080           
   19832 A    4958 TIP4 BD1  LP0     -1.358200        0.0000           
   19833 A    4959 TIP4 O1   OW0      0.000000       15.9990           
   19834 A    4959 TIP4 H1   HW0      0.679100        1.0080           
   19835 A    4959 TIP4 H2   HW0      0.679100        1.0080           
   19836 A    4959 TIP4 BD1  LP0     -1.358200        0.0000           
   19837 A    4960 TIP4 O1   OW0      0.000000       15.9990           
   19838 A    4960 TIP4 H1   HW0      0.679100        1.0080           
   19839 A    4960 TIP4 H2   HW0      0.679100        1.0080           
   19840 A    4960 TIP4 BD1  LP0     -1.358200        0.0000           
   19841 A    4961 TIP4 O1   OW0      0.000000       15.9990           
   19842 A    4961 TIP4 H1   HW0      0.679100        1.0080           
   19843 A    4961 TIP4 H2   HW0      0.679100        1.0080           
   19844 A    4961 TIP4 BD1  LP0     -1.358200        0.0000           
   19845 A    4962 TIP4 O1   OW0      0.000000       15.9990           
   19846 A    4962 TIP4 H1   HW0      0.679100        1.0080           
   19847 A    4962 TIP4 H2   HW0      0.679100        1.0080           
   19848 A    4962 TIP4 BD1  LP0     -1.358200        0.0000           
   19849 A    4963 TIP4 O1   OW0      0.000000       15.9990           
   19850 A    4963 TIP4 H1   HW0      0.679100        1.0080           
   19851 A    4963 TIP4 H2   HW0      0.679100        1.0080           
   19852 A    4963 TIP4 BD1  LP0     -1.358200        0.0000           
   19853 A    4964 TIP4 O1   OW0      0.000000       15.9990           
   19854 A    4964 TIP4 H1   HW0      0.679100        1.0080           
   19855 A    4964 TIP4 H2   HW0      0.679100        1.0080           
   19856 A    4964 TIP4 BD1  LP0     -1.358200        0.0000           
   19857 A    4965 TIP4 O1   OW0      0.000000       15.9990           
   19858 A    4965 TIP4 H1   HW0      0.679100        1.0080           
   19859 A    4965 TIP4 H2   HW0      0.679100        1.0080           
   19860 A    4965 TIP4 BD1  LP0     -1.358200        0.0000           
   19861 A    4966 TIP4 O1   OW0      0.000000       15.9990           
   19862 A    4966 TIP4 H1   HW0      0.679100        1.0080           
   19863 A    4966 TIP4 H2   HW0      0.679100        1.0080           
   19864 A    4966 TIP4 BD1  LP0     -1.358200        0.0000           
   19865 A    4967 TIP4 O1   OW0      0.000000       15.9990           
   19866 A    4967 TIP4 H1   HW0      0.679100        1.0080           
   19867 A    4967 TIP4 H2   HW0      0.679100        1.0080           
   19868 A    4967 TIP4 BD1  LP0     -1.358200        0.0000           
   19869 A    4968 TIP4 O1   OW0      0.000000       15.9990           
   19870 A    4968 TIP4 H1   HW0      0.679100        1.0080           
   19871 A    4968 TIP4 H2   HW0      0.679100        1.0080           
   19872 A    4968 TIP4 BD1  LP0     -1.358200        0.0000           
   19873 A    4969 TIP4 O1   OW0      0.000000       15.9990           
   19874 A    4969 TIP4 H1   HW0      0.679100        1.0080           
   19875 A    4969 TIP4 H2   HW0      0.679100        1.0080           
   19876 A    4969 TIP4 BD1  LP0     -1.358200        0.0000           
   19877 A    4970 TIP4 O1   OW0      0.000000       15.9990           
   19878 A    4970 TIP4 H1   HW0      0.679100        1.0080           
   19879 A    4970 TIP4 H2   HW0      0.679100        1.0080           
   19880 A    4970 TIP4 BD1  LP0     -1.358200        0.0000           
   19881 A    4971 TIP4 O1   OW0      0.000000       15.9990           
   19882 A    4971 TIP4 H1   HW0      0.679100        1.0080           
   19883 A    4971 TIP4 H2   HW0      0.679100        1.0080           
   19884 A    4971 TIP4 BD1  LP0     -1.358200        0.0000           
   19885 A    4972 TIP4 O1   OW0      0.000000       15.9990           
   19886 A    4972 TIP4 H1   HW0      0.679100        1.0080           
   19887 A    4972 TIP4 H2   HW0      0.679100        1.0080           
   19888 A    4972 TIP4 BD1  LP0     -1.358200        0.0000           
   19889 A    4973 TIP4 O1   OW0      0.000000       15.9990           
   19890 A    4973 TIP4 H1   HW0      0.679100        1.0080           
   19891 A    4973 TIP4 H2   HW0      0.679100        1.0080           
   19892 A    4973 TIP4 BD1  LP0     -1.358200        0.0000           
   19893 A    4974 TIP4 O1   OW0      0.000000       15.9990           
   19894 A    4974 TIP4 H1   HW0      0.679100        1.0080           
   19895 A    4974 TIP4 H2   HW0      0.679100        1.0080           
   19896 A    4974 TIP4 BD1  LP0     -1.358200        0.0000           
   19897 A    4975 TIP4 O1   OW0      0.000000       15.9990           
   19898 A    4975 TIP4 H1   HW0      0.679100        1.0080           
   19899 A    4975 TIP4 H2   HW0      0.679100        1.0080           
   19900 A    4975 TIP4 BD1  LP0     -1.358200        0.0000           
   19901 A    4976 TIP4 O1   OW0      0.000000       15.9990           
   19902 A    4976 TIP4 H1   HW0      0.679100        1.0080           
   19903 A    4976 TIP4 H2   HW0      0.679100        1.0080           
   19904 A    4976 TIP4 BD1  LP0     -1.358200        0.0000           
   19905 A    4977 TIP4 O1   OW0      0.000000       15.9990           
   19906 A    4977 TIP4 H1   HW0      0.679100        1.0080           
   19907 A    4977 TIP4 H2   HW0      0.679100        1.0080           
   19908 A    4977 TIP4 BD1  LP0     -1.358200        0.0000           
   19909 A    4978 TIP4 O1   OW0      0.000000       15.9990           
   19910 A    4978 TIP4 H1   HW0      0.679100        1.0080           
   19911 A    4978 TIP4 H2   HW0      0.679100        1.0080           
   19912 A    4978 TIP4 BD1  LP0     -1.358200        0.0000           
   19913 A    4979 TIP4 O1   OW0      0.000000       15.9990           
   19914 A    4979 TIP4 H1   HW0      0.679100        1.0080           
   19915 A    4979 TIP4 H2   HW0      0.679100        1.0080           
   19916 A    4979 TIP4 BD1  LP0     -1.358200        0.0000           
   19917 A    4980 TIP4 O1   OW0      0.000000       15.9990           
   19918 A    4980 TIP4 H1   HW0      0.679100        1.0080           
   19919 A    4980 TIP4 H2   HW0      0.679100        1.0080           
   19920 A    4980 TIP4 BD1  LP0     -1.358200        0.0000           
   19921 A    4981 TIP4 O1   OW0      0.000000       15.9990           
   19922 A    4981 TIP4 H1   HW0      0.679100        1.0080           
   19923 A    4981 TIP4 H2   HW0      0.679100        1.0080           
   19924 A    4981 TIP4 BD1  LP0     -1.358200        0.0000           
   19925 A    4982 TIP4 O1   OW0      0.000000       15.9990           
   19926 A    4982 TIP4 H1   HW0      0.679100        1.0080           
   19927 A    4982 TIP4 H2   HW0      0.679100        1.0080           
   19928 A    4982 TIP4 BD1  LP0     -1.358200        0.0000           
   19929 A    4983 TIP4 O1   OW0      0.000000       15.9990           
   19930 A    4983 TIP4 H1   HW0      0.679100        1.0080           
   19931 A    4983 TIP4 H2   HW0      0.679100        1.0080           
   19932 A    4983 TIP4 BD1  LP0     -1.358200        0.0000           
   19933 A    4984 TIP4 O1   OW0      0.000000       15.9990           
   19934 A    4984 TIP4 H1   HW0      0.679100        1.0080           
   19935 A    4984 TIP4 H2   HW0      0.679100        1.0080           
   19936 A    4984 TIP4 BD1  LP0     -1.358200        0.0000           
   19937 A    4985 TIP4 O1   OW0      0.000000       15.9990           
   19938 A    4985 TIP4 H1   HW0      0.679100        1.0080           
   19939 A    4985 TIP4 H2   HW0      0.679100        1.0080           
   19940 A    4985 TIP4 BD1  LP0     -1.358200        0.0000           
   19941 A    4986 TIP4 O1   OW0      0.000000       15.9990           
   19942 A    4986 TIP4 H1   HW0      0.679100        1.0080           
   19943 A    4986 TIP4 H2   HW0      0.679100        1.0080           
   19944 A    4986 TIP4 BD1  LP0     -1.358200        0.0000           
   19945 A    4987 TIP4 O1   OW0      0.000000       15.9990           
   19946 A    4987 TIP4 H1   HW0      0.679100        1.0080           
   19947 A    4987 TIP4 H2   HW0      0.679100        1.0080           
   19948 A    4987 TIP4 BD1  LP0     -1.358200        0.0000           
   19949 A    4988 TIP4 O1   OW0      0.000000       15.9990           
   19950 A    4988 TIP4 H1   HW0      0.679100        1.0080           
   19951 A    4988 TIP4 H2   HW0      0.679100        1.0080           
   19952 A    4988 TIP4 BD1  LP0     -1.358200        0.0000           
   19953 A    4989 TIP4 O1   OW0      0.000000       15.9990           
   19954 A    4989 TIP4 H1   HW0      0.679100        1.0080           
   19955 A    4989 TIP4 H2   HW0      0.679100        1.0080           
   19956 A    4989 TIP4 BD1  LP0     -1.358200        0.0000           
   19957 A    4990 TIP4 O1   OW0      0.000000       15.9990           
   19958 A    4990 TIP4 H1   HW0      0.679100        1.0080           
   19959 A    4990 TIP4 H2   HW0      0.679100        1.0080           
   19960 A    4990 TIP4 BD1  LP0     -1.358200        0.0000           
   19961 A    4991 TIP4 O1   OW0      0.000000       15.9990           
   19962 A    4991 TIP4 H1   HW0      0.679100        1.0080           
   19963 A    4991 TIP4 H2   HW0      0.679100        1.0080           
   19964 A    4991 TIP4 BD1  LP0     -1.358200        0.0000           
   19965 A    4992 TIP4 O1   OW0      0.000000       15.9990           
   19966 A    4992 TIP4 H1   HW0      0.679100        1.0080           
   19967 A    4992 TIP4 H2   HW0      0.679100        1.0080           
   19968 A    4992 TIP4 BD1  LP0     -1.358200        0.0000           
   19969 A    4993 TIP4 O1   OW0      0.000000       15.9990           
   19970 A    4993 TIP4 H1   HW0      0.679100        1.0080           
   19971 A    4993 TIP4 H2   HW0      0.679100        1.0080           
   19972 A    4993 TIP4 BD1  LP0     -1.358200        0.0000           
   19973 A    4994 TIP4 O1   OW0      0.000000       15.9990           
   19974 A    4994 TIP4 H1   HW0      0.679100        1.0080           
   19975 A    4994 TIP4 H2   HW0      0.679100        1.0080           
   19976 A    4994 TIP4 BD1  LP0     -1.358200        0.0000           
   19977 A    4995 TIP4 O1   OW0      0.000000       15.9990           
   19978 A    4995 TIP4 H1   HW0      0.679100        1.0080           
   19979 A    4995 TIP4 H2   HW0      0.679100        1.0080           
   19980 A    4995 TIP4 BD1  LP0     -1.358200        0.0000           
   19981 A    4996 TIP4 O1   OW0      0.000000       15.9990           
   19982 A    4996 TIP4 H1   HW0      0.679100        1.0080           
   19983 A    4996 TIP4 H2   HW0      0.679100        1.0080           
   19984 A    4996 TIP4 BD1  LP0     -1.358200        0.0000           
   19985 A    4997 TIP4 O1   OW0      0.000000       15.9990           
   19986 A    4997 TIP4 H1   HW0      0.679100        1.0080           
   19987 A    4997 TIP4 H2   HW0      0.679100        1.0080           
   19988 A    4997 TIP4 BD1  LP0     -1.358200        0.0000           
   19989 A    4998 TIP4 O1   OW0      0.000000       15.9990           
   19990 A    4998 TIP4 H1   HW0      0.679100        1.0080           
   19991 A    4998 TIP4 H2   HW0      0.679100        1.0080           
   19992 A    4998 TIP4 BD1  LP0     -1.358200        0.0000           
   19993 A    4999 TIP4 O1   OW0      0.000000       15.9990           
   19994 A    4999 TIP4 H1   HW0      0.679100        1.0080           
   19995 A    4999 TIP4 H2   HW0      0.679100        1.0080           
   19996 A    4999 TIP4 BD1  LP0     -1.358200        0.0000           
   19997 A    5000 TIP4 O1   OW0      0.000000       15.9990           
   19998 A    5000 TIP4 H1   HW0      0.679100        1.0080           
   19999 A    5000 TIP4 H2   HW0      0.679100        1.0080           
   20000 A    5000 TIP4 BD1  LP0     -1.358200        0.0000           
   20001 A    5001 TIP4 O1   OW0      0.000000       15.9990           
   20002 A    5001 TIP4 H1   HW0      0.679100        1.0080           
   20003 A    5001 TIP4 H2   HW0      0.679100        1.0080           
   20004 A    5001 TIP4 BD1  LP0     -1.358200        0.0000           
   20005 A    5002 TIP4 O1   OW0      0.000000       15.9990           
   20006 A    5002 TIP4 H1   HW0      0.679100        1.0080           
   20007 A    5002 TIP4 H2   HW0      0.679100        1.0080           
   20008 A    5002 TIP4 BD1  LP0     -1.358200        0.0000           
   20009 A    5003 TIP4 O1   OW0      0.000000       15.9990           
   20010 A    5003 TIP4 H1   HW0      0.679100        1.0080           
   20011 A    5003 TIP4 H2   HW0      0.679100        1.0080           
   20012 A    5003 TIP4 BD1  LP0     -1.358200        0.0000           
   20013 A    5004 TIP4 O1   OW0      0.000000       15.9990           
   20014 A    5004 TIP4 H1   HW0      0.679100        1.0080           
   20015 A    5004 TIP4 H2   HW0      0.679100        1.0080           
   20016 A    5004 TIP4 BD1  LP0     -1.358200        0.0000           
   20017 A    5005 TIP4 O1   OW0      0.000000       15.9990           
   20018 A    5005 TIP4 H1   HW0      0.679100        1.0080           
   20019 A    5005 TIP4 H2   HW0      0.679100        1.0080           
   20020 A    5005 TIP4 BD1  LP0     -1.358200        0.0000           
   20021 A    5006 TIP4 O1   OW0      0.000000       15.9990           
   20022 A    5006 TIP4 H1   HW0      0.679100        1.0080           
   20023 A    5006 TIP4 H2   HW0      0.679100        1.0080           
   20024 A    5006 TIP4 BD1  LP0     -1.358200        0.0000           
   20025 A    5007 TIP4 O1   OW0      0.000000       15.9990           
   20026 A    5007 TIP4 H1   HW0      0.679100        1.0080           
   20027 A    5007 TIP4 H2   HW0      0.679100        1.0080           
   20028 A    5007 TIP4 BD1  LP0     -1.358200        0.0000           
   20029 A    5008 TIP4 O1   OW0      0.000000       15.9990           
   20030 A    5008 TIP4 H1   HW0      0.679100        1.0080           
   20031 A    5008 TIP4 H2   HW0      0.679100        1.0080           
   20032 A    5008 TIP4 BD1  LP0     -1.358200        0.0000           
   20033 A    5009 TIP4 O1   OW0      0.000000       15.9990           
   20034 A    5009 TIP4 H1   HW0      0.679100        1.0080           
   20035 A    5009 TIP4 H2   HW0      0.679100        1.0080           
   20036 A    5009 TIP4 BD1  LP0     -1.358200        0.0000           
   20037 A    5010 TIP4 O1   OW0      0.000000       15.9990           
   20038 A    5010 TIP4 H1   HW0      0.679100        1.0080           
   20039 A    5010 TIP4 H2   HW0      0.679100        1.0080           
   20040 A    5010 TIP4 BD1  LP0     -1.358200        0.0000           
   20041 A    5011 TIP4 O1   OW0      0.000000       15.9990           
   20042 A    5011 TIP4 H1   HW0      0.679100        1.0080           
   20043 A    5011 TIP4 H2   HW0      0.679100        1.0080           
   20044 A    5011 TIP4 BD1  LP0     -1.358200        0.0000           
   20045 A    5012 TIP4 O1   OW0      0.000000       15.9990           
   20046 A    5012 TIP4 H1   HW0      0.679100        1.0080           
   20047 A    5012 TIP4 H2   HW0      0.679100        1.0080           
   20048 A    5012 TIP4 BD1  LP0     -1.358200        0.0000           
   20049 A    5013 TIP4 O1   OW0      0.000000       15.9990           
   20050 A    5013 TIP4 H1   HW0      0.679100        1.0080           
   20051 A    5013 TIP4 H2   HW0      0.679100        1.0080           
   20052 A    5013 TIP4 BD1  LP0     -1.358200        0.0000           
   20053 A    5014 TIP4 O1   OW0      0.000000       15.9990           
   20054 A    5014 TIP4 H1   HW0      0.679100        1.0080           
   20055 A    5014 TIP4 H2   HW0      0.679100        1.0080           
   20056 A    5014 TIP4 BD1  LP0     -1.358200        0.0000           
   20057 A    5015 TIP4 O1   OW0      0.000000       15.9990           
   20058 A    5015 TIP4 H1   HW0      0.679100        1.0080           
   20059 A    5015 TIP4 H2   HW0      0.679100        1.0080           
   20060 A    5015 TIP4 BD1  LP0     -1.358200        0.0000           
   20061 A    5016 TIP4 O1   OW0      0.000000       15.9990           
   20062 A    5016 TIP4 H1   HW0      0.679100        1.0080           
   20063 A    5016 TIP4 H2   HW0      0.679100        1.0080           
   20064 A    5016 TIP4 BD1  LP0     -1.358200        0.0000           
   20065 A    5017 TIP4 O1   OW0      0.000000       15.9990           
   20066 A    5017 TIP4 H1   HW0      0.679100        1.0080           
   20067 A    5017 TIP4 H2   HW0      0.679100        1.0080           
   20068 A    5017 TIP4 BD1  LP0     -1.358200        0.0000           
   20069 A    5018 TIP4 O1   OW0      0.000000       15.9990           
   20070 A    5018 TIP4 H1   HW0      0.679100        1.0080           
   20071 A    5018 TIP4 H2   HW0      0.679100        1.0080           
   20072 A    5018 TIP4 BD1  LP0     -1.358200        0.0000           
   20073 A    5019 TIP4 O1   OW0      0.000000       15.9990           
   20074 A    5019 TIP4 H1   HW0      0.679100        1.0080           
   20075 A    5019 TIP4 H2   HW0      0.679100        1.0080           
   20076 A    5019 TIP4 BD1  LP0     -1.358200        0.0000           
   20077 A    5020 TIP4 O1   OW0      0.000000       15.9990           
   20078 A    5020 TIP4 H1   HW0      0.679100        1.0080           
   20079 A    5020 TIP4 H2   HW0      0.679100        1.0080           
   20080 A    5020 TIP4 BD1  LP0     -1.358200        0.0000           
   20081 A    5021 TIP4 O1   OW0      0.000000       15.9990           
   20082 A    5021 TIP4 H1   HW0      0.679100        1.0080           
   20083 A    5021 TIP4 H2   HW0      0.679100        1.0080           
   20084 A    5021 TIP4 BD1  LP0     -1.358200        0.0000           
   20085 A    5022 TIP4 O1   OW0      0.000000       15.9990           
   20086 A    5022 TIP4 H1   HW0      0.679100        1.0080           
   20087 A    5022 TIP4 H2   HW0      0.679100        1.0080           
   20088 A    5022 TIP4 BD1  LP0     -1.358200        0.0000           
   20089 A    5023 TIP4 O1   OW0      0.000000       15.9990           
   20090 A    5023 TIP4 H1   HW0      0.679100        1.0080           
   20091 A    5023 TIP4 H2   HW0      0.679100        1.0080           
   20092 A    5023 TIP4 BD1  LP0     -1.358200        0.0000           
   20093 A    5024 TIP4 O1   OW0      0.000000       15.9990           
   20094 A    5024 TIP4 H1   HW0      0.679100        1.0080           
   20095 A    5024 TIP4 H2   HW0      0.679100        1.0080           
   20096 A    5024 TIP4 BD1  LP0     -1.358200        0.0000           
   20097 A    5025 TIP4 O1   OW0      0.000000       15.9990           
   20098 A    5025 TIP4 H1   HW0      0.679100        1.0080           
   20099 A    5025 TIP4 H2   HW0      0.679100        1.0080           
   20100 A    5025 TIP4 BD1  LP0     -1.358200        0.0000           
   20101 A    5026 TIP4 O1   OW0      0.000000       15.9990           
   20102 A    5026 TIP4 H1   HW0      0.679100        1.0080           
   20103 A    5026 TIP4 H2   HW0      0.679100        1.0080           
   20104 A    5026 TIP4 BD1  LP0     -1.358200        0.0000           
   20105 A    5027 TIP4 O1   OW0      0.000000       15.9990           
   20106 A    5027 TIP4 H1   HW0      0.679100        1.0080           
   20107 A    5027 TIP4 H2   HW0      0.679100        1.0080           
   20108 A    5027 TIP4 BD1  LP0     -1.358200        0.0000           
   20109 A    5028 TIP4 O1   OW0      0.000000       15.9990           
   20110 A    5028 TIP4 H1   HW0      0.679100        1.0080           
   20111 A    5028 TIP4 H2   HW0      0.679100        1.0080           
   20112 A    5028 TIP4 BD1  LP0     -1.358200        0.0000           
   20113 A    5029 TIP4 O1   OW0      0.000000       15.9990           
   20114 A    5029 TIP4 H1   HW0      0.679100        1.0080           
   20115 A    5029 TIP4 H2   HW0      0.679100        1.0080           
   20116 A    5029 TIP4 BD1  LP0     -1.358200        0.0000           
   20117 A    5030 TIP4 O1   OW0      0.000000       15.9990           
   20118 A    5030 TIP4 H1   HW0      0.679100        1.0080           
   20119 A    5030 TIP4 H2   HW0      0.679100        1.0080           
   20120 A    5030 TIP4 BD1  LP0     -1.358200        0.0000           
   20121 A    5031 TIP4 O1   OW0      0.000000       15.9990           
   20122 A    5031 TIP4 H1   HW0      0.679100        1.0080           
   20123 A    5031 TIP4 H2   HW0      0.679100        1.0080           
   20124 A    5031 TIP4 BD1  LP0     -1.358200        0.0000           
   20125 A    5032 TIP4 O1   OW0      0.000000       15.9990           
   20126 A    5032 TIP4 H1   HW0      0.679100        1.0080           
   20127 A    5032 TIP4 H2   HW0      0.679100        1.0080           
   20128 A    5032 TIP4 BD1  LP0     -1.358200        0.0000           
   20129 A    5033 TIP4 O1   OW0      0.000000       15.9990           
   20130 A    5033 TIP4 H1   HW0      0.679100        1.0080           
   20131 A    5033 TIP4 H2   HW0      0.679100        1.0080           
   20132 A    5033 TIP4 BD1  LP0     -1.358200        0.0000           
   20133 A    5034 TIP4 O1   OW0      0.000000       15.9990           
   20134 A    5034 TIP4 H1   HW0      0.679100        1.0080           
   20135 A    5034 TIP4 H2   HW0      0.679100        1.0080           
   20136 A    5034 TIP4 BD1  LP0     -1.358200        0.0000           
   20137 A    5035 TIP4 O1   OW0      0.000000       15.9990           
   20138 A    5035 TIP4 H1   HW0      0.679100        1.0080           
   20139 A    5035 TIP4 H2   HW0      0.679100        1.0080           
   20140 A    5035 TIP4 BD1  LP0     -1.358200        0.0000           
   20141 A    5036 TIP4 O1   OW0      0.000000       15.9990           
   20142 A    5036 TIP4 H1   HW0      0.679100        1.0080           
   20143 A    5036 TIP4 H2   HW0      0.679100        1.0080           
   20144 A    5036 TIP4 BD1  LP0     -1.358200        0.0000           
   20145 A    5037 TIP4 O1   OW0      0.000000       15.9990           
   20146 A    5037 TIP4 H1   HW0      0.679100        1.0080           
   20147 A    5037 TIP4 H2   HW0      0.679100        1.0080           
   20148 A    5037 TIP4 BD1  LP0     -1.358200        0.0000           
   20149 A    5038 TIP4 O1   OW0      0.000000       15.9990           
   20150 A    5038 TIP4 H1   HW0      0.679100        1.0080           
   20151 A    5038 TIP4 H2   HW0      0.679100        1.0080           
   20152 A    5038 TIP4 BD1  LP0     -1.358200        0.0000           
   20153 A    5039 TIP4 O1   OW0      0.000000       15.9990           
   20154 A    5039 TIP4 H1   HW0      0.679100        1.0080           
   20155 A    5039 TIP4 H2   HW0      0.679100        1.0080           
   20156 A    5039 TIP4 BD1  LP0     -1.358200        0.0000           
   20157 A    5040 TIP4 O1   OW0      0.000000       15.9990           
   20158 A    5040 TIP4 H1   HW0      0.679100        1.0080           
   20159 A    5040 TIP4 H2   HW0      0.679100        1.0080           
   20160 A    5040 TIP4 BD1  LP0     -1.358200        0.0000           
   20161 A    5041 TIP4 O1   OW0      0.000000       15.9990           
   20162 A    5041 TIP4 H1   HW0      0.679100        1.0080           
   20163 A    5041 TIP4 H2   HW0      0.679100        1.0080           
   20164 A    5041 TIP4 BD1  LP0     -1.358200        0.0000           
   20165 A    5042 TIP4 O1   OW0      0.000000       15.9990           
   20166 A    5042 TIP4 H1   HW0      0.679100        1.0080           
   20167 A    5042 TIP4 H2   HW0      0.679100        1.0080           
   20168 A    5042 TIP4 BD1  LP0     -1.358200        0.0000           
   20169 A    5043 TIP4 O1   OW0      0.000000       15.9990           
   20170 A    5043 TIP4 H1   HW0      0.679100        1.0080           
   20171 A    5043 TIP4 H2   HW0      0.679100        1.0080           
   20172 A    5043 TIP4 BD1  LP0     -1.358200        0.0000           
   20173 A    5044 TIP4 O1   OW0      0.000000       15.9990           
   20174 A    5044 TIP4 H1   HW0      0.679100        1.0080           
   20175 A    5044 TIP4 H2   HW0      0.679100        1.0080           
   20176 A    5044 TIP4 BD1  LP0     -1.358200        0.0000           
   20177 A    5045 TIP4 O1   OW0      0.000000       15.9990           
   20178 A    5045 TIP4 H1   HW0      0.679100        1.0080           
   20179 A    5045 TIP4 H2   HW0      0.679100        1.0080           
   20180 A    5045 TIP4 BD1  LP0     -1.358200        0.0000           
   20181 A    5046 TIP4 O1   OW0      0.000000       15.9990           
   20182 A    5046 TIP4 H1   HW0      0.679100        1.0080           
   20183 A    5046 TIP4 H2   HW0      0.679100        1.0080           
   20184 A    5046 TIP4 BD1  LP0     -1.358200        0.0000           
   20185 A    5047 TIP4 O1   OW0      0.000000       15.9990           
   20186 A    5047 TIP4 H1   HW0      0.679100        1.0080           
   20187 A    5047 TIP4 H2   HW0      0.679100        1.0080           
   20188 A    5047 TIP4 BD1  LP0     -1.358200        0.0000           
   20189 A    5048 TIP4 O1   OW0      0.000000       15.9990           
   20190 A    5048 TIP4 H1   HW0      0.679100        1.0080           
   20191 A    5048 TIP4 H2   HW0      0.679100        1.0080           
   20192 A    5048 TIP4 BD1  LP0     -1.358200        0.0000           
   20193 A    5049 TIP4 O1   OW0      0.000000       15.9990           
   20194 A    5049 TIP4 H1   HW0      0.679100        1.0080           
   20195 A    5049 TIP4 H2   HW0      0.679100        1.0080           
   20196 A    5049 TIP4 BD1  LP0     -1.358200        0.0000           
   20197 A    5050 TIP4 O1   OW0      0.000000       15.9990           
   20198 A    5050 TIP4 H1   HW0      0.679100        1.0080           
   20199 A    5050 TIP4 H2   HW0      0.679100        1.0080           
   20200 A    5050 TIP4 BD1  LP0     -1.358200        0.0000           
   20201 A    5051 TIP4 O1   OW0      0.000000       15.9990           
   20202 A    5051 TIP4 H1   HW0      0.679100        1.0080           
   20203 A    5051 TIP4 H2   HW0      0.679100        1.0080           
   20204 A    5051 TIP4 BD1  LP0     -1.358200        0.0000           
   20205 A    5052 TIP4 O1   OW0      0.000000       15.9990           
   20206 A    5052 TIP4 H1   HW0      0.679100        1.0080           
   20207 A    5052 TIP4 H2   HW0      0.679100        1.0080           
   20208 A    5052 TIP4 BD1  LP0     -1.358200        0.0000           
   20209 A    5053 TIP4 O1   OW0      0.000000       15.9990           
   20210 A    5053 TIP4 H1   HW0      0.679100        1.0080           
   20211 A    5053 TIP4 H2   HW0      0.679100        1.0080           
   20212 A    5053 TIP4 BD1  LP0     -1.358200        0.0000           
   20213 A    5054 TIP4 O1   OW0      0.000000       15.9990           
   20214 A    5054 TIP4 H1   HW0      0.679100        1.0080           
   20215 A    5054 TIP4 H2   HW0      0.679100        1.0080           
   20216 A    5054 TIP4 BD1  LP0     -1.358200        0.0000           
   20217 A    5055 TIP4 O1   OW0      0.000000       15.9990           
   20218 A    5055 TIP4 H1   HW0      0.679100        1.0080           
   20219 A    5055 TIP4 H2   HW0      0.679100        1.0080           
   20220 A    5055 TIP4 BD1  LP0     -1.358200        0.0000           
   20221 A    5056 TIP4 O1   OW0      0.000000       15.9990           
   20222 A    5056 TIP4 H1   HW0      0.679100        1.0080           
   20223 A    5056 TIP4 H2   HW0      0.679100        1.0080           
   20224 A    5056 TIP4 BD1  LP0     -1.358200        0.0000           
   20225 A    5057 TIP4 O1   OW0      0.000000       15.9990           
   20226 A    5057 TIP4 H1   HW0      0.679100        1.0080           
   20227 A    5057 TIP4 H2   HW0      0.679100        1.0080           
   20228 A    5057 TIP4 BD1  LP0     -1.358200        0.0000           
   20229 A    5058 TIP4 O1   OW0      0.000000       15.9990           
   20230 A    5058 TIP4 H1   HW0      0.679100        1.0080           
   20231 A    5058 TIP4 H2   HW0      0.679100        1.0080           
   20232 A    5058 TIP4 BD1  LP0     -1.358200        0.0000           
   20233 A    5059 TIP4 O1   OW0      0.000000       15.9990           
   20234 A    5059 TIP4 H1   HW0      0.679100        1.0080           
   20235 A    5059 TIP4 H2   HW0      0.679100        1.0080           
   20236 A    5059 TIP4 BD1  LP0     -1.358200        0.0000           
   20237 A    5060 TIP4 O1   OW0      0.000000       15.9990           
   20238 A    5060 TIP4 H1   HW0      0.679100        1.0080           
   20239 A    5060 TIP4 H2   HW0      0.679100        1.0080           
   20240 A    5060 TIP4 BD1  LP0     -1.358200        0.0000           
   20241 A    5061 TIP4 O1   OW0      0.000000       15.9990           
   20242 A    5061 TIP4 H1   HW0      0.679100        1.0080           
   20243 A    5061 TIP4 H2   HW0      0.679100        1.0080           
   20244 A    5061 TIP4 BD1  LP0     -1.358200        0.0000           
   20245 A    5062 TIP4 O1   OW0      0.000000       15.9990           
   20246 A    5062 TIP4 H1   HW0      0.679100        1.0080           
   20247 A    5062 TIP4 H2   HW0      0.679100        1.0080           
   20248 A    5062 TIP4 BD1  LP0     -1.358200        0.0000           
   20249 A    5063 TIP4 O1   OW0      0.000000       15.9990           
   20250 A    5063 TIP4 H1   HW0      0.679100        1.0080           
   20251 A    5063 TIP4 H2   HW0      0.679100        1.0080           
   20252 A    5063 TIP4 BD1  LP0     -1.358200        0.0000           
   20253 A    5064 TIP4 O1   OW0      0.000000       15.9990           
   20254 A    5064 TIP4 H1   HW0      0.679100        1.0080           
   20255 A    5064 TIP4 H2   HW0      0.679100        1.0080           
   20256 A    5064 TIP4 BD1  LP0     -1.358200        0.0000           
   20257 A    5065 TIP4 O1   OW0      0.000000       15.9990           
   20258 A    5065 TIP4 H1   HW0      0.679100        1.0080           
   20259 A    5065 TIP4 H2   HW0      0.679100        1.0080           
   20260 A    5065 TIP4 BD1  LP0     -1.358200        0.0000           
   20261 A    5066 TIP4 O1   OW0      0.000000       15.9990           
   20262 A    5066 TIP4 H1   HW0      0.679100        1.0080           
   20263 A    5066 TIP4 H2   HW0      0.679100        1.0080           
   20264 A    5066 TIP4 BD1  LP0     -1.358200        0.0000           
   20265 A    5067 TIP4 O1   OW0      0.000000       15.9990           
   20266 A    5067 TIP4 H1   HW0      0.679100        1.0080           
   20267 A    5067 TIP4 H2   HW0      0.679100        1.0080           
   20268 A    5067 TIP4 BD1  LP0     -1.358200        0.0000           
   20269 A    5068 TIP4 O1   OW0      0.000000       15.9990           
   20270 A    5068 TIP4 H1   HW0      0.679100        1.0080           
   20271 A    5068 TIP4 H2   HW0      0.679100        1.0080           
   20272 A    5068 TIP4 BD1  LP0     -1.358200        0.0000           
   20273 A    5069 TIP4 O1   OW0      0.000000       15.9990           
   20274 A    5069 TIP4 H1   HW0      0.679100        1.0080           
   20275 A    5069 TIP4 H2   HW0      0.679100        1.0080           
   20276 A    5069 TIP4 BD1  LP0     -1.358200        0.0000           
   20277 A    5070 TIP4 O1   OW0      0.000000       15.9990           
   20278 A    5070 TIP4 H1   HW0      0.679100        1.0080           
   20279 A    5070 TIP4 H2   HW0      0.679100        1.0080           
   20280 A    5070 TIP4 BD1  LP0     -1.358200        0.0000           
   20281 A    5071 TIP4 O1   OW0      0.000000       15.9990           
   20282 A    5071 TIP4 H1   HW0      0.679100        1.0080           
   20283 A    5071 TIP4 H2   HW0      0.679100        1.0080           
   20284 A    5071 TIP4 BD1  LP0     -1.358200        0.0000           
   20285 A    5072 TIP4 O1   OW0      0.000000       15.9990           
   20286 A    5072 TIP4 H1   HW0      0.679100        1.0080           
   20287 A    5072 TIP4 H2   HW0      0.679100        1.0080           
   20288 A    5072 TIP4 BD1  LP0     -1.358200        0.0000           
   20289 A    5073 TIP4 O1   OW0      0.000000       15.9990           
   20290 A    5073 TIP4 H1   HW0      0.679100        1.0080           
   20291 A    5073 TIP4 H2   HW0      0.679100        1.0080           
   20292 A    5073 TIP4 BD1  LP0     -1.358200        0.0000           
   20293 A    5074 TIP4 O1   OW0      0.000000       15.9990           
   20294 A    5074 TIP4 H1   HW0      0.679100        1.0080           
   20295 A    5074 TIP4 H2   HW0      0.679100        1.0080           
   20296 A    5074 TIP4 BD1  LP0     -1.358200        0.0000           
   20297 A    5075 TIP4 O1   OW0      0.000000       15.9990           
   20298 A    5075 TIP4 H1   HW0      0.679100        1.0080           
   20299 A    5075 TIP4 H2   HW0      0.679100        1.0080           
   20300 A    5075 TIP4 BD1  LP0     -1.358200        0.0000           
   20301 A    5076 TIP4 O1   OW0      0.000000       15.9990           
   20302 A    5076 TIP4 H1   HW0      0.679100        1.0080           
   20303 A    5076 TIP4 H2   HW0      0.679100        1.0080           
   20304 A    5076 TIP4 BD1  LP0     -1.358200        0.0000           
   20305 A    5077 TIP4 O1   OW0      0.000000       15.9990           
   20306 A    5077 TIP4 H1   HW0      0.679100        1.0080           
   20307 A    5077 TIP4 H2   HW0      0.679100        1.0080           
   20308 A    5077 TIP4 BD1  LP0     -1.358200        0.0000           
   20309 A    5078 TIP4 O1   OW0      0.000000       15.9990           
   20310 A    5078 TIP4 H1   HW0      0.679100        1.0080           
   20311 A    5078 TIP4 H2   HW0      0.679100        1.0080           
   20312 A    5078 TIP4 BD1  LP0     -1.358200        0.0000           
   20313 A    5079 TIP4 O1   OW0      0.000000       15.9990           
   20314 A    5079 TIP4 H1   HW0      0.679100        1.0080           
   20315 A    5079 TIP4 H2   HW0      0.679100        1.0080           
   20316 A    5079 TIP4 BD1  LP0     -1.358200        0.0000           
   20317 A    5080 TIP4 O1   OW0      0.000000       15.9990           
   20318 A    5080 TIP4 H1   HW0      0.679100        1.0080           
   20319 A    5080 TIP4 H2   HW0      0.679100        1.0080           
   20320 A    5080 TIP4 BD1  LP0     -1.358200        0.0000           
   20321 A    5081 TIP4 O1   OW0      0.000000       15.9990           
   20322 A    5081 TIP4 H1   HW0      0.679100        1.0080           
   20323 A    5081 TIP4 H2   HW0      0.679100        1.0080           
   20324 A    5081 TIP4 BD1  LP0     -1.358200        0.0000           
   20325 A    5082 TIP4 O1   OW0      0.000000       15.9990           
   20326 A    5082 TIP4 H1   HW0      0.679100        1.0080           
   20327 A    5082 TIP4 H2   HW0      0.679100        1.0080           
   20328 A    5082 TIP4 BD1  LP0     -1.358200        0.0000           
   20329 A    5083 TIP4 O1   OW0      0.000000       15.9990           
   20330 A    5083 TIP4 H1   HW0      0.679100        1.0080           
   20331 A    5083 TIP4 H2   HW0      0.679100        1.0080           
   20332 A    5083 TIP4 BD1  LP0     -1.358200        0.0000           
   20333 A    5084 TIP4 O1   OW0      0.000000       15.9990           
   20334 A    5084 TIP4 H1   HW0      0.679100        1.0080           
   20335 A    5084 TIP4 H2   HW0      0.679100        1.0080           
   20336 A    5084 TIP4 BD1  LP0     -1.358200        0.0000           
   20337 A    5085 TIP4 O1   OW0      0.000000       15.9990           
   20338 A    5085 TIP4 H1   HW0      0.679100        1.0080           
   20339 A    5085 TIP4 H2   HW0      0.679100        1.0080           
   20340 A    5085 TIP4 BD1  LP0     -1.358200        0.0000           
   20341 A    5086 TIP4 O1   OW0      0.000000       15.9990           
   20342 A    5086 TIP4 H1   HW0      0.679100        1.0080           
   20343 A    5086 TIP4 H2   HW0      0.679100        1.0080           
   20344 A    5086 TIP4 BD1  LP0     -1.358200        0.0000           
   20345 A    5087 TIP4 O1   OW0      0.000000       15.9990           
   20346 A    5087 TIP4 H1   HW0      0.679100        1.0080           
   20347 A    5087 TIP4 H2   HW0      0.679100        1.0080           
   20348 A    5087 TIP4 BD1  LP0     -1.358200        0.0000           
   20349 A    5088 TIP4 O1   OW0      0.000000       15.9990           
   20350 A    5088 TIP4 H1   HW0      0.679100        1.0080           
   20351 A    5088 TIP4 H2   HW0      0.679100        1.0080           
   20352 A    5088 TIP4 BD1  LP0     -1.358200        0.0000           
   20353 A    5089 TIP4 O1   OW0      0.000000       15.9990           
   20354 A    5089 TIP4 H1   HW0      0.679100        1.0080           
   20355 A    5089 TIP4 H2   HW0      0.679100        1.0080           
   20356 A    5089 TIP4 BD1  LP0     -1.358200        0.0000           
   20357 A    5090 TIP4 O1   OW0      0.000000       15.9990           
   20358 A    5090 TIP4 H1   HW0      0.679100        1.0080           
   20359 A    5090 TIP4 H2   HW0      0.679100        1.0080           
   20360 A    5090 TIP4 BD1  LP0     -1.358200        0.0000           
   20361 A    5091 TIP4 O1   OW0      0.000000       15.9990           
   20362 A    5091 TIP4 H1   HW0      0.679100        1.0080           
   20363 A    5091 TIP4 H2   HW0      0.679100        1.0080           
   20364 A    5091 TIP4 BD1  LP0     -1.358200        0.0000           
   20365 A    5092 TIP4 O1   OW0      0.000000       15.9990           
   20366 A    5092 TIP4 H1   HW0      0.679100        1.0080           
   20367 A    5092 TIP4 H2   HW0      0.679100        1.0080           
   20368 A    5092 TIP4 BD1  LP0     -1.358200        0.0000           
   20369 A    5093 TIP4 O1   OW0      0.000000       15.9990           
   20370 A    5093 TIP4 H1   HW0      0.679100        1.0080           
   20371 A    5093 TIP4 H2   HW0      0.679100        1.0080           
   20372 A    5093 TIP4 BD1  LP0     -1.358200        0.0000           
   20373 A    5094 TIP4 O1   OW0      0.000000       15.9990           
   20374 A    5094 TIP4 H1   HW0      0.679100        1.0080           
   20375 A    5094 TIP4 H2   HW0      0.679100        1.0080           
   20376 A    5094 TIP4 BD1  LP0     -1.358200        0.0000           
   20377 A    5095 TIP4 O1   OW0      0.000000       15.9990           
   20378 A    5095 TIP4 H1   HW0      0.679100        1.0080           
   20379 A    5095 TIP4 H2   HW0      0.679100        1.0080           
   20380 A    5095 TIP4 BD1  LP0     -1.358200        0.0000           
   20381 A    5096 TIP4 O1   OW0      0.000000       15.9990           
   20382 A    5096 TIP4 H1   HW0      0.679100        1.0080           
   20383 A    5096 TIP4 H2   HW0      0.679100        1.0080           
   20384 A    5096 TIP4 BD1  LP0     -1.358200        0.0000           
   20385 A    5097 TIP4 O1   OW0      0.000000       15.9990           
   20386 A    5097 TIP4 H1   HW0      0.679100        1.0080           
   20387 A    5097 TIP4 H2   HW0      0.679100        1.0080           
   20388 A    5097 TIP4 BD1  LP0     -1.358200        0.0000           
   20389 A    5098 TIP4 O1   OW0      0.000000       15.9990           
   20390 A    5098 TIP4 H1   HW0      0.679100        1.0080           
   20391 A    5098 TIP4 H2   HW0      0.679100        1.0080           
   20392 A    5098 TIP4 BD1  LP0     -1.358200        0.0000           
   20393 A    5099 TIP4 O1   OW0      0.000000       15.9990           
   20394 A    5099 TIP4 H1   HW0      0.679100        1.0080           
   20395 A    5099 TIP4 H2   HW0      0.679100        1.0080           
   20396 A    5099 TIP4 BD1  LP0     -1.358200        0.0000           
   20397 A    5100 TIP4 O1   OW0      0.000000       15.9990           
   20398 A    5100 TIP4 H1   HW0      0.679100        1.0080           
   20399 A    5100 TIP4 H2   HW0      0.679100        1.0080           
   20400 A    5100 TIP4 BD1  LP0     -1.358200        0.0000           
   20401 A    5101 TIP4 O1   OW0      0.000000       15.9990           
   20402 A    5101 TIP4 H1   HW0      0.679100        1.0080           
   20403 A    5101 TIP4 H2   HW0      0.679100        1.0080           
   20404 A    5101 TIP4 BD1  LP0     -1.358200        0.0000           
   20405 A    5102 TIP4 O1   OW0      0.000000       15.9990           
   20406 A    5102 TIP4 H1   HW0      0.679100        1.0080           
   20407 A    5102 TIP4 H2   HW0      0.679100        1.0080           
   20408 A    5102 TIP4 BD1  LP0     -1.358200        0.0000           
   20409 A    5103 TIP4 O1   OW0      0.000000       15.9990           
   20410 A    5103 TIP4 H1   HW0      0.679100        1.0080           
   20411 A    5103 TIP4 H2   HW0      0.679100        1.0080           
   20412 A    5103 TIP4 BD1  LP0     -1.358200        0.0000           
   20413 A    5104 TIP4 O1   OW0      0.000000       15.9990           
   20414 A    5104 TIP4 H1   HW0      0.679100        1.0080           
   20415 A    5104 TIP4 H2   HW0      0.679100        1.0080           
   20416 A    5104 TIP4 BD1  LP0     -1.358200        0.0000           
   20417 A    5105 TIP4 O1   OW0      0.000000       15.9990           
   20418 A    5105 TIP4 H1   HW0      0.679100        1.0080           
   20419 A    5105 TIP4 H2   HW0      0.679100        1.0080           
   20420 A    5105 TIP4 BD1  LP0     -1.358200        0.0000           
   20421 A    5106 TIP4 O1   OW0      0.000000       15.9990           
   20422 A    5106 TIP4 H1   HW0      0.679100        1.0080           
   20423 A    5106 TIP4 H2   HW0      0.679100        1.0080           
   20424 A    5106 TIP4 BD1  LP0     -1.358200        0.0000           
   20425 A    5107 TIP4 O1   OW0      0.000000       15.9990           
   20426 A    5107 TIP4 H1   HW0      0.679100        1.0080           
   20427 A    5107 TIP4 H2   HW0      0.679100        1.0080           
   20428 A    5107 TIP4 BD1  LP0     -1.358200        0.0000           
   20429 A    5108 TIP4 O1   OW0      0.000000       15.9990           
   20430 A    5108 TIP4 H1   HW0      0.679100        1.0080           
   20431 A    5108 TIP4 H2   HW0      0.679100        1.0080           
   20432 A    5108 TIP4 BD1  LP0     -1.358200        0.0000           
   20433 A    5109 TIP4 O1   OW0      0.000000       15.9990           
   20434 A    5109 TIP4 H1   HW0      0.679100        1.0080           
   20435 A    5109 TIP4 H2   HW0      0.679100        1.0080           
   20436 A    5109 TIP4 BD1  LP0     -1.358200        0.0000           
   20437 A    5110 TIP4 O1   OW0      0.000000       15.9990           
   20438 A    5110 TIP4 H1   HW0      0.679100        1.0080           
   20439 A    5110 TIP4 H2   HW0      0.679100        1.0080           
   20440 A    5110 TIP4 BD1  LP0     -1.358200        0.0000           
   20441 A    5111 TIP4 O1   OW0      0.000000       15.9990           
   20442 A    5111 TIP4 H1   HW0      0.679100        1.0080           
   20443 A    5111 TIP4 H2   HW0      0.679100        1.0080           
   20444 A    5111 TIP4 BD1  LP0     -1.358200        0.0000           
   20445 A    5112 TIP4 O1   OW0      0.000000       15.9990           
   20446 A    5112 TIP4 H1   HW0      0.679100        1.0080           
   20447 A    5112 TIP4 H2   HW0      0.679100        1.0080           
   20448 A    5112 TIP4 BD1  LP0     -1.358200        0.0000           
   20449 A    5113 TIP4 O1   OW0      0.000000       15.9990           
   20450 A    5113 TIP4 H1   HW0      0.679100        1.0080           
   20451 A    5113 TIP4 H2   HW0      0.679100        1.0080           
   20452 A    5113 TIP4 BD1  LP0     -1.358200        0.0000           
   20453 A    5114 TIP4 O1   OW0      0.000000       15.9990           
   20454 A    5114 TIP4 H1   HW0      0.679100        1.0080           
   20455 A    5114 TIP4 H2   HW0      0.679100        1.0080           
   20456 A    5114 TIP4 BD1  LP0     -1.358200        0.0000           
   20457 A    5115 TIP4 O1   OW0      0.000000       15.9990           
   20458 A    5115 TIP4 H1   HW0      0.679100        1.0080           
   20459 A    5115 TIP4 H2   HW0      0.679100        1.0080           
   20460 A    5115 TIP4 BD1  LP0     -1.358200        0.0000           
   20461 A    5116 TIP4 O1   OW0      0.000000       15.9990           
   20462 A    5116 TIP4 H1   HW0      0.679100        1.0080           
   20463 A    5116 TIP4 H2   HW0      0.679100        1.0080           
   20464 A    5116 TIP4 BD1  LP0     -1.358200        0.0000           
   20465 A    5117 TIP4 O1   OW0      0.000000       15.9990           
   20466 A    5117 TIP4 H1   HW0      0.679100        1.0080           
   20467 A    5117 TIP4 H2   HW0      0.679100        1.0080           
   20468 A    5117 TIP4 BD1  LP0     -1.358200        0.0000           
   20469 A    5118 TIP4 O1   OW0      0.000000       15.9990           
   20470 A    5118 TIP4 H1   HW0      0.679100        1.0080           
   20471 A    5118 TIP4 H2   HW0      0.679100        1.0080           
   20472 A    5118 TIP4 BD1  LP0     -1.358200        0.0000           
   20473 A    5119 TIP4 O1   OW0      0.000000       15.9990           
   20474 A    5119 TIP4 H1   HW0      0.679100        1.0080           
   20475 A    5119 TIP4 H2   HW0      0.679100        1.0080           
   20476 A    5119 TIP4 BD1  LP0     -1.358200        0.0000           
   20477 A    5120 TIP4 O1   OW0      0.000000       15.9990           
   20478 A    5120 TIP4 H1   HW0      0.679100        1.0080           
   20479 A    5120 TIP4 H2   HW0      0.679100        1.0080           
   20480 A    5120 TIP4 BD1  LP0     -1.358200        0.0000           
   20481 A    5121 TIP4 O1   OW0      0.000000       15.9990           
   20482 A    5121 TIP4 H1   HW0      0.679100        1.0080           
   20483 A    5121 TIP4 H2   HW0      0.679100        1.0080           
   20484 A    5121 TIP4 BD1  LP0     -1.358200        0.0000           
   20485 A    5122 TIP4 O1   OW0      0.000000       15.9990           
   20486 A    5122 TIP4 H1   HW0      0.679100        1.0080           
   20487 A    5122 TIP4 H2   HW0      0.679100        1.0080           
   20488 A    5122 TIP4 BD1  LP0     -1.358200        0.0000           
   20489 A    5123 TIP4 O1   OW0      0.000000       15.9990           
   20490 A    5123 TIP4 H1   HW0      0.679100        1.0080           
   20491 A    5123 TIP4 H2   HW0      0.679100        1.0080           
   20492 A    5123 TIP4 BD1  LP0     -1.358200        0.0000           
   20493 A    5124 TIP4 O1   OW0      0.000000       15.9990           
   20494 A    5124 TIP4 H1   HW0      0.679100        1.0080           
   20495 A    5124 TIP4 H2   HW0      0.679100        1.0080           
   20496 A    5124 TIP4 BD1  LP0     -1.358200        0.0000           
   20497 A    5125 TIP4 O1   OW0      0.000000       15.9990           
   20498 A    5125 TIP4 H1   HW0      0.679100        1.0080           
   20499 A    5125 TIP4 H2   HW0      0.679100        1.0080           
   20500 A    5125 TIP4 BD1  LP0     -1.358200        0.0000           
   20501 A    5126 TIP4 O1   OW0      0.000000       15.9990           
   20502 A    5126 TIP4 H1   HW0      0.679100        1.0080           
   20503 A    5126 TIP4 H2   HW0      0.679100        1.0080           
   20504 A    5126 TIP4 BD1  LP0     -1.358200        0.0000           
   20505 A    5127 TIP4 O1   OW0      0.000000       15.9990           
   20506 A    5127 TIP4 H1   HW0      0.679100        1.0080           
   20507 A    5127 TIP4 H2   HW0      0.679100        1.0080           
   20508 A    5127 TIP4 BD1  LP0     -1.358200        0.0000           
   20509 A    5128 TIP4 O1   OW0      0.000000       15.9990           
   20510 A    5128 TIP4 H1   HW0      0.679100        1.0080           
   20511 A    5128 TIP4 H2   HW0      0.679100        1.0080           
   20512 A    5128 TIP4 BD1  LP0     -1.358200        0.0000           
   20513 A    5129 TIP4 O1   OW0      0.000000       15.9990           
   20514 A    5129 TIP4 H1   HW0      0.679100        1.0080           
   20515 A    5129 TIP4 H2   HW0      0.679100        1.0080           
   20516 A    5129 TIP4 BD1  LP0     -1.358200        0.0000           
   20517 A    5130 TIP4 O1   OW0      0.000000       15.9990           
   20518 A    5130 TIP4 H1   HW0      0.679100        1.0080           
   20519 A    5130 TIP4 H2   HW0      0.679100        1.0080           
   20520 A    5130 TIP4 BD1  LP0     -1.358200        0.0000           
   20521 A    5131 TIP4 O1   OW0      0.000000       15.9990           
   20522 A    5131 TIP4 H1   HW0      0.679100        1.0080           
   20523 A    5131 TIP4 H2   HW0      0.679100        1.0080           
   20524 A    5131 TIP4 BD1  LP0     -1.358200        0.0000           
   20525 A    5132 TIP4 O1   OW0      0.000000       15.9990           
   20526 A    5132 TIP4 H1   HW0      0.679100        1.0080           
   20527 A    5132 TIP4 H2   HW0      0.679100        1.0080           
   20528 A    5132 TIP4 BD1  LP0     -1.358200        0.0000           
   20529 A    5133 TIP4 O1   OW0      0.000000       15.9990           
   20530 A    5133 TIP4 H1   HW0      0.679100        1.0080           
   20531 A    5133 TIP4 H2   HW0      0.679100        1.0080           
   20532 A    5133 TIP4 BD1  LP0     -1.358200        0.0000           
   20533 A    5134 TIP4 O1   OW0      0.000000       15.9990           
   20534 A    5134 TIP4 H1   HW0      0.679100        1.0080           
   20535 A    5134 TIP4 H2   HW0      0.679100        1.0080           
   20536 A    5134 TIP4 BD1  LP0     -1.358200        0.0000           
   20537 A    5135 TIP4 O1   OW0      0.000000       15.9990           
   20538 A    5135 TIP4 H1   HW0      0.679100        1.0080           
   20539 A    5135 TIP4 H2   HW0      0.679100        1.0080           
   20540 A    5135 TIP4 BD1  LP0     -1.358200        0.0000           
   20541 A    5136 TIP4 O1   OW0      0.000000       15.9990           
   20542 A    5136 TIP4 H1   HW0      0.679100        1.0080           
   20543 A    5136 TIP4 H2   HW0      0.679100        1.0080           
   20544 A    5136 TIP4 BD1  LP0     -1.358200        0.0000           
   20545 A    5137 TIP4 O1   OW0      0.000000       15.9990           
   20546 A    5137 TIP4 H1   HW0      0.679100        1.0080           
   20547 A    5137 TIP4 H2   HW0      0.679100        1.0080           
   20548 A    5137 TIP4 BD1  LP0     -1.358200        0.0000           
   20549 A    5138 TIP4 O1   OW0      0.000000       15.9990           
   20550 A    5138 TIP4 H1   HW0      0.679100        1.0080           
   20551 A    5138 TIP4 H2   HW0      0.679100        1.0080           
   20552 A    5138 TIP4 BD1  LP0     -1.358200        0.0000           
   20553 A    5139 TIP4 O1   OW0      0.000000       15.9990           
   20554 A    5139 TIP4 H1   HW0      0.679100        1.0080           
   20555 A    5139 TIP4 H2   HW0      0.679100        1.0080           
   20556 A    5139 TIP4 BD1  LP0     -1.358200        0.0000           
   20557 A    5140 TIP4 O1   OW0      0.000000       15.9990           
   20558 A    5140 TIP4 H1   HW0      0.679100        1.0080           
   20559 A    5140 TIP4 H2   HW0      0.679100        1.0080           
   20560 A    5140 TIP4 BD1  LP0     -1.358200        0.0000           
   20561 A    5141 TIP4 O1   OW0      0.000000       15.9990           
   20562 A    5141 TIP4 H1   HW0      0.679100        1.0080           
   20563 A    5141 TIP4 H2   HW0      0.679100        1.0080           
   20564 A    5141 TIP4 BD1  LP0     -1.358200        0.0000           
   20565 A    5142 TIP4 O1   OW0      0.000000       15.9990           
   20566 A    5142 TIP4 H1   HW0      0.679100        1.0080           
   20567 A    5142 TIP4 H2   HW0      0.679100        1.0080           
   20568 A    5142 TIP4 BD1  LP0     -1.358200        0.0000           
   20569 A    5143 TIP4 O1   OW0      0.000000       15.9990           
   20570 A    5143 TIP4 H1   HW0      0.679100        1.0080           
   20571 A    5143 TIP4 H2   HW0      0.679100        1.0080           
   20572 A    5143 TIP4 BD1  LP0     -1.358200        0.0000           
   20573 A    5144 TIP4 O1   OW0      0.000000       15.9990           
   20574 A    5144 TIP4 H1   HW0      0.679100        1.0080           
   20575 A    5144 TIP4 H2   HW0      0.679100        1.0080           
   20576 A    5144 TIP4 BD1  LP0     -1.358200        0.0000           
   20577 A    5145 TIP4 O1   OW0      0.000000       15.9990           
   20578 A    5145 TIP4 H1   HW0      0.679100        1.0080           
   20579 A    5145 TIP4 H2   HW0      0.679100        1.0080           
   20580 A    5145 TIP4 BD1  LP0     -1.358200        0.0000           
   20581 A    5146 TIP4 O1   OW0      0.000000       15.9990           
   20582 A    5146 TIP4 H1   HW0      0.679100        1.0080           
   20583 A    5146 TIP4 H2   HW0      0.679100        1.0080           
   20584 A    5146 TIP4 BD1  LP0     -1.358200        0.0000           
   20585 A    5147 TIP4 O1   OW0      0.000000       15.9990           
   20586 A    5147 TIP4 H1   HW0      0.679100        1.0080           
   20587 A    5147 TIP4 H2   HW0      0.679100        1.0080           
   20588 A    5147 TIP4 BD1  LP0     -1.358200        0.0000           
   20589 A    5148 TIP4 O1   OW0      0.000000       15.9990           
   20590 A    5148 TIP4 H1   HW0      0.679100        1.0080           
   20591 A    5148 TIP4 H2   HW0      0.679100        1.0080           
   20592 A    5148 TIP4 BD1  LP0     -1.358200        0.0000           
   20593 A    5149 TIP4 O1   OW0      0.000000       15.9990           
   20594 A    5149 TIP4 H1   HW0      0.679100        1.0080           
   20595 A    5149 TIP4 H2   HW0      0.679100        1.0080           
   20596 A    5149 TIP4 BD1  LP0     -1.358200        0.0000           
   20597 A    5150 TIP4 O1   OW0      0.000000       15.9990           
   20598 A    5150 TIP4 H1   HW0      0.679100        1.0080           
   20599 A    5150 TIP4 H2   HW0      0.679100        1.0080           
   20600 A    5150 TIP4 BD1  LP0     -1.358200        0.0000           
   20601 A    5151 TIP4 O1   OW0      0.000000       15.9990           
   20602 A    5151 TIP4 H1   HW0      0.679100        1.0080           
   20603 A    5151 TIP4 H2   HW0      0.679100        1.0080           
   20604 A    5151 TIP4 BD1  LP0     -1.358200        0.0000           
   20605 A    5152 TIP4 O1   OW0      0.000000       15.9990           
   20606 A    5152 TIP4 H1   HW0      0.679100        1.0080           
   20607 A    5152 TIP4 H2   HW0      0.679100        1.0080           
   20608 A    5152 TIP4 BD1  LP0     -1.358200        0.0000           
   20609 A    5153 TIP4 O1   OW0      0.000000       15.9990           
   20610 A    5153 TIP4 H1   HW0      0.679100        1.0080           
   20611 A    5153 TIP4 H2   HW0      0.679100        1.0080           
   20612 A    5153 TIP4 BD1  LP0     -1.358200        0.0000           
   20613 A    5154 TIP4 O1   OW0      0.000000       15.9990           
   20614 A    5154 TIP4 H1   HW0      0.679100        1.0080           
   20615 A    5154 TIP4 H2   HW0      0.679100        1.0080           
   20616 A    5154 TIP4 BD1  LP0     -1.358200        0.0000           
   20617 A    5155 TIP4 O1   OW0      0.000000       15.9990           
   20618 A    5155 TIP4 H1   HW0      0.679100        1.0080           
   20619 A    5155 TIP4 H2   HW0      0.679100        1.0080           
   20620 A    5155 TIP4 BD1  LP0     -1.358200        0.0000           
   20621 A    5156 TIP4 O1   OW0      0.000000       15.9990           
   20622 A    5156 TIP4 H1   HW0      0.679100        1.0080           
   20623 A    5156 TIP4 H2   HW0      0.679100        1.0080           
   20624 A    5156 TIP4 BD1  LP0     -1.358200        0.0000           
   20625 A    5157 TIP4 O1   OW0      0.000000       15.9990           
   20626 A    5157 TIP4 H1   HW0      0.679100        1.0080           
   20627 A    5157 TIP4 H2   HW0      0.679100        1.0080           
   20628 A    5157 TIP4 BD1  LP0     -1.358200        0.0000           
   20629 A    5158 TIP4 O1   OW0      0.000000       15.9990           
   20630 A    5158 TIP4 H1   HW0      0.679100        1.0080           
   20631 A    5158 TIP4 H2   HW0      0.679100        1.0080           
   20632 A    5158 TIP4 BD1  LP0     -1.358200        0.0000           
   20633 A    5159 TIP4 O1   OW0      0.000000       15.9990           
   20634 A    5159 TIP4 H1   HW0      0.679100        1.0080           
   20635 A    5159 TIP4 H2   HW0      0.679100        1.0080           
   20636 A    5159 TIP4 BD1  LP0     -1.358200        0.0000           
   20637 A    5160 TIP4 O1   OW0      0.000000       15.9990           
   20638 A    5160 TIP4 H1   HW0      0.679100        1.0080           
   20639 A    5160 TIP4 H2   HW0      0.679100        1.0080           
   20640 A    5160 TIP4 BD1  LP0     -1.358200        0.0000           
   20641 A    5161 TIP4 O1   OW0      0.000000       15.9990           
   20642 A    5161 TIP4 H1   HW0      0.679100        1.0080           
   20643 A    5161 TIP4 H2   HW0      0.679100        1.0080           
   20644 A    5161 TIP4 BD1  LP0     -1.358200        0.0000           
   20645 A    5162 TIP4 O1   OW0      0.000000       15.9990           
   20646 A    5162 TIP4 H1   HW0      0.679100        1.0080           
   20647 A    5162 TIP4 H2   HW0      0.679100        1.0080           
   20648 A    5162 TIP4 BD1  LP0     -1.358200        0.0000           
   20649 A    5163 TIP4 O1   OW0      0.000000       15.9990           
   20650 A    5163 TIP4 H1   HW0      0.679100        1.0080           
   20651 A    5163 TIP4 H2   HW0      0.679100        1.0080           
   20652 A    5163 TIP4 BD1  LP0     -1.358200        0.0000           
   20653 A    5164 TIP4 O1   OW0      0.000000       15.9990           
   20654 A    5164 TIP4 H1   HW0      0.679100        1.0080           
   20655 A    5164 TIP4 H2   HW0      0.679100        1.0080           
   20656 A    5164 TIP4 BD1  LP0     -1.358200        0.0000           
   20657 A    5165 TIP4 O1   OW0      0.000000       15.9990           
   20658 A    5165 TIP4 H1   HW0      0.679100        1.0080           
   20659 A    5165 TIP4 H2   HW0      0.679100        1.0080           
   20660 A    5165 TIP4 BD1  LP0     -1.358200        0.0000           
   20661 A    5166 TIP4 O1   OW0      0.000000       15.9990           
   20662 A    5166 TIP4 H1   HW0      0.679100        1.0080           
   20663 A    5166 TIP4 H2   HW0      0.679100        1.0080           
   20664 A    5166 TIP4 BD1  LP0     -1.358200        0.0000           
   20665 A    5167 TIP4 O1   OW0      0.000000       15.9990           
   20666 A    5167 TIP4 H1   HW0      0.679100        1.0080           
   20667 A    5167 TIP4 H2   HW0      0.679100        1.0080           
   20668 A    5167 TIP4 BD1  LP0     -1.358200        0.0000           
   20669 A    5168 TIP4 O1   OW0      0.000000       15.9990           
   20670 A    5168 TIP4 H1   HW0      0.679100        1.0080           
   20671 A    5168 TIP4 H2   HW0      0.679100        1.0080           
   20672 A    5168 TIP4 BD1  LP0     -1.358200        0.0000           
   20673 A    5169 TIP4 O1   OW0      0.000000       15.9990           
   20674 A    5169 TIP4 H1   HW0      0.679100        1.0080           
   20675 A    5169 TIP4 H2   HW0      0.679100        1.0080           
   20676 A    5169 TIP4 BD1  LP0     -1.358200        0.0000           
   20677 A    5170 TIP4 O1   OW0      0.000000       15.9990           
   20678 A    5170 TIP4 H1   HW0      0.679100        1.0080           
   20679 A    5170 TIP4 H2   HW0      0.679100        1.0080           
   20680 A    5170 TIP4 BD1  LP0     -1.358200        0.0000           
   20681 A    5171 TIP4 O1   OW0      0.000000       15.9990           
   20682 A    5171 TIP4 H1   HW0      0.679100        1.0080           
   20683 A    5171 TIP4 H2   HW0      0.679100        1.0080           
   20684 A    5171 TIP4 BD1  LP0     -1.358200        0.0000           
   20685 A    5172 TIP4 O1   OW0      0.000000       15.9990           
   20686 A    5172 TIP4 H1   HW0      0.679100        1.0080           
   20687 A    5172 TIP4 H2   HW0      0.679100        1.0080           
   20688 A    5172 TIP4 BD1  LP0     -1.358200        0.0000           
   20689 A    5173 TIP4 O1   OW0      0.000000       15.9990           
   20690 A    5173 TIP4 H1   HW0      0.679100        1.0080           
   20691 A    5173 TIP4 H2   HW0      0.679100        1.0080           
   20692 A    5173 TIP4 BD1  LP0     -1.358200        0.0000           
   20693 A    5174 TIP4 O1   OW0      0.000000       15.9990           
   20694 A    5174 TIP4 H1   HW0      0.679100        1.0080           
   20695 A    5174 TIP4 H2   HW0      0.679100        1.0080           
   20696 A    5174 TIP4 BD1  LP0     -1.358200        0.0000           
   20697 A    5175 TIP4 O1   OW0      0.000000       15.9990           
   20698 A    5175 TIP4 H1   HW0      0.679100        1.0080           
   20699 A    5175 TIP4 H2   HW0      0.679100        1.0080           
   20700 A    5175 TIP4 BD1  LP0     -1.358200        0.0000           
   20701 A    5176 TIP4 O1   OW0      0.000000       15.9990           
   20702 A    5176 TIP4 H1   HW0      0.679100        1.0080           
   20703 A    5176 TIP4 H2   HW0      0.679100        1.0080           
   20704 A    5176 TIP4 BD1  LP0     -1.358200        0.0000           
   20705 A    5177 TIP4 O1   OW0      0.000000       15.9990           
   20706 A    5177 TIP4 H1   HW0      0.679100        1.0080           
   20707 A    5177 TIP4 H2   HW0      0.679100        1.0080           
   20708 A    5177 TIP4 BD1  LP0     -1.358200        0.0000           
   20709 A    5178 TIP4 O1   OW0      0.000000       15.9990           
   20710 A    5178 TIP4 H1   HW0      0.679100        1.0080           
   20711 A    5178 TIP4 H2   HW0      0.679100        1.0080           
   20712 A    5178 TIP4 BD1  LP0     -1.358200        0.0000           
   20713 A    5179 TIP4 O1   OW0      0.000000       15.9990           
   20714 A    5179 TIP4 H1   HW0      0.679100        1.0080           
   20715 A    5179 TIP4 H2   HW0      0.679100        1.0080           
   20716 A    5179 TIP4 BD1  LP0     -1.358200        0.0000           
   20717 A    5180 TIP4 O1   OW0      0.000000       15.9990           
   20718 A    5180 TIP4 H1   HW0      0.679100        1.0080           
   20719 A    5180 TIP4 H2   HW0      0.679100        1.0080           
   20720 A    5180 TIP4 BD1  LP0     -1.358200        0.0000           
   20721 A    5181 TIP4 O1   OW0      0.000000       15.9990           
   20722 A    5181 TIP4 H1   HW0      0.679100        1.0080           
   20723 A    5181 TIP4 H2   HW0      0.679100        1.0080           
   20724 A    5181 TIP4 BD1  LP0     -1.358200        0.0000           
   20725 A    5182 TIP4 O1   OW0      0.000000       15.9990           
   20726 A    5182 TIP4 H1   HW0      0.679100        1.0080           
   20727 A    5182 TIP4 H2   HW0      0.679100        1.0080           
   20728 A    5182 TIP4 BD1  LP0     -1.358200        0.0000           
   20729 A    5183 TIP4 O1   OW0      0.000000       15.9990           
   20730 A    5183 TIP4 H1   HW0      0.679100        1.0080           
   20731 A    5183 TIP4 H2   HW0      0.679100        1.0080           
   20732 A    5183 TIP4 BD1  LP0     -1.358200        0.0000           
   20733 A    5184 TIP4 O1   OW0      0.000000       15.9990           
   20734 A    5184 TIP4 H1   HW0      0.679100        1.0080           
   20735 A    5184 TIP4 H2   HW0      0.679100        1.0080           
   20736 A    5184 TIP4 BD1  LP0     -1.358200        0.0000           
   20737 A    5185 TIP4 O1   OW0      0.000000       15.9990           
   20738 A    5185 TIP4 H1   HW0      0.679100        1.0080           
   20739 A    5185 TIP4 H2   HW0      0.679100        1.0080           
   20740 A    5185 TIP4 BD1  LP0     -1.358200        0.0000           
   20741 A    5186 TIP4 O1   OW0      0.000000       15.9990           
   20742 A    5186 TIP4 H1   HW0      0.679100        1.0080           
   20743 A    5186 TIP4 H2   HW0      0.679100        1.0080           
   20744 A    5186 TIP4 BD1  LP0     -1.358200        0.0000           
   20745 A    5187 TIP4 O1   OW0      0.000000       15.9990           
   20746 A    5187 TIP4 H1   HW0      0.679100        1.0080           
   20747 A    5187 TIP4 H2   HW0      0.679100        1.0080           
   20748 A    5187 TIP4 BD1  LP0     -1.358200        0.0000           
   20749 A    5188 TIP4 O1   OW0      0.000000       15.9990           
   20750 A    5188 TIP4 H1   HW0      0.679100        1.0080           
   20751 A    5188 TIP4 H2   HW0      0.679100        1.0080           
   20752 A    5188 TIP4 BD1  LP0     -1.358200        0.0000           
   20753 A    5189 TIP4 O1   OW0      0.000000       15.9990           
   20754 A    5189 TIP4 H1   HW0      0.679100        1.0080           
   20755 A    5189 TIP4 H2   HW0      0.679100        1.0080           
   20756 A    5189 TIP4 BD1  LP0     -1.358200        0.0000           
   20757 A    5190 TIP4 O1   OW0      0.000000       15.9990           
   20758 A    5190 TIP4 H1   HW0      0.679100        1.0080           
   20759 A    5190 TIP4 H2   HW0      0.679100        1.0080           
   20760 A    5190 TIP4 BD1  LP0     -1.358200        0.0000           
   20761 A    5191 TIP4 O1   OW0      0.000000       15.9990           
   20762 A    5191 TIP4 H1   HW0      0.679100        1.0080           
   20763 A    5191 TIP4 H2   HW0      0.679100        1.0080           
   20764 A    5191 TIP4 BD1  LP0     -1.358200        0.0000           
   20765 A    5192 TIP4 O1   OW0      0.000000       15.9990           
   20766 A    5192 TIP4 H1   HW0      0.679100        1.0080           
   20767 A    5192 TIP4 H2   HW0      0.679100        1.0080           
   20768 A    5192 TIP4 BD1  LP0     -1.358200        0.0000           
   20769 A    5193 TIP4 O1   OW0      0.000000       15.9990           
   20770 A    5193 TIP4 H1   HW0      0.679100        1.0080           
   20771 A    5193 TIP4 H2   HW0      0.679100        1.0080           
   20772 A    5193 TIP4 BD1  LP0     -1.358200        0.0000           
   20773 A    5194 TIP4 O1   OW0      0.000000       15.9990           
   20774 A    5194 TIP4 H1   HW0      0.679100        1.0080           
   20775 A    5194 TIP4 H2   HW0      0.679100        1.0080           
   20776 A    5194 TIP4 BD1  LP0     -1.358200        0.0000           
   20777 A    5195 TIP4 O1   OW0      0.000000       15.9990           
   20778 A    5195 TIP4 H1   HW0      0.679100        1.0080           
   20779 A    5195 TIP4 H2   HW0      0.679100        1.0080           
   20780 A    5195 TIP4 BD1  LP0     -1.358200        0.0000           
   20781 A    5196 TIP4 O1   OW0      0.000000       15.9990           
   20782 A    5196 TIP4 H1   HW0      0.679100        1.0080           
   20783 A    5196 TIP4 H2   HW0      0.679100        1.0080           
   20784 A    5196 TIP4 BD1  LP0     -1.358200        0.0000           
   20785 A    5197 TIP4 O1   OW0      0.000000       15.9990           
   20786 A    5197 TIP4 H1   HW0      0.679100        1.0080           
   20787 A    5197 TIP4 H2   HW0      0.679100        1.0080           
   20788 A    5197 TIP4 BD1  LP0     -1.358200        0.0000           
   20789 A    5198 TIP4 O1   OW0      0.000000       15.9990           
   20790 A    5198 TIP4 H1   HW0      0.679100        1.0080           
   20791 A    5198 TIP4 H2   HW0      0.679100        1.0080           
   20792 A    5198 TIP4 BD1  LP0     -1.358200        0.0000           
   20793 A    5199 TIP4 O1   OW0      0.000000       15.9990           
   20794 A    5199 TIP4 H1   HW0      0.679100        1.0080           
   20795 A    5199 TIP4 H2   HW0      0.679100        1.0080           
   20796 A    5199 TIP4 BD1  LP0     -1.358200        0.0000           
   20797 A    5200 TIP4 O1   OW0      0.000000       15.9990           
   20798 A    5200 TIP4 H1   HW0      0.679100        1.0080           
   20799 A    5200 TIP4 H2   HW0      0.679100        1.0080           
   20800 A    5200 TIP4 BD1  LP0     -1.358200        0.0000           
   20801 A    5201 TIP4 O1   OW0      0.000000       15.9990           
   20802 A    5201 TIP4 H1   HW0      0.679100        1.0080           
   20803 A    5201 TIP4 H2   HW0      0.679100        1.0080           
   20804 A    5201 TIP4 BD1  LP0     -1.358200        0.0000           
   20805 A    5202 TIP4 O1   OW0      0.000000       15.9990           
   20806 A    5202 TIP4 H1   HW0      0.679100        1.0080           
   20807 A    5202 TIP4 H2   HW0      0.679100        1.0080           
   20808 A    5202 TIP4 BD1  LP0     -1.358200        0.0000           
   20809 A    5203 TIP4 O1   OW0      0.000000       15.9990           
   20810 A    5203 TIP4 H1   HW0      0.679100        1.0080           
   20811 A    5203 TIP4 H2   HW0      0.679100        1.0080           
   20812 A    5203 TIP4 BD1  LP0     -1.358200        0.0000           
   20813 A    5204 TIP4 O1   OW0      0.000000       15.9990           
   20814 A    5204 TIP4 H1   HW0      0.679100        1.0080           
   20815 A    5204 TIP4 H2   HW0      0.679100        1.0080           
   20816 A    5204 TIP4 BD1  LP0     -1.358200        0.0000           
   20817 A    5205 TIP4 O1   OW0      0.000000       15.9990           
   20818 A    5205 TIP4 H1   HW0      0.679100        1.0080           
   20819 A    5205 TIP4 H2   HW0      0.679100        1.0080           
   20820 A    5205 TIP4 BD1  LP0     -1.358200        0.0000           
   20821 A    5206 TIP4 O1   OW0      0.000000       15.9990           
   20822 A    5206 TIP4 H1   HW0      0.679100        1.0080           
   20823 A    5206 TIP4 H2   HW0      0.679100        1.0080           
   20824 A    5206 TIP4 BD1  LP0     -1.358200        0.0000           
   20825 A    5207 TIP4 O1   OW0      0.000000       15.9990           
   20826 A    5207 TIP4 H1   HW0      0.679100        1.0080           
   20827 A    5207 TIP4 H2   HW0      0.679100        1.0080           
   20828 A    5207 TIP4 BD1  LP0     -1.358200        0.0000           
   20829 A    5208 TIP4 O1   OW0      0.000000       15.9990           
   20830 A    5208 TIP4 H1   HW0      0.679100        1.0080           
   20831 A    5208 TIP4 H2   HW0      0.679100        1.0080           
   20832 A    5208 TIP4 BD1  LP0     -1.358200        0.0000           
   20833 A    5209 TIP4 O1   OW0      0.000000       15.9990           
   20834 A    5209 TIP4 H1   HW0      0.679100        1.0080           
   20835 A    5209 TIP4 H2   HW0      0.679100        1.0080           
   20836 A    5209 TIP4 BD1  LP0     -1.358200        0.0000           
   20837 A    5210 TIP4 O1   OW0      0.000000       15.9990           
   20838 A    5210 TIP4 H1   HW0      0.679100        1.0080           
   20839 A    5210 TIP4 H2   HW0      0.679100        1.0080           
   20840 A    5210 TIP4 BD1  LP0     -1.358200        0.0000           
   20841 A    5211 TIP4 O1   OW0      0.000000       15.9990           
   20842 A    5211 TIP4 H1   HW0      0.679100        1.0080           
   20843 A    5211 TIP4 H2   HW0      0.679100        1.0080           
   20844 A    5211 TIP4 BD1  LP0     -1.358200        0.0000           
   20845 A    5212 TIP4 O1   OW0      0.000000       15.9990           
   20846 A    5212 TIP4 H1   HW0      0.679100        1.0080           
   20847 A    5212 TIP4 H2   HW0      0.679100        1.0080           
   20848 A    5212 TIP4 BD1  LP0     -1.358200        0.0000           
   20849 A    5213 TIP4 O1   OW0      0.000000       15.9990           
   20850 A    5213 TIP4 H1   HW0      0.679100        1.0080           
   20851 A    5213 TIP4 H2   HW0      0.679100        1.0080           
   20852 A    5213 TIP4 BD1  LP0     -1.358200        0.0000           
   20853 A    5214 TIP4 O1   OW0      0.000000       15.9990           
   20854 A    5214 TIP4 H1   HW0      0.679100        1.0080           
   20855 A    5214 TIP4 H2   HW0      0.679100        1.0080           
   20856 A    5214 TIP4 BD1  LP0     -1.358200        0.0000           
   20857 A    5215 TIP4 O1   OW0      0.000000       15.9990           
   20858 A    5215 TIP4 H1   HW0      0.679100        1.0080           
   20859 A    5215 TIP4 H2   HW0      0.679100        1.0080           
   20860 A    5215 TIP4 BD1  LP0     -1.358200        0.0000           
   20861 A    5216 TIP4 O1   OW0      0.000000       15.9990           
   20862 A    5216 TIP4 H1   HW0      0.679100        1.0080           
   20863 A    5216 TIP4 H2   HW0      0.679100        1.0080           
   20864 A    5216 TIP4 BD1  LP0     -1.358200        0.0000           
   20865 A    5217 TIP4 O1   OW0      0.000000       15.9990           
   20866 A    5217 TIP4 H1   HW0      0.679100        1.0080           
   20867 A    5217 TIP4 H2   HW0      0.679100        1.0080           
   20868 A    5217 TIP4 BD1  LP0     -1.358200        0.0000           
   20869 A    5218 TIP4 O1   OW0      0.000000       15.9990           
   20870 A    5218 TIP4 H1   HW0      0.679100        1.0080           
   20871 A    5218 TIP4 H2   HW0      0.679100        1.0080           
   20872 A    5218 TIP4 BD1  LP0     -1.358200        0.0000           
   20873 A    5219 TIP4 O1   OW0      0.000000       15.9990           
   20874 A    5219 TIP4 H1   HW0      0.679100        1.0080           
   20875 A    5219 TIP4 H2   HW0      0.679100        1.0080           
   20876 A    5219 TIP4 BD1  LP0     -1.358200        0.0000           
   20877 A    5220 TIP4 O1   OW0      0.000000       15.9990           
   20878 A    5220 TIP4 H1   HW0      0.679100        1.0080           
   20879 A    5220 TIP4 H2   HW0      0.679100        1.0080           
   20880 A    5220 TIP4 BD1  LP0     -1.358200        0.0000           
   20881 A    5221 TIP4 O1   OW0      0.000000       15.9990           
   20882 A    5221 TIP4 H1   HW0      0.679100        1.0080           
   20883 A    5221 TIP4 H2   HW0      0.679100        1.0080           
   20884 A    5221 TIP4 BD1  LP0     -1.358200        0.0000           
   20885 A    5222 TIP4 O1   OW0      0.000000       15.9990           
   20886 A    5222 TIP4 H1   HW0      0.679100        1.0080           
   20887 A    5222 TIP4 H2   HW0      0.679100        1.0080           
   20888 A    5222 TIP4 BD1  LP0     -1.358200        0.0000           
   20889 A    5223 TIP4 O1   OW0      0.000000       15.9990           
   20890 A    5223 TIP4 H1   HW0      0.679100        1.0080           
   20891 A    5223 TIP4 H2   HW0      0.679100        1.0080           
   20892 A    5223 TIP4 BD1  LP0     -1.358200        0.0000           
   20893 A    5224 TIP4 O1   OW0      0.000000       15.9990           
   20894 A    5224 TIP4 H1   HW0      0.679100        1.0080           
   20895 A    5224 TIP4 H2   HW0      0.679100        1.0080           
   20896 A    5224 TIP4 BD1  LP0     -1.358200        0.0000           
   20897 A    5225 TIP4 O1   OW0      0.000000       15.9990           
   20898 A    5225 TIP4 H1   HW0      0.679100        1.0080           
   20899 A    5225 TIP4 H2   HW0      0.679100        1.0080           
   20900 A    5225 TIP4 BD1  LP0     -1.358200        0.0000           
   20901 A    5226 TIP4 O1   OW0      0.000000       15.9990           
   20902 A    5226 TIP4 H1   HW0      0.679100        1.0080           
   20903 A    5226 TIP4 H2   HW0      0.679100        1.0080           
   20904 A    5226 TIP4 BD1  LP0     -1.358200        0.0000           
   20905 A    5227 TIP4 O1   OW0      0.000000       15.9990           
   20906 A    5227 TIP4 H1   HW0      0.679100        1.0080           
   20907 A    5227 TIP4 H2   HW0      0.679100        1.0080           
   20908 A    5227 TIP4 BD1  LP0     -1.358200        0.0000           
   20909 A    5228 TIP4 O1   OW0      0.000000       15.9990           
   20910 A    5228 TIP4 H1   HW0      0.679100        1.0080           
   20911 A    5228 TIP4 H2   HW0      0.679100        1.0080           
   20912 A    5228 TIP4 BD1  LP0     -1.358200        0.0000           
   20913 A    5229 TIP4 O1   OW0      0.000000       15.9990           
   20914 A    5229 TIP4 H1   HW0      0.679100        1.0080           
   20915 A    5229 TIP4 H2   HW0      0.679100        1.0080           
   20916 A    5229 TIP4 BD1  LP0     -1.358200        0.0000           
   20917 A    5230 TIP4 O1   OW0      0.000000       15.9990           
   20918 A    5230 TIP4 H1   HW0      0.679100        1.0080           
   20919 A    5230 TIP4 H2   HW0      0.679100        1.0080           
   20920 A    5230 TIP4 BD1  LP0     -1.358200        0.0000           
   20921 A    5231 TIP4 O1   OW0      0.000000       15.9990           
   20922 A    5231 TIP4 H1   HW0      0.679100        1.0080           
   20923 A    5231 TIP4 H2   HW0      0.679100        1.0080           
   20924 A    5231 TIP4 BD1  LP0     -1.358200        0.0000           
   20925 A    5232 TIP4 O1   OW0      0.000000       15.9990           
   20926 A    5232 TIP4 H1   HW0      0.679100        1.0080           
   20927 A    5232 TIP4 H2   HW0      0.679100        1.0080           
   20928 A    5232 TIP4 BD1  LP0     -1.358200        0.0000           
   20929 A    5233 TIP4 O1   OW0      0.000000       15.9990           
   20930 A    5233 TIP4 H1   HW0      0.679100        1.0080           
   20931 A    5233 TIP4 H2   HW0      0.679100        1.0080           
   20932 A    5233 TIP4 BD1  LP0     -1.358200        0.0000           
   20933 A    5234 TIP4 O1   OW0      0.000000       15.9990           
   20934 A    5234 TIP4 H1   HW0      0.679100        1.0080           
   20935 A    5234 TIP4 H2   HW0      0.679100        1.0080           
   20936 A    5234 TIP4 BD1  LP0     -1.358200        0.0000           
   20937 A    5235 TIP4 O1   OW0      0.000000       15.9990           
   20938 A    5235 TIP4 H1   HW0      0.679100        1.0080           
   20939 A    5235 TIP4 H2   HW0      0.679100        1.0080           
   20940 A    5235 TIP4 BD1  LP0     -1.358200        0.0000           
   20941 A    5236 TIP4 O1   OW0      0.000000       15.9990           
   20942 A    5236 TIP4 H1   HW0      0.679100        1.0080           
   20943 A    5236 TIP4 H2   HW0      0.679100        1.0080           
   20944 A    5236 TIP4 BD1  LP0     -1.358200        0.0000           
   20945 A    5237 TIP4 O1   OW0      0.000000       15.9990           
   20946 A    5237 TIP4 H1   HW0      0.679100        1.0080           
   20947 A    5237 TIP4 H2   HW0      0.679100        1.0080           
   20948 A    5237 TIP4 BD1  LP0     -1.358200        0.0000           
   20949 A    5238 TIP4 O1   OW0      0.000000       15.9990           
   20950 A    5238 TIP4 H1   HW0      0.679100        1.0080           
   20951 A    5238 TIP4 H2   HW0      0.679100        1.0080           
   20952 A    5238 TIP4 BD1  LP0     -1.358200        0.0000           
   20953 A    5239 TIP4 O1   OW0      0.000000       15.9990           
   20954 A    5239 TIP4 H1   HW0      0.679100        1.0080           
   20955 A    5239 TIP4 H2   HW0      0.679100        1.0080           
   20956 A    5239 TIP4 BD1  LP0     -1.358200        0.0000           
   20957 A    5240 TIP4 O1   OW0      0.000000       15.9990           
   20958 A    5240 TIP4 H1   HW0      0.679100        1.0080           
   20959 A    5240 TIP4 H2   HW0      0.679100        1.0080           
   20960 A    5240 TIP4 BD1  LP0     -1.358200        0.0000           
   20961 A    5241 TIP4 O1   OW0      0.000000       15.9990           
   20962 A    5241 TIP4 H1   HW0      0.679100        1.0080           
   20963 A    5241 TIP4 H2   HW0      0.679100        1.0080           
   20964 A    5241 TIP4 BD1  LP0     -1.358200        0.0000           
   20965 A    5242 TIP4 O1   OW0      0.000000       15.9990           
   20966 A    5242 TIP4 H1   HW0      0.679100        1.0080           
   20967 A    5242 TIP4 H2   HW0      0.679100        1.0080           
   20968 A    5242 TIP4 BD1  LP0     -1.358200        0.0000           
   20969 A    5243 TIP4 O1   OW0      0.000000       15.9990           
   20970 A    5243 TIP4 H1   HW0      0.679100        1.0080           
   20971 A    5243 TIP4 H2   HW0      0.679100        1.0080           
   20972 A    5243 TIP4 BD1  LP0     -1.358200        0.0000           
   20973 A    5244 TIP4 O1   OW0      0.000000       15.9990           
   20974 A    5244 TIP4 H1   HW0      0.679100        1.0080           
   20975 A    5244 TIP4 H2   HW0      0.679100        1.0080           
   20976 A    5244 TIP4 BD1  LP0     -1.358200        0.0000           
   20977 A    5245 TIP4 O1   OW0      0.000000       15.9990           
   20978 A    5245 TIP4 H1   HW0      0.679100        1.0080           
   20979 A    5245 TIP4 H2   HW0      0.679100        1.0080           
   20980 A    5245 TIP4 BD1  LP0     -1.358200        0.0000           
   20981 A    5246 TIP4 O1   OW0      0.000000       15.9990           
   20982 A    5246 TIP4 H1   HW0      0.679100        1.0080           
   20983 A    5246 TIP4 H2   HW0      0.679100        1.0080           
   20984 A    5246 TIP4 BD1  LP0     -1.358200        0.0000           
   20985 A    5247 TIP4 O1   OW0      0.000000       15.9990           
   20986 A    5247 TIP4 H1   HW0      0.679100        1.0080           
   20987 A    5247 TIP4 H2   HW0      0.679100        1.0080           
   20988 A    5247 TIP4 BD1  LP0     -1.358200        0.0000           
   20989 A    5248 TIP4 O1   OW0      0.000000       15.9990           
   20990 A    5248 TIP4 H1   HW0      0.679100        1.0080           
   20991 A    5248 TIP4 H2   HW0      0.679100        1.0080           
   20992 A    5248 TIP4 BD1  LP0     -1.358200        0.0000           
   20993 A    5249 TIP4 O1   OW0      0.000000       15.9990           
   20994 A    5249 TIP4 H1   HW0      0.679100        1.0080           
   20995 A    5249 TIP4 H2   HW0      0.679100        1.0080           
   20996 A    5249 TIP4 BD1  LP0     -1.358200        0.0000           
   20997 A    5250 TIP4 O1   OW0      0.000000       15.9990           
   20998 A    5250 TIP4 H1   HW0      0.679100        1.0080           
   20999 A    5250 TIP4 H2   HW0      0.679100        1.0080           
   21000 A    5250 TIP4 BD1  LP0     -1.358200        0.0000           
   21001 A    5251 TIP4 O1   OW0      0.000000       15.9990           
   21002 A    5251 TIP4 H1   HW0      0.679100        1.0080           
   21003 A    5251 TIP4 H2   HW0      0.679100        1.0080           
   21004 A    5251 TIP4 BD1  LP0     -1.358200        0.0000           
   21005 A    5252 TIP4 O1   OW0      0.000000       15.9990           
   21006 A    5252 TIP4 H1   HW0      0.679100        1.0080           
   21007 A    5252 TIP4 H2   HW0      0.679100        1.0080           
   21008 A    5252 TIP4 BD1  LP0     -1.358200        0.0000           
   21009 A    5253 TIP4 O1   OW0      0.000000       15.9990           
   21010 A    5253 TIP4 H1   HW0      0.679100        1.0080           
   21011 A    5253 TIP4 H2   HW0      0.679100        1.0080           
   21012 A    5253 TIP4 BD1  LP0     -1.358200        0.0000           
   21013 A    5254 TIP4 O1   OW0      0.000000       15.9990           
   21014 A    5254 TIP4 H1   HW0      0.679100        1.0080           
   21015 A    5254 TIP4 H2   HW0      0.679100        1.0080           
   21016 A    5254 TIP4 BD1  LP0     -1.358200        0.0000           
   21017 A    5255 TIP4 O1   OW0      0.000000       15.9990           
   21018 A    5255 TIP4 H1   HW0      0.679100        1.0080           
   21019 A    5255 TIP4 H2   HW0      0.679100        1.0080           
   21020 A    5255 TIP4 BD1  LP0     -1.358200        0.0000           
   21021 A    5256 TIP4 O1   OW0      0.000000       15.9990           
   21022 A    5256 TIP4 H1   HW0      0.679100        1.0080           
   21023 A    5256 TIP4 H2   HW0      0.679100        1.0080           
   21024 A    5256 TIP4 BD1  LP0     -1.358200        0.0000           
   21025 A    5257 TIP4 O1   OW0      0.000000       15.9990           
   21026 A    5257 TIP4 H1   HW0      0.679100        1.0080           
   21027 A    5257 TIP4 H2   HW0      0.679100        1.0080           
   21028 A    5257 TIP4 BD1  LP0     -1.358200        0.0000           
   21029 A    5258 TIP4 O1   OW0      0.000000       15.9990           
   21030 A    5258 TIP4 H1   HW0      0.679100        1.0080           
   21031 A    5258 TIP4 H2   HW0      0.679100        1.0080           
   21032 A    5258 TIP4 BD1  LP0     -1.358200        0.0000           
   21033 A    5259 TIP4 O1   OW0      0.000000       15.9990           
   21034 A    5259 TIP4 H1   HW0      0.679100        1.0080           
   21035 A    5259 TIP4 H2   HW0      0.679100        1.0080           
   21036 A    5259 TIP4 BD1  LP0     -1.358200        0.0000           
   21037 A    5260 TIP4 O1   OW0      0.000000       15.9990           
   21038 A    5260 TIP4 H1   HW0      0.679100        1.0080           
   21039 A    5260 TIP4 H2   HW0      0.679100        1.0080           
   21040 A    5260 TIP4 BD1  LP0     -1.358200        0.0000           
   21041 A    5261 TIP4 O1   OW0      0.000000       15.9990           
   21042 A    5261 TIP4 H1   HW0      0.679100        1.0080           
   21043 A    5261 TIP4 H2   HW0      0.679100        1.0080           
   21044 A    5261 TIP4 BD1  LP0     -1.358200        0.0000           
   21045 A    5262 TIP4 O1   OW0      0.000000       15.9990           
   21046 A    5262 TIP4 H1   HW0      0.679100        1.0080           
   21047 A    5262 TIP4 H2   HW0      0.679100        1.0080           
   21048 A    5262 TIP4 BD1  LP0     -1.358200        0.0000           
   21049 A    5263 TIP4 O1   OW0      0.000000       15.9990           
   21050 A    5263 TIP4 H1   HW0      0.679100        1.0080           
   21051 A    5263 TIP4 H2   HW0      0.679100        1.0080           
   21052 A    5263 TIP4 BD1  LP0     -1.358200        0.0000           
   21053 A    5264 TIP4 O1   OW0      0.000000       15.9990           
   21054 A    5264 TIP4 H1   HW0      0.679100        1.0080           
   21055 A    5264 TIP4 H2   HW0      0.679100        1.0080           
   21056 A    5264 TIP4 BD1  LP0     -1.358200        0.0000           
   21057 A    5265 TIP4 O1   OW0      0.000000       15.9990           
   21058 A    5265 TIP4 H1   HW0      0.679100        1.0080           
   21059 A    5265 TIP4 H2   HW0      0.679100        1.0080           
   21060 A    5265 TIP4 BD1  LP0     -1.358200        0.0000           
   21061 A    5266 TIP4 O1   OW0      0.000000       15.9990           
   21062 A    5266 TIP4 H1   HW0      0.679100        1.0080           
   21063 A    5266 TIP4 H2   HW0      0.679100        1.0080           
   21064 A    5266 TIP4 BD1  LP0     -1.358200        0.0000           
   21065 A    5267 TIP4 O1   OW0      0.000000       15.9990           
   21066 A    5267 TIP4 H1   HW0      0.679100        1.0080           
   21067 A    5267 TIP4 H2   HW0      0.679100        1.0080           
   21068 A    5267 TIP4 BD1  LP0     -1.358200        0.0000           
   21069 A    5268 TIP4 O1   OW0      0.000000       15.9990           
   21070 A    5268 TIP4 H1   HW0      0.679100        1.0080           
   21071 A    5268 TIP4 H2   HW0      0.679100        1.0080           
   21072 A    5268 TIP4 BD1  LP0     -1.358200        0.0000           
   21073 A    5269 TIP4 O1   OW0      0.000000       15.9990           
   21074 A    5269 TIP4 H1   HW0      0.679100        1.0080           
   21075 A    5269 TIP4 H2   HW0      0.679100        1.0080           
   21076 A    5269 TIP4 BD1  LP0     -1.358200        0.0000           
   21077 A    5270 TIP4 O1   OW0      0.000000       15.9990           
   21078 A    5270 TIP4 H1   HW0      0.679100        1.0080           
   21079 A    5270 TIP4 H2   HW0      0.679100        1.0080           
   21080 A    5270 TIP4 BD1  LP0     -1.358200        0.0000           
   21081 A    5271 TIP4 O1   OW0      0.000000       15.9990           
   21082 A    5271 TIP4 H1   HW0      0.679100        1.0080           
   21083 A    5271 TIP4 H2   HW0      0.679100        1.0080           
   21084 A    5271 TIP4 BD1  LP0     -1.358200        0.0000           
   21085 A    5272 TIP4 O1   OW0      0.000000       15.9990           
   21086 A    5272 TIP4 H1   HW0      0.679100        1.0080           
   21087 A    5272 TIP4 H2   HW0      0.679100        1.0080           
   21088 A    5272 TIP4 BD1  LP0     -1.358200        0.0000           
   21089 A    5273 TIP4 O1   OW0      0.000000       15.9990           
   21090 A    5273 TIP4 H1   HW0      0.679100        1.0080           
   21091 A    5273 TIP4 H2   HW0      0.679100        1.0080           
   21092 A    5273 TIP4 BD1  LP0     -1.358200        0.0000           
   21093 A    5274 TIP4 O1   OW0      0.000000       15.9990           
   21094 A    5274 TIP4 H1   HW0      0.679100        1.0080           
   21095 A    5274 TIP4 H2   HW0      0.679100        1.0080           
   21096 A    5274 TIP4 BD1  LP0     -1.358200        0.0000           
   21097 A    5275 TIP4 O1   OW0      0.000000       15.9990           
   21098 A    5275 TIP4 H1   HW0      0.679100        1.0080           
   21099 A    5275 TIP4 H2   HW0      0.679100        1.0080           
   21100 A    5275 TIP4 BD1  LP0     -1.358200        0.0000           
   21101 A    5276 TIP4 O1   OW0      0.000000       15.9990           
   21102 A    5276 TIP4 H1   HW0      0.679100        1.0080           
   21103 A    5276 TIP4 H2   HW0      0.679100        1.0080           
   21104 A    5276 TIP4 BD1  LP0     -1.358200        0.0000           
   21105 A    5277 TIP4 O1   OW0      0.000000       15.9990           
   21106 A    5277 TIP4 H1   HW0      0.679100        1.0080           
   21107 A    5277 TIP4 H2   HW0      0.679100        1.0080           
   21108 A    5277 TIP4 BD1  LP0     -1.358200        0.0000           
   21109 A    5278 TIP4 O1   OW0      0.000000       15.9990           
   21110 A    5278 TIP4 H1   HW0      0.679100        1.0080           
   21111 A    5278 TIP4 H2   HW0      0.679100        1.0080           
   21112 A    5278 TIP4 BD1  LP0     -1.358200        0.0000           
   21113 A    5279 TIP4 O1   OW0      0.000000       15.9990           
   21114 A    5279 TIP4 H1   HW0      0.679100        1.0080           
   21115 A    5279 TIP4 H2   HW0      0.679100        1.0080           
   21116 A    5279 TIP4 BD1  LP0     -1.358200        0.0000           
   21117 A    5280 TIP4 O1   OW0      0.000000       15.9990           
   21118 A    5280 TIP4 H1   HW0      0.679100        1.0080           
   21119 A    5280 TIP4 H2   HW0      0.679100        1.0080           
   21120 A    5280 TIP4 BD1  LP0     -1.358200        0.0000           
   21121 A    5281 TIP4 O1   OW0      0.000000       15.9990           
   21122 A    5281 TIP4 H1   HW0      0.679100        1.0080           
   21123 A    5281 TIP4 H2   HW0      0.679100        1.0080           
   21124 A    5281 TIP4 BD1  LP0     -1.358200        0.0000           
   21125 A    5282 TIP4 O1   OW0      0.000000       15.9990           
   21126 A    5282 TIP4 H1   HW0      0.679100        1.0080           
   21127 A    5282 TIP4 H2   HW0      0.679100        1.0080           
   21128 A    5282 TIP4 BD1  LP0     -1.358200        0.0000           
   21129 A    5283 TIP4 O1   OW0      0.000000       15.9990           
   21130 A    5283 TIP4 H1   HW0      0.679100        1.0080           
   21131 A    5283 TIP4 H2   HW0      0.679100        1.0080           
   21132 A    5283 TIP4 BD1  LP0     -1.358200        0.0000           
   21133 A    5284 TIP4 O1   OW0      0.000000       15.9990           
   21134 A    5284 TIP4 H1   HW0      0.679100        1.0080           
   21135 A    5284 TIP4 H2   HW0      0.679100        1.0080           
   21136 A    5284 TIP4 BD1  LP0     -1.358200        0.0000           
   21137 A    5285 TIP4 O1   OW0      0.000000       15.9990           
   21138 A    5285 TIP4 H1   HW0      0.679100        1.0080           
   21139 A    5285 TIP4 H2   HW0      0.679100        1.0080           
   21140 A    5285 TIP4 BD1  LP0     -1.358200        0.0000           
   21141 A    5286 TIP4 O1   OW0      0.000000       15.9990           
   21142 A    5286 TIP4 H1   HW0      0.679100        1.0080           
   21143 A    5286 TIP4 H2   HW0      0.679100        1.0080           
   21144 A    5286 TIP4 BD1  LP0     -1.358200        0.0000           
   21145 A    5287 TIP4 O1   OW0      0.000000       15.9990           
   21146 A    5287 TIP4 H1   HW0      0.679100        1.0080           
   21147 A    5287 TIP4 H2   HW0      0.679100        1.0080           
   21148 A    5287 TIP4 BD1  LP0     -1.358200        0.0000           
   21149 A    5288 TIP4 O1   OW0      0.000000       15.9990           
   21150 A    5288 TIP4 H1   HW0      0.679100        1.0080           
   21151 A    5288 TIP4 H2   HW0      0.679100        1.0080           
   21152 A    5288 TIP4 BD1  LP0     -1.358200        0.0000           
   21153 A    5289 TIP4 O1   OW0      0.000000       15.9990           
   21154 A    5289 TIP4 H1   HW0      0.679100        1.0080           
   21155 A    5289 TIP4 H2   HW0      0.679100        1.0080           
   21156 A    5289 TIP4 BD1  LP0     -1.358200        0.0000           
   21157 A    5290 TIP4 O1   OW0      0.000000       15.9990           
   21158 A    5290 TIP4 H1   HW0      0.679100        1.0080           
   21159 A    5290 TIP4 H2   HW0      0.679100        1.0080           
   21160 A    5290 TIP4 BD1  LP0     -1.358200        0.0000           
   21161 A    5291 TIP4 O1   OW0      0.000000       15.9990           
   21162 A    5291 TIP4 H1   HW0      0.679100        1.0080           
   21163 A    5291 TIP4 H2   HW0      0.679100        1.0080           
   21164 A    5291 TIP4 BD1  LP0     -1.358200        0.0000           
   21165 A    5292 TIP4 O1   OW0      0.000000       15.9990           
   21166 A    5292 TIP4 H1   HW0      0.679100        1.0080           
   21167 A    5292 TIP4 H2   HW0      0.679100        1.0080           
   21168 A    5292 TIP4 BD1  LP0     -1.358200        0.0000           
   21169 A    5293 TIP4 O1   OW0      0.000000       15.9990           
   21170 A    5293 TIP4 H1   HW0      0.679100        1.0080           
   21171 A    5293 TIP4 H2   HW0      0.679100        1.0080           
   21172 A    5293 TIP4 BD1  LP0     -1.358200        0.0000           
   21173 A    5294 TIP4 O1   OW0      0.000000       15.9990           
   21174 A    5294 TIP4 H1   HW0      0.679100        1.0080           
   21175 A    5294 TIP4 H2   HW0      0.679100        1.0080           
   21176 A    5294 TIP4 BD1  LP0     -1.358200        0.0000           
   21177 A    5295 TIP4 O1   OW0      0.000000       15.9990           
   21178 A    5295 TIP4 H1   HW0      0.679100        1.0080           
   21179 A    5295 TIP4 H2   HW0      0.679100        1.0080           
   21180 A    5295 TIP4 BD1  LP0     -1.358200        0.0000           
   21181 A    5296 TIP4 O1   OW0      0.000000       15.9990           
   21182 A    5296 TIP4 H1   HW0      0.679100        1.0080           
   21183 A    5296 TIP4 H2   HW0      0.679100        1.0080           
   21184 A    5296 TIP4 BD1  LP0     -1.358200        0.0000           
   21185 A    5297 TIP4 O1   OW0      0.000000       15.9990           
   21186 A    5297 TIP4 H1   HW0      0.679100        1.0080           
   21187 A    5297 TIP4 H2   HW0      0.679100        1.0080           
   21188 A    5297 TIP4 BD1  LP0     -1.358200        0.0000           
   21189 A    5298 TIP4 O1   OW0      0.000000       15.9990           
   21190 A    5298 TIP4 H1   HW0      0.679100        1.0080           
   21191 A    5298 TIP4 H2   HW0      0.679100        1.0080           
   21192 A    5298 TIP4 BD1  LP0     -1.358200        0.0000           
   21193 A    5299 TIP4 O1   OW0      0.000000       15.9990           
   21194 A    5299 TIP4 H1   HW0      0.679100        1.0080           
   21195 A    5299 TIP4 H2   HW0      0.679100        1.0080           
   21196 A    5299 TIP4 BD1  LP0     -1.358200        0.0000           
   21197 A    5300 TIP4 O1   OW0      0.000000       15.9990           
   21198 A    5300 TIP4 H1   HW0      0.679100        1.0080           
   21199 A    5300 TIP4 H2   HW0      0.679100        1.0080           
   21200 A    5300 TIP4 BD1  LP0     -1.358200        0.0000           
   21201 A    5301 TIP4 O1   OW0      0.000000       15.9990           
   21202 A    5301 TIP4 H1   HW0      0.679100        1.0080           
   21203 A    5301 TIP4 H2   HW0      0.679100        1.0080           
   21204 A    5301 TIP4 BD1  LP0     -1.358200        0.0000           
   21205 A    5302 TIP4 O1   OW0      0.000000       15.9990           
   21206 A    5302 TIP4 H1   HW0      0.679100        1.0080           
   21207 A    5302 TIP4 H2   HW0      0.679100        1.0080           
   21208 A    5302 TIP4 BD1  LP0     -1.358200        0.0000           
   21209 A    5303 TIP4 O1   OW0      0.000000       15.9990           
   21210 A    5303 TIP4 H1   HW0      0.679100        1.0080           
   21211 A    5303 TIP4 H2   HW0      0.679100        1.0080           
   21212 A    5303 TIP4 BD1  LP0     -1.358200        0.0000           
   21213 A    5304 TIP4 O1   OW0      0.000000       15.9990           
   21214 A    5304 TIP4 H1   HW0      0.679100        1.0080           
   21215 A    5304 TIP4 H2   HW0      0.679100        1.0080           
   21216 A    5304 TIP4 BD1  LP0     -1.358200        0.0000           
   21217 A    5305 TIP4 O1   OW0      0.000000       15.9990           
   21218 A    5305 TIP4 H1   HW0      0.679100        1.0080           
   21219 A    5305 TIP4 H2   HW0      0.679100        1.0080           
   21220 A    5305 TIP4 BD1  LP0     -1.358200        0.0000           
   21221 A    5306 TIP4 O1   OW0      0.000000       15.9990           
   21222 A    5306 TIP4 H1   HW0      0.679100        1.0080           
   21223 A    5306 TIP4 H2   HW0      0.679100        1.0080           
   21224 A    5306 TIP4 BD1  LP0     -1.358200        0.0000           
   21225 A    5307 TIP4 O1   OW0      0.000000       15.9990           
   21226 A    5307 TIP4 H1   HW0      0.679100        1.0080           
   21227 A    5307 TIP4 H2   HW0      0.679100        1.0080           
   21228 A    5307 TIP4 BD1  LP0     -1.358200        0.0000           
   21229 A    5308 TIP4 O1   OW0      0.000000       15.9990           
   21230 A    5308 TIP4 H1   HW0      0.679100        1.0080           
   21231 A    5308 TIP4 H2   HW0      0.679100        1.0080           
   21232 A    5308 TIP4 BD1  LP0     -1.358200        0.0000           
   21233 A    5309 TIP4 O1   OW0      0.000000       15.9990           
   21234 A    5309 TIP4 H1   HW0      0.679100        1.0080           
   21235 A    5309 TIP4 H2   HW0      0.679100        1.0080           
   21236 A    5309 TIP4 BD1  LP0     -1.358200        0.0000           
   21237 A    5310 TIP4 O1   OW0      0.000000       15.9990           
   21238 A    5310 TIP4 H1   HW0      0.679100        1.0080           
   21239 A    5310 TIP4 H2   HW0      0.679100        1.0080           
   21240 A    5310 TIP4 BD1  LP0     -1.358200        0.0000           
   21241 A    5311 TIP4 O1   OW0      0.000000       15.9990           
   21242 A    5311 TIP4 H1   HW0      0.679100        1.0080           
   21243 A    5311 TIP4 H2   HW0      0.679100        1.0080           
   21244 A    5311 TIP4 BD1  LP0     -1.358200        0.0000           
   21245 A    5312 TIP4 O1   OW0      0.000000       15.9990           
   21246 A    5312 TIP4 H1   HW0      0.679100        1.0080           
   21247 A    5312 TIP4 H2   HW0      0.679100        1.0080           
   21248 A    5312 TIP4 BD1  LP0     -1.358200        0.0000           
   21249 A    5313 TIP4 O1   OW0      0.000000       15.9990           
   21250 A    5313 TIP4 H1   HW0      0.679100        1.0080           
   21251 A    5313 TIP4 H2   HW0      0.679100        1.0080           
   21252 A    5313 TIP4 BD1  LP0     -1.358200        0.0000           
   21253 A    5314 TIP4 O1   OW0      0.000000       15.9990           
   21254 A    5314 TIP4 H1   HW0      0.679100        1.0080           
   21255 A    5314 TIP4 H2   HW0      0.679100        1.0080           
   21256 A    5314 TIP4 BD1  LP0     -1.358200        0.0000           
   21257 A    5315 TIP4 O1   OW0      0.000000       15.9990           
   21258 A    5315 TIP4 H1   HW0      0.679100        1.0080           
   21259 A    5315 TIP4 H2   HW0      0.679100        1.0080           
   21260 A    5315 TIP4 BD1  LP0     -1.358200        0.0000           
   21261 A    5316 TIP4 O1   OW0      0.000000       15.9990           
   21262 A    5316 TIP4 H1   HW0      0.679100        1.0080           
   21263 A    5316 TIP4 H2   HW0      0.679100        1.0080           
   21264 A    5316 TIP4 BD1  LP0     -1.358200        0.0000           
   21265 A    5317 TIP4 O1   OW0      0.000000       15.9990           
   21266 A    5317 TIP4 H1   HW0      0.679100        1.0080           
   21267 A    5317 TIP4 H2   HW0      0.679100        1.0080           
   21268 A    5317 TIP4 BD1  LP0     -1.358200        0.0000           
   21269 A    5318 TIP4 O1   OW0      0.000000       15.9990           
   21270 A    5318 TIP4 H1   HW0      0.679100        1.0080           
   21271 A    5318 TIP4 H2   HW0      0.679100        1.0080           
   21272 A    5318 TIP4 BD1  LP0     -1.358200        0.0000           
   21273 A    5319 TIP4 O1   OW0      0.000000       15.9990           
   21274 A    5319 TIP4 H1   HW0      0.679100        1.0080           
   21275 A    5319 TIP4 H2   HW0      0.679100        1.0080           
   21276 A    5319 TIP4 BD1  LP0     -1.358200        0.0000           
   21277 A    5320 TIP4 O1   OW0      0.000000       15.9990           
   21278 A    5320 TIP4 H1   HW0      0.679100        1.0080           
   21279 A    5320 TIP4 H2   HW0      0.679100        1.0080           
   21280 A    5320 TIP4 BD1  LP0     -1.358200        0.0000           
   21281 A    5321 TIP4 O1   OW0      0.000000       15.9990           
   21282 A    5321 TIP4 H1   HW0      0.679100        1.0080           
   21283 A    5321 TIP4 H2   HW0      0.679100        1.0080           
   21284 A    5321 TIP4 BD1  LP0     -1.358200        0.0000           
   21285 A    5322 TIP4 O1   OW0      0.000000       15.9990           
   21286 A    5322 TIP4 H1   HW0      0.679100        1.0080           
   21287 A    5322 TIP4 H2   HW0      0.679100        1.0080           
   21288 A    5322 TIP4 BD1  LP0     -1.358200        0.0000           
   21289 A    5323 TIP4 O1   OW0      0.000000       15.9990           
   21290 A    5323 TIP4 H1   HW0      0.679100        1.0080           
   21291 A    5323 TIP4 H2   HW0      0.679100        1.0080           
   21292 A    5323 TIP4 BD1  LP0     -1.358200        0.0000           
   21293 A    5324 TIP4 O1   OW0      0.000000       15.9990           
   21294 A    5324 TIP4 H1   HW0      0.679100        1.0080           
   21295 A    5324 TIP4 H2   HW0      0.679100        1.0080           
   21296 A    5324 TIP4 BD1  LP0     -1.358200        0.0000           
   21297 A    5325 TIP4 O1   OW0      0.000000       15.9990           
   21298 A    5325 TIP4 H1   HW0      0.679100        1.0080           
   21299 A    5325 TIP4 H2   HW0      0.679100        1.0080           
   21300 A    5325 TIP4 BD1  LP0     -1.358200        0.0000           
   21301 A    5326 TIP4 O1   OW0      0.000000       15.9990           
   21302 A    5326 TIP4 H1   HW0      0.679100        1.0080           
   21303 A    5326 TIP4 H2   HW0      0.679100        1.0080           
   21304 A    5326 TIP4 BD1  LP0     -1.358200        0.0000           
   21305 A    5327 TIP4 O1   OW0      0.000000       15.9990           
   21306 A    5327 TIP4 H1   HW0      0.679100        1.0080           
   21307 A    5327 TIP4 H2   HW0      0.679100        1.0080           
   21308 A    5327 TIP4 BD1  LP0     -1.358200        0.0000           
   21309 A    5328 TIP4 O1   OW0      0.000000       15.9990           
   21310 A    5328 TIP4 H1   HW0      0.679100        1.0080           
   21311 A    5328 TIP4 H2   HW0      0.679100        1.0080           
   21312 A    5328 TIP4 BD1  LP0     -1.358200        0.0000           
   21313 A    5329 TIP4 O1   OW0      0.000000       15.9990           
   21314 A    5329 TIP4 H1   HW0      0.679100        1.0080           
   21315 A    5329 TIP4 H2   HW0      0.679100        1.0080           
   21316 A    5329 TIP4 BD1  LP0     -1.358200        0.0000           
   21317 A    5330 TIP4 O1   OW0      0.000000       15.9990           
   21318 A    5330 TIP4 H1   HW0      0.679100        1.0080           
   21319 A    5330 TIP4 H2   HW0      0.679100        1.0080           
   21320 A    5330 TIP4 BD1  LP0     -1.358200        0.0000           
   21321 A    5331 TIP4 O1   OW0      0.000000       15.9990           
   21322 A    5331 TIP4 H1   HW0      0.679100        1.0080           
   21323 A    5331 TIP4 H2   HW0      0.679100        1.0080           
   21324 A    5331 TIP4 BD1  LP0     -1.358200        0.0000           
   21325 A    5332 TIP4 O1   OW0      0.000000       15.9990           
   21326 A    5332 TIP4 H1   HW0      0.679100        1.0080           
   21327 A    5332 TIP4 H2   HW0      0.679100        1.0080           
   21328 A    5332 TIP4 BD1  LP0     -1.358200        0.0000           
   21329 A    5333 TIP4 O1   OW0      0.000000       15.9990           
   21330 A    5333 TIP4 H1   HW0      0.679100        1.0080           
   21331 A    5333 TIP4 H2   HW0      0.679100        1.0080           
   21332 A    5333 TIP4 BD1  LP0     -1.358200        0.0000           
   21333 A    5334 TIP4 O1   OW0      0.000000       15.9990           
   21334 A    5334 TIP4 H1   HW0      0.679100        1.0080           
   21335 A    5334 TIP4 H2   HW0      0.679100        1.0080           
   21336 A    5334 TIP4 BD1  LP0     -1.358200        0.0000           
   21337 A    5335 TIP4 O1   OW0      0.000000       15.9990           
   21338 A    5335 TIP4 H1   HW0      0.679100        1.0080           
   21339 A    5335 TIP4 H2   HW0      0.679100        1.0080           
   21340 A    5335 TIP4 BD1  LP0     -1.358200        0.0000           
   21341 A    5336 TIP4 O1   OW0      0.000000       15.9990           
   21342 A    5336 TIP4 H1   HW0      0.679100        1.0080           
   21343 A    5336 TIP4 H2   HW0      0.679100        1.0080           
   21344 A    5336 TIP4 BD1  LP0     -1.358200        0.0000           
   21345 A    5337 TIP4 O1   OW0      0.000000       15.9990           
   21346 A    5337 TIP4 H1   HW0      0.679100        1.0080           
   21347 A    5337 TIP4 H2   HW0      0.679100        1.0080           
   21348 A    5337 TIP4 BD1  LP0     -1.358200        0.0000           
   21349 A    5338 TIP4 O1   OW0      0.000000       15.9990           
   21350 A    5338 TIP4 H1   HW0      0.679100        1.0080           
   21351 A    5338 TIP4 H2   HW0      0.679100        1.0080           
   21352 A    5338 TIP4 BD1  LP0     -1.358200        0.0000           
   21353 A    5339 TIP4 O1   OW0      0.000000       15.9990           
   21354 A    5339 TIP4 H1   HW0      0.679100        1.0080           
   21355 A    5339 TIP4 H2   HW0      0.679100        1.0080           
   21356 A    5339 TIP4 BD1  LP0     -1.358200        0.0000           
   21357 A    5340 TIP4 O1   OW0      0.000000       15.9990           
   21358 A    5340 TIP4 H1   HW0      0.679100        1.0080           
   21359 A    5340 TIP4 H2   HW0      0.679100        1.0080           
   21360 A    5340 TIP4 BD1  LP0     -1.358200        0.0000           
   21361 A    5341 TIP4 O1   OW0      0.000000       15.9990           
   21362 A    5341 TIP4 H1   HW0      0.679100        1.0080           
   21363 A    5341 TIP4 H2   HW0      0.679100        1.0080           
   21364 A    5341 TIP4 BD1  LP0     -1.358200        0.0000           
   21365 A    5342 TIP4 O1   OW0      0.000000       15.9990           
   21366 A    5342 TIP4 H1   HW0      0.679100        1.0080           
   21367 A    5342 TIP4 H2   HW0      0.679100        1.0080           
   21368 A    5342 TIP4 BD1  LP0     -1.358200        0.0000           
   21369 A    5343 TIP4 O1   OW0      0.000000       15.9990           
   21370 A    5343 TIP4 H1   HW0      0.679100        1.0080           
   21371 A    5343 TIP4 H2   HW0      0.679100        1.0080           
   21372 A    5343 TIP4 BD1  LP0     -1.358200        0.0000           
   21373 A    5344 TIP4 O1   OW0      0.000000       15.9990           
   21374 A    5344 TIP4 H1   HW0      0.679100        1.0080           
   21375 A    5344 TIP4 H2   HW0      0.679100        1.0080           
   21376 A    5344 TIP4 BD1  LP0     -1.358200        0.0000           
   21377 A    5345 TIP4 O1   OW0      0.000000       15.9990           
   21378 A    5345 TIP4 H1   HW0      0.679100        1.0080           
   21379 A    5345 TIP4 H2   HW0      0.679100        1.0080           
   21380 A    5345 TIP4 BD1  LP0     -1.358200        0.0000           
   21381 A    5346 TIP4 O1   OW0      0.000000       15.9990           
   21382 A    5346 TIP4 H1   HW0      0.679100        1.0080           
   21383 A    5346 TIP4 H2   HW0      0.679100        1.0080           
   21384 A    5346 TIP4 BD1  LP0     -1.358200        0.0000           
   21385 A    5347 TIP4 O1   OW0      0.000000       15.9990           
   21386 A    5347 TIP4 H1   HW0      0.679100        1.0080           
   21387 A    5347 TIP4 H2   HW0      0.679100        1.0080           
   21388 A    5347 TIP4 BD1  LP0     -1.358200        0.0000           
   21389 A    5348 TIP4 O1   OW0      0.000000       15.9990           
   21390 A    5348 TIP4 H1   HW0      0.679100        1.0080           
   21391 A    5348 TIP4 H2   HW0      0.679100        1.0080           
   21392 A    5348 TIP4 BD1  LP0     -1.358200        0.0000           
   21393 A    5349 TIP4 O1   OW0      0.000000       15.9990           
   21394 A    5349 TIP4 H1   HW0      0.679100        1.0080           
   21395 A    5349 TIP4 H2   HW0      0.679100        1.0080           
   21396 A    5349 TIP4 BD1  LP0     -1.358200        0.0000           
   21397 A    5350 TIP4 O1   OW0      0.000000       15.9990           
   21398 A    5350 TIP4 H1   HW0      0.679100        1.0080           
   21399 A    5350 TIP4 H2   HW0      0.679100        1.0080           
   21400 A    5350 TIP4 BD1  LP0     -1.358200        0.0000           
   21401 A    5351 TIP4 O1   OW0      0.000000       15.9990           
   21402 A    5351 TIP4 H1   HW0      0.679100        1.0080           
   21403 A    5351 TIP4 H2   HW0      0.679100        1.0080           
   21404 A    5351 TIP4 BD1  LP0     -1.358200        0.0000           
   21405 A    5352 TIP4 O1   OW0      0.000000       15.9990           
   21406 A    5352 TIP4 H1   HW0      0.679100        1.0080           
   21407 A    5352 TIP4 H2   HW0      0.679100        1.0080           
   21408 A    5352 TIP4 BD1  LP0     -1.358200        0.0000           
   21409 A    5353 TIP4 O1   OW0      0.000000       15.9990           
   21410 A    5353 TIP4 H1   HW0      0.679100        1.0080           
   21411 A    5353 TIP4 H2   HW0      0.679100        1.0080           
   21412 A    5353 TIP4 BD1  LP0     -1.358200        0.0000           
   21413 A    5354 TIP4 O1   OW0      0.000000       15.9990           
   21414 A    5354 TIP4 H1   HW0      0.679100        1.0080           
   21415 A    5354 TIP4 H2   HW0      0.679100        1.0080           
   21416 A    5354 TIP4 BD1  LP0     -1.358200        0.0000           
   21417 A    5355 TIP4 O1   OW0      0.000000       15.9990           
   21418 A    5355 TIP4 H1   HW0      0.679100        1.0080           
   21419 A    5355 TIP4 H2   HW0      0.679100        1.0080           
   21420 A    5355 TIP4 BD1  LP0     -1.358200        0.0000           
   21421 A    5356 TIP4 O1   OW0      0.000000       15.9990           
   21422 A    5356 TIP4 H1   HW0      0.679100        1.0080           
   21423 A    5356 TIP4 H2   HW0      0.679100        1.0080           
   21424 A    5356 TIP4 BD1  LP0     -1.358200        0.0000           
   21425 A    5357 TIP4 O1   OW0      0.000000       15.9990           
   21426 A    5357 TIP4 H1   HW0      0.679100        1.0080           
   21427 A    5357 TIP4 H2   HW0      0.679100        1.0080           
   21428 A    5357 TIP4 BD1  LP0     -1.358200        0.0000           
   21429 A    5358 TIP4 O1   OW0      0.000000       15.9990           
   21430 A    5358 TIP4 H1   HW0      0.679100        1.0080           
   21431 A    5358 TIP4 H2   HW0      0.679100        1.0080           
   21432 A    5358 TIP4 BD1  LP0     -1.358200        0.0000           
   21433 A    5359 TIP4 O1   OW0      0.000000       15.9990           
   21434 A    5359 TIP4 H1   HW0      0.679100        1.0080           
   21435 A    5359 TIP4 H2   HW0      0.679100        1.0080           
   21436 A    5359 TIP4 BD1  LP0     -1.358200        0.0000           
   21437 A    5360 TIP4 O1   OW0      0.000000       15.9990           
   21438 A    5360 TIP4 H1   HW0      0.679100        1.0080           
   21439 A    5360 TIP4 H2   HW0      0.679100        1.0080           
   21440 A    5360 TIP4 BD1  LP0     -1.358200        0.0000           
   21441 A    5361 TIP4 O1   OW0      0.000000       15.9990           
   21442 A    5361 TIP4 H1   HW0      0.679100        1.0080           
   21443 A    5361 TIP4 H2   HW0      0.679100        1.0080           
   21444 A    5361 TIP4 BD1  LP0     -1.358200        0.0000           
   21445 A    5362 TIP4 O1   OW0      0.000000       15.9990           
   21446 A    5362 TIP4 H1   HW0      0.679100        1.0080           
   21447 A    5362 TIP4 H2   HW0      0.679100        1.0080           
   21448 A    5362 TIP4 BD1  LP0     -1.358200        0.0000           
   21449 A    5363 TIP4 O1   OW0      0.000000       15.9990           
   21450 A    5363 TIP4 H1   HW0      0.679100        1.0080           
   21451 A    5363 TIP4 H2   HW0      0.679100        1.0080           
   21452 A    5363 TIP4 BD1  LP0     -1.358200        0.0000           
   21453 A    5364 TIP4 O1   OW0      0.000000       15.9990           
   21454 A    5364 TIP4 H1   HW0      0.679100        1.0080           
   21455 A    5364 TIP4 H2   HW0      0.679100        1.0080           
   21456 A    5364 TIP4 BD1  LP0     -1.358200        0.0000           
   21457 A    5365 TIP4 O1   OW0      0.000000       15.9990           
   21458 A    5365 TIP4 H1   HW0      0.679100        1.0080           
   21459 A    5365 TIP4 H2   HW0      0.679100        1.0080           
   21460 A    5365 TIP4 BD1  LP0     -1.358200        0.0000           
   21461 A    5366 TIP4 O1   OW0      0.000000       15.9990           
   21462 A    5366 TIP4 H1   HW0      0.679100        1.0080           
   21463 A    5366 TIP4 H2   HW0      0.679100        1.0080           
   21464 A    5366 TIP4 BD1  LP0     -1.358200        0.0000           
   21465 A    5367 TIP4 O1   OW0      0.000000       15.9990           
   21466 A    5367 TIP4 H1   HW0      0.679100        1.0080           
   21467 A    5367 TIP4 H2   HW0      0.679100        1.0080           
   21468 A    5367 TIP4 BD1  LP0     -1.358200        0.0000           
   21469 A    5368 TIP4 O1   OW0      0.000000       15.9990           
   21470 A    5368 TIP4 H1   HW0      0.679100        1.0080           
   21471 A    5368 TIP4 H2   HW0      0.679100        1.0080           
   21472 A    5368 TIP4 BD1  LP0     -1.358200        0.0000           
   21473 A    5369 TIP4 O1   OW0      0.000000       15.9990           
   21474 A    5369 TIP4 H1   HW0      0.679100        1.0080           
   21475 A    5369 TIP4 H2   HW0      0.679100        1.0080           
   21476 A    5369 TIP4 BD1  LP0     -1.358200        0.0000           
   21477 A    5370 TIP4 O1   OW0      0.000000       15.9990           
   21478 A    5370 TIP4 H1   HW0      0.679100        1.0080           
   21479 A    5370 TIP4 H2   HW0      0.679100        1.0080           
   21480 A    5370 TIP4 BD1  LP0     -1.358200        0.0000           
   21481 A    5371 TIP4 O1   OW0      0.000000       15.9990           
   21482 A    5371 TIP4 H1   HW0      0.679100        1.0080           
   21483 A    5371 TIP4 H2   HW0      0.679100        1.0080           
   21484 A    5371 TIP4 BD1  LP0     -1.358200        0.0000           
   21485 A    5372 TIP4 O1   OW0      0.000000       15.9990           
   21486 A    5372 TIP4 H1   HW0      0.679100        1.0080           
   21487 A    5372 TIP4 H2   HW0      0.679100        1.0080           
   21488 A    5372 TIP4 BD1  LP0     -1.358200        0.0000           
   21489 A    5373 TIP4 O1   OW0      0.000000       15.9990           
   21490 A    5373 TIP4 H1   HW0      0.679100        1.0080           
   21491 A    5373 TIP4 H2   HW0      0.679100        1.0080           
   21492 A    5373 TIP4 BD1  LP0     -1.358200        0.0000           
   21493 A    5374 TIP4 O1   OW0      0.000000       15.9990           
   21494 A    5374 TIP4 H1   HW0      0.679100        1.0080           
   21495 A    5374 TIP4 H2   HW0      0.679100        1.0080           
   21496 A    5374 TIP4 BD1  LP0     -1.358200        0.0000           
   21497 A    5375 TIP4 O1   OW0      0.000000       15.9990           
   21498 A    5375 TIP4 H1   HW0      0.679100        1.0080           
   21499 A    5375 TIP4 H2   HW0      0.679100        1.0080           
   21500 A    5375 TIP4 BD1  LP0     -1.358200        0.0000           
   21501 A    5376 TIP4 O1   OW0      0.000000       15.9990           
   21502 A    5376 TIP4 H1   HW0      0.679100        1.0080           
   21503 A    5376 TIP4 H2   HW0      0.679100        1.0080           
   21504 A    5376 TIP4 BD1  LP0     -1.358200        0.0000           
   21505 A    5377 TIP4 O1   OW0      0.000000       15.9990           
   21506 A    5377 TIP4 H1   HW0      0.679100        1.0080           
   21507 A    5377 TIP4 H2   HW0      0.679100        1.0080           
   21508 A    5377 TIP4 BD1  LP0     -1.358200        0.0000           
   21509 A    5378 TIP4 O1   OW0      0.000000       15.9990           
   21510 A    5378 TIP4 H1   HW0      0.679100        1.0080           
   21511 A    5378 TIP4 H2   HW0      0.679100        1.0080           
   21512 A    5378 TIP4 BD1  LP0     -1.358200        0.0000           
   21513 A    5379 TIP4 O1   OW0      0.000000       15.9990           
   21514 A    5379 TIP4 H1   HW0      0.679100        1.0080           
   21515 A    5379 TIP4 H2   HW0      0.679100        1.0080           
   21516 A    5379 TIP4 BD1  LP0     -1.358200        0.0000           
   21517 A    5380 TIP4 O1   OW0      0.000000       15.9990           
   21518 A    5380 TIP4 H1   HW0      0.679100        1.0080           
   21519 A    5380 TIP4 H2   HW0      0.679100        1.0080           
   21520 A    5380 TIP4 BD1  LP0     -1.358200        0.0000           
   21521 A    5381 TIP4 O1   OW0      0.000000       15.9990           
   21522 A    5381 TIP4 H1   HW0      0.679100        1.0080           
   21523 A    5381 TIP4 H2   HW0      0.679100        1.0080           
   21524 A    5381 TIP4 BD1  LP0     -1.358200        0.0000           
   21525 A    5382 TIP4 O1   OW0      0.000000       15.9990           
   21526 A    5382 TIP4 H1   HW0      0.679100        1.0080           
   21527 A    5382 TIP4 H2   HW0      0.679100        1.0080           
   21528 A    5382 TIP4 BD1  LP0     -1.358200        0.0000           
   21529 A    5383 TIP4 O1   OW0      0.000000       15.9990           
   21530 A    5383 TIP4 H1   HW0      0.679100        1.0080           
   21531 A    5383 TIP4 H2   HW0      0.679100        1.0080           
   21532 A    5383 TIP4 BD1  LP0     -1.358200        0.0000           
   21533 A    5384 TIP4 O1   OW0      0.000000       15.9990           
   21534 A    5384 TIP4 H1   HW0      0.679100        1.0080           
   21535 A    5384 TIP4 H2   HW0      0.679100        1.0080           
   21536 A    5384 TIP4 BD1  LP0     -1.358200        0.0000           
   21537 A    5385 TIP4 O1   OW0      0.000000       15.9990           
   21538 A    5385 TIP4 H1   HW0      0.679100        1.0080           
   21539 A    5385 TIP4 H2   HW0      0.679100        1.0080           
   21540 A    5385 TIP4 BD1  LP0     -1.358200        0.0000           
   21541 A    5386 TIP4 O1   OW0      0.000000       15.9990           
   21542 A    5386 TIP4 H1   HW0      0.679100        1.0080           
   21543 A    5386 TIP4 H2   HW0      0.679100        1.0080           
   21544 A    5386 TIP4 BD1  LP0     -1.358200        0.0000           
   21545 A    5387 TIP4 O1   OW0      0.000000       15.9990           
   21546 A    5387 TIP4 H1   HW0      0.679100        1.0080           
   21547 A    5387 TIP4 H2   HW0      0.679100        1.0080           
   21548 A    5387 TIP4 BD1  LP0     -1.358200        0.0000           
   21549 A    5388 TIP4 O1   OW0      0.000000       15.9990           
   21550 A    5388 TIP4 H1   HW0      0.679100        1.0080           
   21551 A    5388 TIP4 H2   HW0      0.679100        1.0080           
   21552 A    5388 TIP4 BD1  LP0     -1.358200        0.0000           
   21553 A    5389 TIP4 O1   OW0      0.000000       15.9990           
   21554 A    5389 TIP4 H1   HW0      0.679100        1.0080           
   21555 A    5389 TIP4 H2   HW0      0.679100        1.0080           
   21556 A    5389 TIP4 BD1  LP0     -1.358200        0.0000           
   21557 A    5390 TIP4 O1   OW0      0.000000       15.9990           
   21558 A    5390 TIP4 H1   HW0      0.679100        1.0080           
   21559 A    5390 TIP4 H2   HW0      0.679100        1.0080           
   21560 A    5390 TIP4 BD1  LP0     -1.358200        0.0000           
   21561 A    5391 TIP4 O1   OW0      0.000000       15.9990           
   21562 A    5391 TIP4 H1   HW0      0.679100        1.0080           
   21563 A    5391 TIP4 H2   HW0      0.679100        1.0080           
   21564 A    5391 TIP4 BD1  LP0     -1.358200        0.0000           
   21565 A    5392 TIP4 O1   OW0      0.000000       15.9990           
   21566 A    5392 TIP4 H1   HW0      0.679100        1.0080           
   21567 A    5392 TIP4 H2   HW0      0.679100        1.0080           
   21568 A    5392 TIP4 BD1  LP0     -1.358200        0.0000           
   21569 A    5393 TIP4 O1   OW0      0.000000       15.9990           
   21570 A    5393 TIP4 H1   HW0      0.679100        1.0080           
   21571 A    5393 TIP4 H2   HW0      0.679100        1.0080           
   21572 A    5393 TIP4 BD1  LP0     -1.358200        0.0000           
   21573 A    5394 TIP4 O1   OW0      0.000000       15.9990           
   21574 A    5394 TIP4 H1   HW0      0.679100        1.0080           
   21575 A    5394 TIP4 H2   HW0      0.679100        1.0080           
   21576 A    5394 TIP4 BD1  LP0     -1.358200        0.0000           
   21577 A    5395 TIP4 O1   OW0      0.000000       15.9990           
   21578 A    5395 TIP4 H1   HW0      0.679100        1.0080           
   21579 A    5395 TIP4 H2   HW0      0.679100        1.0080           
   21580 A    5395 TIP4 BD1  LP0     -1.358200        0.0000           
   21581 A    5396 TIP4 O1   OW0      0.000000       15.9990           
   21582 A    5396 TIP4 H1   HW0      0.679100        1.0080           
   21583 A    5396 TIP4 H2   HW0      0.679100        1.0080           
   21584 A    5396 TIP4 BD1  LP0     -1.358200        0.0000           
   21585 A    5397 TIP4 O1   OW0      0.000000       15.9990           
   21586 A    5397 TIP4 H1   HW0      0.679100        1.0080           
   21587 A    5397 TIP4 H2   HW0      0.679100        1.0080           
   21588 A    5397 TIP4 BD1  LP0     -1.358200        0.0000           
   21589 A    5398 TIP4 O1   OW0      0.000000       15.9990           
   21590 A    5398 TIP4 H1   HW0      0.679100        1.0080           
   21591 A    5398 TIP4 H2   HW0      0.679100        1.0080           
   21592 A    5398 TIP4 BD1  LP0     -1.358200        0.0000           
   21593 A    5399 TIP4 O1   OW0      0.000000       15.9990           
   21594 A    5399 TIP4 H1   HW0      0.679100        1.0080           
   21595 A    5399 TIP4 H2   HW0      0.679100        1.0080           
   21596 A    5399 TIP4 BD1  LP0     -1.358200        0.0000           
   21597 A    5400 TIP4 O1   OW0      0.000000       15.9990           
   21598 A    5400 TIP4 H1   HW0      0.679100        1.0080           
   21599 A    5400 TIP4 H2   HW0      0.679100        1.0080           
   21600 A    5400 TIP4 BD1  LP0     -1.358200        0.0000           
   21601 A    5401 TIP4 O1   OW0      0.000000       15.9990           
   21602 A    5401 TIP4 H1   HW0      0.679100        1.0080           
   21603 A    5401 TIP4 H2   HW0      0.679100        1.0080           
   21604 A    5401 TIP4 BD1  LP0     -1.358200        0.0000           
   21605 A    5402 TIP4 O1   OW0      0.000000       15.9990           
   21606 A    5402 TIP4 H1   HW0      0.679100        1.0080           
   21607 A    5402 TIP4 H2   HW0      0.679100        1.0080           
   21608 A    5402 TIP4 BD1  LP0     -1.358200        0.0000           
   21609 A    5403 TIP4 O1   OW0      0.000000       15.9990           
   21610 A    5403 TIP4 H1   HW0      0.679100        1.0080           
   21611 A    5403 TIP4 H2   HW0      0.679100        1.0080           
   21612 A    5403 TIP4 BD1  LP0     -1.358200        0.0000           
   21613 A    5404 TIP4 O1   OW0      0.000000       15.9990           
   21614 A    5404 TIP4 H1   HW0      0.679100        1.0080           
   21615 A    5404 TIP4 H2   HW0      0.679100        1.0080           
   21616 A    5404 TIP4 BD1  LP0     -1.358200        0.0000           
   21617 A    5405 TIP4 O1   OW0      0.000000       15.9990           
   21618 A    5405 TIP4 H1   HW0      0.679100        1.0080           
   21619 A    5405 TIP4 H2   HW0      0.679100        1.0080           
   21620 A    5405 TIP4 BD1  LP0     -1.358200        0.0000           
   21621 A    5406 TIP4 O1   OW0      0.000000       15.9990           
   21622 A    5406 TIP4 H1   HW0      0.679100        1.0080           
   21623 A    5406 TIP4 H2   HW0      0.679100        1.0080           
   21624 A    5406 TIP4 BD1  LP0     -1.358200        0.0000           
   21625 A    5407 TIP4 O1   OW0      0.000000       15.9990           
   21626 A    5407 TIP4 H1   HW0      0.679100        1.0080           
   21627 A    5407 TIP4 H2   HW0      0.679100        1.0080           
   21628 A    5407 TIP4 BD1  LP0     -1.358200        0.0000           
   21629 A    5408 TIP4 O1   OW0      0.000000       15.9990           
   21630 A    5408 TIP4 H1   HW0      0.679100        1.0080           
   21631 A    5408 TIP4 H2   HW0      0.679100        1.0080           
   21632 A    5408 TIP4 BD1  LP0     -1.358200        0.0000           
   21633 A    5409 TIP4 O1   OW0      0.000000       15.9990           
   21634 A    5409 TIP4 H1   HW0      0.679100        1.0080           
   21635 A    5409 TIP4 H2   HW0      0.679100        1.0080           
   21636 A    5409 TIP4 BD1  LP0     -1.358200        0.0000           
   21637 A    5410 TIP4 O1   OW0      0.000000       15.9990           
   21638 A    5410 TIP4 H1   HW0      0.679100        1.0080           
   21639 A    5410 TIP4 H2   HW0      0.679100        1.0080           
   21640 A    5410 TIP4 BD1  LP0     -1.358200        0.0000           
   21641 A    5411 TIP4 O1   OW0      0.000000       15.9990           
   21642 A    5411 TIP4 H1   HW0      0.679100        1.0080           
   21643 A    5411 TIP4 H2   HW0      0.679100        1.0080           
   21644 A    5411 TIP4 BD1  LP0     -1.358200        0.0000           
   21645 A    5412 TIP4 O1   OW0      0.000000       15.9990           
   21646 A    5412 TIP4 H1   HW0      0.679100        1.0080           
   21647 A    5412 TIP4 H2   HW0      0.679100        1.0080           
   21648 A    5412 TIP4 BD1  LP0     -1.358200        0.0000           
   21649 A    5413 TIP4 O1   OW0      0.000000       15.9990           
   21650 A    5413 TIP4 H1   HW0      0.679100        1.0080           
   21651 A    5413 TIP4 H2   HW0      0.679100        1.0080           
   21652 A    5413 TIP4 BD1  LP0     -1.358200        0.0000           
   21653 A    5414 TIP4 O1   OW0      0.000000       15.9990           
   21654 A    5414 TIP4 H1   HW0      0.679100        1.0080           
   21655 A    5414 TIP4 H2   HW0      0.679100        1.0080           
   21656 A    5414 TIP4 BD1  LP0     -1.358200        0.0000           
   21657 A    5415 TIP4 O1   OW0      0.000000       15.9990           
   21658 A    5415 TIP4 H1   HW0      0.679100        1.0080           
   21659 A    5415 TIP4 H2   HW0      0.679100        1.0080           
   21660 A    5415 TIP4 BD1  LP0     -1.358200        0.0000           
   21661 A    5416 TIP4 O1   OW0      0.000000       15.9990           
   21662 A    5416 TIP4 H1   HW0      0.679100        1.0080           
   21663 A    5416 TIP4 H2   HW0      0.679100        1.0080           
   21664 A    5416 TIP4 BD1  LP0     -1.358200        0.0000           
   21665 A    5417 TIP4 O1   OW0      0.000000       15.9990           
   21666 A    5417 TIP4 H1   HW0      0.679100        1.0080           
   21667 A    5417 TIP4 H2   HW0      0.679100        1.0080           
   21668 A    5417 TIP4 BD1  LP0     -1.358200        0.0000           
   21669 A    5418 TIP4 O1   OW0      0.000000       15.9990           
   21670 A    5418 TIP4 H1   HW0      0.679100        1.0080           
   21671 A    5418 TIP4 H2   HW0      0.679100        1.0080           
   21672 A    5418 TIP4 BD1  LP0     -1.358200        0.0000           
   21673 A    5419 TIP4 O1   OW0      0.000000       15.9990           
   21674 A    5419 TIP4 H1   HW0      0.679100        1.0080           
   21675 A    5419 TIP4 H2   HW0      0.679100        1.0080           
   21676 A    5419 TIP4 BD1  LP0     -1.358200        0.0000           
   21677 A    5420 TIP4 O1   OW0      0.000000       15.9990           
   21678 A    5420 TIP4 H1   HW0      0.679100        1.0080           
   21679 A    5420 TIP4 H2   HW0      0.679100        1.0080           
   21680 A    5420 TIP4 BD1  LP0     -1.358200        0.0000           
   21681 A    5421 TIP4 O1   OW0      0.000000       15.9990           
   21682 A    5421 TIP4 H1   HW0      0.679100        1.0080           
   21683 A    5421 TIP4 H2   HW0      0.679100        1.0080           
   21684 A    5421 TIP4 BD1  LP0     -1.358200        0.0000           
   21685 A    5422 TIP4 O1   OW0      0.000000       15.9990           
   21686 A    5422 TIP4 H1   HW0      0.679100        1.0080           
   21687 A    5422 TIP4 H2   HW0      0.679100        1.0080           
   21688 A    5422 TIP4 BD1  LP0     -1.358200        0.0000           
   21689 A    5423 TIP4 O1   OW0      0.000000       15.9990           
   21690 A    5423 TIP4 H1   HW0      0.679100        1.0080           
   21691 A    5423 TIP4 H2   HW0      0.679100        1.0080           
   21692 A    5423 TIP4 BD1  LP0     -1.358200        0.0000           
   21693 A    5424 TIP4 O1   OW0      0.000000       15.9990           
   21694 A    5424 TIP4 H1   HW0      0.679100        1.0080           
   21695 A    5424 TIP4 H2   HW0      0.679100        1.0080           
   21696 A    5424 TIP4 BD1  LP0     -1.358200        0.0000           
   21697 A    5425 TIP4 O1   OW0      0.000000       15.9990           
   21698 A    5425 TIP4 H1   HW0      0.679100        1.0080           
   21699 A    5425 TIP4 H2   HW0      0.679100        1.0080           
   21700 A    5425 TIP4 BD1  LP0     -1.358200        0.0000           
   21701 A    5426 TIP4 O1   OW0      0.000000       15.9990           
   21702 A    5426 TIP4 H1   HW0      0.679100        1.0080           
   21703 A    5426 TIP4 H2   HW0      0.679100        1.0080           
   21704 A    5426 TIP4 BD1  LP0     -1.358200        0.0000           
   21705 A    5427 TIP4 O1   OW0      0.000000       15.9990           
   21706 A    5427 TIP4 H1   HW0      0.679100        1.0080           
   21707 A    5427 TIP4 H2   HW0      0.679100        1.0080           
   21708 A    5427 TIP4 BD1  LP0     -1.358200        0.0000           
   21709 A    5428 TIP4 O1   OW0      0.000000       15.9990           
   21710 A    5428 TIP4 H1   HW0      0.679100        1.0080           
   21711 A    5428 TIP4 H2   HW0      0.679100        1.0080           
   21712 A    5428 TIP4 BD1  LP0     -1.358200        0.0000           
   21713 A    5429 TIP4 O1   OW0      0.000000       15.9990           
   21714 A    5429 TIP4 H1   HW0      0.679100        1.0080           
   21715 A    5429 TIP4 H2   HW0      0.679100        1.0080           
   21716 A    5429 TIP4 BD1  LP0     -1.358200        0.0000           
   21717 A    5430 TIP4 O1   OW0      0.000000       15.9990           
   21718 A    5430 TIP4 H1   HW0      0.679100        1.0080           
   21719 A    5430 TIP4 H2   HW0      0.679100        1.0080           
   21720 A    5430 TIP4 BD1  LP0     -1.358200        0.0000           
   21721 A    5431 TIP4 O1   OW0      0.000000       15.9990           
   21722 A    5431 TIP4 H1   HW0      0.679100        1.0080           
   21723 A    5431 TIP4 H2   HW0      0.679100        1.0080           
   21724 A    5431 TIP4 BD1  LP0     -1.358200        0.0000           
   21725 A    5432 TIP4 O1   OW0      0.000000       15.9990           
   21726 A    5432 TIP4 H1   HW0      0.679100        1.0080           
   21727 A    5432 TIP4 H2   HW0      0.679100        1.0080           
   21728 A    5432 TIP4 BD1  LP0     -1.358200        0.0000           
   21729 A    5433 TIP4 O1   OW0      0.000000       15.9990           
   21730 A    5433 TIP4 H1   HW0      0.679100        1.0080           
   21731 A    5433 TIP4 H2   HW0      0.679100        1.0080           
   21732 A    5433 TIP4 BD1  LP0     -1.358200        0.0000           
   21733 A    5434 TIP4 O1   OW0      0.000000       15.9990           
   21734 A    5434 TIP4 H1   HW0      0.679100        1.0080           
   21735 A    5434 TIP4 H2   HW0      0.679100        1.0080           
   21736 A    5434 TIP4 BD1  LP0     -1.358200        0.0000           
   21737 A    5435 TIP4 O1   OW0      0.000000       15.9990           
   21738 A    5435 TIP4 H1   HW0      0.679100        1.0080           
   21739 A    5435 TIP4 H2   HW0      0.679100        1.0080           
   21740 A    5435 TIP4 BD1  LP0     -1.358200        0.0000           
   21741 A    5436 TIP4 O1   OW0      0.000000       15.9990           
   21742 A    5436 TIP4 H1   HW0      0.679100        1.0080           
   21743 A    5436 TIP4 H2   HW0      0.679100        1.0080           
   21744 A    5436 TIP4 BD1  LP0     -1.358200        0.0000           
   21745 A    5437 TIP4 O1   OW0      0.000000       15.9990           
   21746 A    5437 TIP4 H1   HW0      0.679100        1.0080           
   21747 A    5437 TIP4 H2   HW0      0.679100        1.0080           
   21748 A    5437 TIP4 BD1  LP0     -1.358200        0.0000           
   21749 A    5438 TIP4 O1   OW0      0.000000       15.9990           
   21750 A    5438 TIP4 H1   HW0      0.679100        1.0080           
   21751 A    5438 TIP4 H2   HW0      0.679100        1.0080           
   21752 A    5438 TIP4 BD1  LP0     -1.358200        0.0000           
   21753 A    5439 TIP4 O1   OW0      0.000000       15.9990           
   21754 A    5439 TIP4 H1   HW0      0.679100        1.0080           
   21755 A    5439 TIP4 H2   HW0      0.679100        1.0080           
   21756 A    5439 TIP4 BD1  LP0     -1.358200        0.0000           
   21757 A    5440 TIP4 O1   OW0      0.000000       15.9990           
   21758 A    5440 TIP4 H1   HW0      0.679100        1.0080           
   21759 A    5440 TIP4 H2   HW0      0.679100        1.0080           
   21760 A    5440 TIP4 BD1  LP0     -1.358200        0.0000           
   21761 A    5441 TIP4 O1   OW0      0.000000       15.9990           
   21762 A    5441 TIP4 H1   HW0      0.679100        1.0080           
   21763 A    5441 TIP4 H2   HW0      0.679100        1.0080           
   21764 A    5441 TIP4 BD1  LP0     -1.358200        0.0000           
   21765 A    5442 TIP4 O1   OW0      0.000000       15.9990           
   21766 A    5442 TIP4 H1   HW0      0.679100        1.0080           
   21767 A    5442 TIP4 H2   HW0      0.679100        1.0080           
   21768 A    5442 TIP4 BD1  LP0     -1.358200        0.0000           
   21769 A    5443 TIP4 O1   OW0      0.000000       15.9990           
   21770 A    5443 TIP4 H1   HW0      0.679100        1.0080           
   21771 A    5443 TIP4 H2   HW0      0.679100        1.0080           
   21772 A    5443 TIP4 BD1  LP0     -1.358200        0.0000           
   21773 A    5444 TIP4 O1   OW0      0.000000       15.9990           
   21774 A    5444 TIP4 H1   HW0      0.679100        1.0080           
   21775 A    5444 TIP4 H2   HW0      0.679100        1.0080           
   21776 A    5444 TIP4 BD1  LP0     -1.358200        0.0000           
   21777 A    5445 TIP4 O1   OW0      0.000000       15.9990           
   21778 A    5445 TIP4 H1   HW0      0.679100        1.0080           
   21779 A    5445 TIP4 H2   HW0      0.679100        1.0080           
   21780 A    5445 TIP4 BD1  LP0     -1.358200        0.0000           
   21781 A    5446 TIP4 O1   OW0      0.000000       15.9990           
   21782 A    5446 TIP4 H1   HW0      0.679100        1.0080           
   21783 A    5446 TIP4 H2   HW0      0.679100        1.0080           
   21784 A    5446 TIP4 BD1  LP0     -1.358200        0.0000           
   21785 A    5447 TIP4 O1   OW0      0.000000       15.9990           
   21786 A    5447 TIP4 H1   HW0      0.679100        1.0080           
   21787 A    5447 TIP4 H2   HW0      0.679100        1.0080           
   21788 A    5447 TIP4 BD1  LP0     -1.358200        0.0000           
   21789 A    5448 TIP4 O1   OW0      0.000000       15.9990           
   21790 A    5448 TIP4 H1   HW0      0.679100        1.0080           
   21791 A    5448 TIP4 H2   HW0      0.679100        1.0080           
   21792 A    5448 TIP4 BD1  LP0     -1.358200        0.0000           
   21793 A    5449 TIP4 O1   OW0      0.000000       15.9990           
   21794 A    5449 TIP4 H1   HW0      0.679100        1.0080           
   21795 A    5449 TIP4 H2   HW0      0.679100        1.0080           
   21796 A    5449 TIP4 BD1  LP0     -1.358200        0.0000           
   21797 A    5450 TIP4 O1   OW0      0.000000       15.9990           
   21798 A    5450 TIP4 H1   HW0      0.679100        1.0080           
   21799 A    5450 TIP4 H2   HW0      0.679100        1.0080           
   21800 A    5450 TIP4 BD1  LP0     -1.358200        0.0000           
   21801 A    5451 TIP4 O1   OW0      0.000000       15.9990           
   21802 A    5451 TIP4 H1   HW0      0.679100        1.0080           
   21803 A    5451 TIP4 H2   HW0      0.679100        1.0080           
   21804 A    5451 TIP4 BD1  LP0     -1.358200        0.0000           
   21805 A    5452 TIP4 O1   OW0      0.000000       15.9990           
   21806 A    5452 TIP4 H1   HW0      0.679100        1.0080           
   21807 A    5452 TIP4 H2   HW0      0.679100        1.0080           
   21808 A    5452 TIP4 BD1  LP0     -1.358200        0.0000           
   21809 A    5453 TIP4 O1   OW0      0.000000       15.9990           
   21810 A    5453 TIP4 H1   HW0      0.679100        1.0080           
   21811 A    5453 TIP4 H2   HW0      0.679100        1.0080           
   21812 A    5453 TIP4 BD1  LP0     -1.358200        0.0000           
   21813 A    5454 TIP4 O1   OW0      0.000000       15.9990           
   21814 A    5454 TIP4 H1   HW0      0.679100        1.0080           
   21815 A    5454 TIP4 H2   HW0      0.679100        1.0080           
   21816 A    5454 TIP4 BD1  LP0     -1.358200        0.0000           
   21817 A    5455 TIP4 O1   OW0      0.000000       15.9990           
   21818 A    5455 TIP4 H1   HW0      0.679100        1.0080           
   21819 A    5455 TIP4 H2   HW0      0.679100        1.0080           
   21820 A    5455 TIP4 BD1  LP0     -1.358200        0.0000           
   21821 A    5456 TIP4 O1   OW0      0.000000       15.9990           
   21822 A    5456 TIP4 H1   HW0      0.679100        1.0080           
   21823 A    5456 TIP4 H2   HW0      0.679100        1.0080           
   21824 A    5456 TIP4 BD1  LP0     -1.358200        0.0000           
   21825 A    5457 TIP4 O1   OW0      0.000000       15.9990           
   21826 A    5457 TIP4 H1   HW0      0.679100        1.0080           
   21827 A    5457 TIP4 H2   HW0      0.679100        1.0080           
   21828 A    5457 TIP4 BD1  LP0     -1.358200        0.0000           
   21829 A    5458 TIP4 O1   OW0      0.000000       15.9990           
   21830 A    5458 TIP4 H1   HW0      0.679100        1.0080           
   21831 A    5458 TIP4 H2   HW0      0.679100        1.0080           
   21832 A    5458 TIP4 BD1  LP0     -1.358200        0.0000           
   21833 A    5459 TIP4 O1   OW0      0.000000       15.9990           
   21834 A    5459 TIP4 H1   HW0      0.679100        1.0080           
   21835 A    5459 TIP4 H2   HW0      0.679100        1.0080           
   21836 A    5459 TIP4 BD1  LP0     -1.358200        0.0000           
   21837 A    5460 TIP4 O1   OW0      0.000000       15.9990           
   21838 A    5460 TIP4 H1   HW0      0.679100        1.0080           
   21839 A    5460 TIP4 H2   HW0      0.679100        1.0080           
   21840 A    5460 TIP4 BD1  LP0     -1.358200        0.0000           
   21841 A    5461 TIP4 O1   OW0      0.000000       15.9990           
   21842 A    5461 TIP4 H1   HW0      0.679100        1.0080           
   21843 A    5461 TIP4 H2   HW0      0.679100        1.0080           
   21844 A    5461 TIP4 BD1  LP0     -1.358200        0.0000           
   21845 A    5462 TIP4 O1   OW0      0.000000       15.9990           
   21846 A    5462 TIP4 H1   HW0      0.679100        1.0080           
   21847 A    5462 TIP4 H2   HW0      0.679100        1.0080           
   21848 A    5462 TIP4 BD1  LP0     -1.358200        0.0000           
   21849 A    5463 TIP4 O1   OW0      0.000000       15.9990           
   21850 A    5463 TIP4 H1   HW0      0.679100        1.0080           
   21851 A    5463 TIP4 H2   HW0      0.679100        1.0080           
   21852 A    5463 TIP4 BD1  LP0     -1.358200        0.0000           
   21853 A    5464 TIP4 O1   OW0      0.000000       15.9990           
   21854 A    5464 TIP4 H1   HW0      0.679100        1.0080           
   21855 A    5464 TIP4 H2   HW0      0.679100        1.0080           
   21856 A    5464 TIP4 BD1  LP0     -1.358200        0.0000           
   21857 A    5465 TIP4 O1   OW0      0.000000       15.9990           
   21858 A    5465 TIP4 H1   HW0      0.679100        1.0080           
   21859 A    5465 TIP4 H2   HW0      0.679100        1.0080           
   21860 A    5465 TIP4 BD1  LP0     -1.358200        0.0000           
   21861 A    5466 TIP4 O1   OW0      0.000000       15.9990           
   21862 A    5466 TIP4 H1   HW0      0.679100        1.0080           
   21863 A    5466 TIP4 H2   HW0      0.679100        1.0080           
   21864 A    5466 TIP4 BD1  LP0     -1.358200        0.0000           
   21865 A    5467 TIP4 O1   OW0      0.000000       15.9990           
   21866 A    5467 TIP4 H1   HW0      0.679100        1.0080           
   21867 A    5467 TIP4 H2   HW0      0.679100        1.0080           
   21868 A    5467 TIP4 BD1  LP0     -1.358200        0.0000           
   21869 A    5468 TIP4 O1   OW0      0.000000       15.9990           
   21870 A    5468 TIP4 H1   HW0      0.679100        1.0080           
   21871 A    5468 TIP4 H2   HW0      0.679100        1.0080           
   21872 A    5468 TIP4 BD1  LP0     -1.358200        0.0000           
   21873 A    5469 TIP4 O1   OW0      0.000000       15.9990           
   21874 A    5469 TIP4 H1   HW0      0.679100        1.0080           
   21875 A    5469 TIP4 H2   HW0      0.679100        1.0080           
   21876 A    5469 TIP4 BD1  LP0     -1.358200        0.0000           
   21877 A    5470 TIP4 O1   OW0      0.000000       15.9990           
   21878 A    5470 TIP4 H1   HW0      0.679100        1.0080           
   21879 A    5470 TIP4 H2   HW0      0.679100        1.0080           
   21880 A    5470 TIP4 BD1  LP0     -1.358200        0.0000           
   21881 A    5471 TIP4 O1   OW0      0.000000       15.9990           
   21882 A    5471 TIP4 H1   HW0      0.679100        1.0080           
   21883 A    5471 TIP4 H2   HW0      0.679100        1.0080           
   21884 A    5471 TIP4 BD1  LP0     -1.358200        0.0000           
   21885 A    5472 TIP4 O1   OW0      0.000000       15.9990           
   21886 A    5472 TIP4 H1   HW0      0.679100        1.0080           
   21887 A    5472 TIP4 H2   HW0      0.679100        1.0080           
   21888 A    5472 TIP4 BD1  LP0     -1.358200        0.0000           
   21889 A    5473 TIP4 O1   OW0      0.000000       15.9990           
   21890 A    5473 TIP4 H1   HW0      0.679100        1.0080           
   21891 A    5473 TIP4 H2   HW0      0.679100        1.0080           
   21892 A    5473 TIP4 BD1  LP0     -1.358200        0.0000           
   21893 A    5474 TIP4 O1   OW0      0.000000       15.9990           
   21894 A    5474 TIP4 H1   HW0      0.679100        1.0080           
   21895 A    5474 TIP4 H2   HW0      0.679100        1.0080           
   21896 A    5474 TIP4 BD1  LP0     -1.358200        0.0000           
   21897 A    5475 TIP4 O1   OW0      0.000000       15.9990           
   21898 A    5475 TIP4 H1   HW0      0.679100        1.0080           
   21899 A    5475 TIP4 H2   HW0      0.679100        1.0080           
   21900 A    5475 TIP4 BD1  LP0     -1.358200        0.0000           
   21901 A    5476 TIP4 O1   OW0      0.000000       15.9990           
   21902 A    5476 TIP4 H1   HW0      0.679100        1.0080           
   21903 A    5476 TIP4 H2   HW0      0.679100        1.0080           
   21904 A    5476 TIP4 BD1  LP0     -1.358200        0.0000           
   21905 A    5477 TIP4 O1   OW0      0.000000       15.9990           
   21906 A    5477 TIP4 H1   HW0      0.679100        1.0080           
   21907 A    5477 TIP4 H2   HW0      0.679100        1.0080           
   21908 A    5477 TIP4 BD1  LP0     -1.358200        0.0000           
   21909 A    5478 TIP4 O1   OW0      0.000000       15.9990           
   21910 A    5478 TIP4 H1   HW0      0.679100        1.0080           
   21911 A    5478 TIP4 H2   HW0      0.679100        1.0080           
   21912 A    5478 TIP4 BD1  LP0     -1.358200        0.0000           
   21913 A    5479 TIP4 O1   OW0      0.000000       15.9990           
   21914 A    5479 TIP4 H1   HW0      0.679100        1.0080           
   21915 A    5479 TIP4 H2   HW0      0.679100        1.0080           
   21916 A    5479 TIP4 BD1  LP0     -1.358200        0.0000           
   21917 A    5480 TIP4 O1   OW0      0.000000       15.9990           
   21918 A    5480 TIP4 H1   HW0      0.679100        1.0080           
   21919 A    5480 TIP4 H2   HW0      0.679100        1.0080           
   21920 A    5480 TIP4 BD1  LP0     -1.358200        0.0000           
   21921 A    5481 TIP4 O1   OW0      0.000000       15.9990           
   21922 A    5481 TIP4 H1   HW0      0.679100        1.0080           
   21923 A    5481 TIP4 H2   HW0      0.679100        1.0080           
   21924 A    5481 TIP4 BD1  LP0     -1.358200        0.0000           
   21925 A    5482 TIP4 O1   OW0      0.000000       15.9990           
   21926 A    5482 TIP4 H1   HW0      0.679100        1.0080           
   21927 A    5482 TIP4 H2   HW0      0.679100        1.0080           
   21928 A    5482 TIP4 BD1  LP0     -1.358200        0.0000           
   21929 A    5483 TIP4 O1   OW0      0.000000       15.9990           
   21930 A    5483 TIP4 H1   HW0      0.679100        1.0080           
   21931 A    5483 TIP4 H2   HW0      0.679100        1.0080           
   21932 A    5483 TIP4 BD1  LP0     -1.358200        0.0000           
   21933 A    5484 TIP4 O1   OW0      0.000000       15.9990           
   21934 A    5484 TIP4 H1   HW0      0.679100        1.0080           
   21935 A    5484 TIP4 H2   HW0      0.679100        1.0080           
   21936 A    5484 TIP4 BD1  LP0     -1.358200        0.0000           
   21937 A    5485 TIP4 O1   OW0      0.000000       15.9990           
   21938 A    5485 TIP4 H1   HW0      0.679100        1.0080           
   21939 A    5485 TIP4 H2   HW0      0.679100        1.0080           
   21940 A    5485 TIP4 BD1  LP0     -1.358200        0.0000           
   21941 A    5486 TIP4 O1   OW0      0.000000       15.9990           
   21942 A    5486 TIP4 H1   HW0      0.679100        1.0080           
   21943 A    5486 TIP4 H2   HW0      0.679100        1.0080           
   21944 A    5486 TIP4 BD1  LP0     -1.358200        0.0000           
   21945 A    5487 TIP4 O1   OW0      0.000000       15.9990           
   21946 A    5487 TIP4 H1   HW0      0.679100        1.0080           
   21947 A    5487 TIP4 H2   HW0      0.679100        1.0080           
   21948 A    5487 TIP4 BD1  LP0     -1.358200        0.0000           
   21949 A    5488 TIP4 O1   OW0      0.000000       15.9990           
   21950 A    5488 TIP4 H1   HW0      0.679100        1.0080           
   21951 A    5488 TIP4 H2   HW0      0.679100        1.0080           
   21952 A    5488 TIP4 BD1  LP0     -1.358200        0.0000           
   21953 A    5489 TIP4 O1   OW0      0.000000       15.9990           
   21954 A    5489 TIP4 H1   HW0      0.679100        1.0080           
   21955 A    5489 TIP4 H2   HW0      0.679100        1.0080           
   21956 A    5489 TIP4 BD1  LP0     -1.358200        0.0000           
   21957 A    5490 TIP4 O1   OW0      0.000000       15.9990           
   21958 A    5490 TIP4 H1   HW0      0.679100        1.0080           
   21959 A    5490 TIP4 H2   HW0      0.679100        1.0080           
   21960 A    5490 TIP4 BD1  LP0     -1.358200        0.0000           
   21961 A    5491 TIP4 O1   OW0      0.000000       15.9990           
   21962 A    5491 TIP4 H1   HW0      0.679100        1.0080           
   21963 A    5491 TIP4 H2   HW0      0.679100        1.0080           
   21964 A    5491 TIP4 BD1  LP0     -1.358200        0.0000           
   21965 A    5492 TIP4 O1   OW0      0.000000       15.9990           
   21966 A    5492 TIP4 H1   HW0      0.679100        1.0080           
   21967 A    5492 TIP4 H2   HW0      0.679100        1.0080           
   21968 A    5492 TIP4 BD1  LP0     -1.358200        0.0000           
   21969 A    5493 TIP4 O1   OW0      0.000000       15.9990           
   21970 A    5493 TIP4 H1   HW0      0.679100        1.0080           
   21971 A    5493 TIP4 H2   HW0      0.679100        1.0080           
   21972 A    5493 TIP4 BD1  LP0     -1.358200        0.0000           
   21973 A    5494 TIP4 O1   OW0      0.000000       15.9990           
   21974 A    5494 TIP4 H1   HW0      0.679100        1.0080           
   21975 A    5494 TIP4 H2   HW0      0.679100        1.0080           
   21976 A    5494 TIP4 BD1  LP0     -1.358200        0.0000           
   21977 A    5495 TIP4 O1   OW0      0.000000       15.9990           
   21978 A    5495 TIP4 H1   HW0      0.679100        1.0080           
   21979 A    5495 TIP4 H2   HW0      0.679100        1.0080           
   21980 A    5495 TIP4 BD1  LP0     -1.358200        0.0000           
   21981 A    5496 TIP4 O1   OW0      0.000000       15.9990           
   21982 A    5496 TIP4 H1   HW0      0.679100        1.0080           
   21983 A    5496 TIP4 H2   HW0      0.679100        1.0080           
   21984 A    5496 TIP4 BD1  LP0     -1.358200        0.0000           
   21985 A    5497 TIP4 O1   OW0      0.000000       15.9990           
   21986 A    5497 TIP4 H1   HW0      0.679100        1.0080           
   21987 A    5497 TIP4 H2   HW0      0.679100        1.0080           
   21988 A    5497 TIP4 BD1  LP0     -1.358200        0.0000           
   21989 A    5498 TIP4 O1   OW0      0.000000       15.9990           
   21990 A    5498 TIP4 H1   HW0      0.679100        1.0080           
   21991 A    5498 TIP4 H2   HW0      0.679100        1.0080           
   21992 A    5498 TIP4 BD1  LP0     -1.358200        0.0000           
   21993 A    5499 TIP4 O1   OW0      0.000000       15.9990           
   21994 A    5499 TIP4 H1   HW0      0.679100        1.0080           
   21995 A    5499 TIP4 H2   HW0      0.679100        1.0080           
   21996 A    5499 TIP4 BD1  LP0     -1.358200        0.0000           
   21997 A    5500 TIP4 O1   OW0      0.000000       15.9990           
   21998 A    5500 TIP4 H1   HW0      0.679100        1.0080           
   21999 A    5500 TIP4 H2   HW0      0.679100        1.0080           
   22000 A    5500 TIP4 BD1  LP0     -1.358200        0.0000           
   22001 A    5501 TIP4 O1   OW0      0.000000       15.9990           
   22002 A    5501 TIP4 H1   HW0      0.679100        1.0080           
   22003 A    5501 TIP4 H2   HW0      0.679100        1.0080           
   22004 A    5501 TIP4 BD1  LP0     -1.358200        0.0000           
   22005 A    5502 TIP4 O1   OW0      0.000000       15.9990           
   22006 A    5502 TIP4 H1   HW0      0.679100        1.0080           
   22007 A    5502 TIP4 H2   HW0      0.679100        1.0080           
   22008 A    5502 TIP4 BD1  LP0     -1.358200        0.0000           
   22009 A    5503 TIP4 O1   OW0      0.000000       15.9990           
   22010 A    5503 TIP4 H1   HW0      0.679100        1.0080           
   22011 A    5503 TIP4 H2   HW0      0.679100        1.0080           
   22012 A    5503 TIP4 BD1  LP0     -1.358200        0.0000           
   22013 A    5504 TIP4 O1   OW0      0.000000       15.9990           
   22014 A    5504 TIP4 H1   HW0      0.679100        1.0080           
   22015 A    5504 TIP4 H2   HW0      0.679100        1.0080           
   22016 A    5504 TIP4 BD1  LP0     -1.358200        0.0000           
   22017 A    5505 TIP4 O1   OW0      0.000000       15.9990           
   22018 A    5505 TIP4 H1   HW0      0.679100        1.0080           
   22019 A    5505 TIP4 H2   HW0      0.679100        1.0080           
   22020 A    5505 TIP4 BD1  LP0     -1.358200        0.0000           
   22021 A    5506 TIP4 O1   OW0      0.000000       15.9990           
   22022 A    5506 TIP4 H1   HW0      0.679100        1.0080           
   22023 A    5506 TIP4 H2   HW0      0.679100        1.0080           
   22024 A    5506 TIP4 BD1  LP0     -1.358200        0.0000           
   22025 A    5507 TIP4 O1   OW0      0.000000       15.9990           
   22026 A    5507 TIP4 H1   HW0      0.679100        1.0080           
   22027 A    5507 TIP4 H2   HW0      0.679100        1.0080           
   22028 A    5507 TIP4 BD1  LP0     -1.358200        0.0000           
   22029 A    5508 TIP4 O1   OW0      0.000000       15.9990           
   22030 A    5508 TIP4 H1   HW0      0.679100        1.0080           
   22031 A    5508 TIP4 H2   HW0      0.679100        1.0080           
   22032 A    5508 TIP4 BD1  LP0     -1.358200        0.0000           
   22033 A    5509 TIP4 O1   OW0      0.000000       15.9990           
   22034 A    5509 TIP4 H1   HW0      0.679100        1.0080           
   22035 A    5509 TIP4 H2   HW0      0.679100        1.0080           
   22036 A    5509 TIP4 BD1  LP0     -1.358200        0.0000           
   22037 A    5510 TIP4 O1   OW0      0.000000       15.9990           
   22038 A    5510 TIP4 H1   HW0      0.679100        1.0080           
   22039 A    5510 TIP4 H2   HW0      0.679100        1.0080           
   22040 A    5510 TIP4 BD1  LP0     -1.358200        0.0000           
   22041 A    5511 TIP4 O1   OW0      0.000000       15.9990           
   22042 A    5511 TIP4 H1   HW0      0.679100        1.0080           
   22043 A    5511 TIP4 H2   HW0      0.679100        1.0080           
   22044 A    5511 TIP4 BD1  LP0     -1.358200        0.0000           
   22045 A    5512 TIP4 O1   OW0      0.000000       15.9990           
   22046 A    5512 TIP4 H1   HW0      0.679100        1.0080           
   22047 A    5512 TIP4 H2   HW0      0.679100        1.0080           
   22048 A    5512 TIP4 BD1  LP0     -1.358200        0.0000           
   22049 A    5513 TIP4 O1   OW0      0.000000       15.9990           
   22050 A    5513 TIP4 H1   HW0      0.679100        1.0080           
   22051 A    5513 TIP4 H2   HW0      0.679100        1.0080           
   22052 A    5513 TIP4 BD1  LP0     -1.358200        0.0000           
   22053 A    5514 TIP4 O1   OW0      0.000000       15.9990           
   22054 A    5514 TIP4 H1   HW0      0.679100        1.0080           
   22055 A    5514 TIP4 H2   HW0      0.679100        1.0080           
   22056 A    5514 TIP4 BD1  LP0     -1.358200        0.0000           
   22057 A    5515 TIP4 O1   OW0      0.000000       15.9990           
   22058 A    5515 TIP4 H1   HW0      0.679100        1.0080           
   22059 A    5515 TIP4 H2   HW0      0.679100        1.0080           
   22060 A    5515 TIP4 BD1  LP0     -1.358200        0.0000           
   22061 A    5516 TIP4 O1   OW0      0.000000       15.9990           
   22062 A    5516 TIP4 H1   HW0      0.679100        1.0080           
   22063 A    5516 TIP4 H2   HW0      0.679100        1.0080           
   22064 A    5516 TIP4 BD1  LP0     -1.358200        0.0000           
   22065 A    5517 TIP4 O1   OW0      0.000000       15.9990           
   22066 A    5517 TIP4 H1   HW0      0.679100        1.0080           
   22067 A    5517 TIP4 H2   HW0      0.679100        1.0080           
   22068 A    5517 TIP4 BD1  LP0     -1.358200        0.0000           
   22069 A    5518 TIP4 O1   OW0      0.000000       15.9990           
   22070 A    5518 TIP4 H1   HW0      0.679100        1.0080           
   22071 A    5518 TIP4 H2   HW0      0.679100        1.0080           
   22072 A    5518 TIP4 BD1  LP0     -1.358200        0.0000           
   22073 A    5519 TIP4 O1   OW0      0.000000       15.9990           
   22074 A    5519 TIP4 H1   HW0      0.679100        1.0080           
   22075 A    5519 TIP4 H2   HW0      0.679100        1.0080           
   22076 A    5519 TIP4 BD1  LP0     -1.358200        0.0000           
   22077 A    5520 TIP4 O1   OW0      0.000000       15.9990           
   22078 A    5520 TIP4 H1   HW0      0.679100        1.0080           
   22079 A    5520 TIP4 H2   HW0      0.679100        1.0080           
   22080 A    5520 TIP4 BD1  LP0     -1.358200        0.0000           
   22081 A    5521 TIP4 O1   OW0      0.000000       15.9990           
   22082 A    5521 TIP4 H1   HW0      0.679100        1.0080           
   22083 A    5521 TIP4 H2   HW0      0.679100        1.0080           
   22084 A    5521 TIP4 BD1  LP0     -1.358200        0.0000           
   22085 A    5522 TIP4 O1   OW0      0.000000       15.9990           
   22086 A    5522 TIP4 H1   HW0      0.679100        1.0080           
   22087 A    5522 TIP4 H2   HW0      0.679100        1.0080           
   22088 A    5522 TIP4 BD1  LP0     -1.358200        0.0000           
   22089 A    5523 TIP4 O1   OW0      0.000000       15.9990           
   22090 A    5523 TIP4 H1   HW0      0.679100        1.0080           
   22091 A    5523 TIP4 H2   HW0      0.679100        1.0080           
   22092 A    5523 TIP4 BD1  LP0     -1.358200        0.0000           
   22093 A    5524 TIP4 O1   OW0      0.000000       15.9990           
   22094 A    5524 TIP4 H1   HW0      0.679100        1.0080           
   22095 A    5524 TIP4 H2   HW0      0.679100        1.0080           
   22096 A    5524 TIP4 BD1  LP0     -1.358200        0.0000           
   22097 A    5525 TIP4 O1   OW0      0.000000       15.9990           
   22098 A    5525 TIP4 H1   HW0      0.679100        1.0080           
   22099 A    5525 TIP4 H2   HW0      0.679100        1.0080           
   22100 A    5525 TIP4 BD1  LP0     -1.358200        0.0000           
   22101 A    5526 TIP4 O1   OW0      0.000000       15.9990           
   22102 A    5526 TIP4 H1   HW0      0.679100        1.0080           
   22103 A    5526 TIP4 H2   HW0      0.679100        1.0080           
   22104 A    5526 TIP4 BD1  LP0     -1.358200        0.0000           
   22105 A    5527 TIP4 O1   OW0      0.000000       15.9990           
   22106 A    5527 TIP4 H1   HW0      0.679100        1.0080           
   22107 A    5527 TIP4 H2   HW0      0.679100        1.0080           
   22108 A    5527 TIP4 BD1  LP0     -1.358200        0.0000           
   22109 A    5528 TIP4 O1   OW0      0.000000       15.9990           
   22110 A    5528 TIP4 H1   HW0      0.679100        1.0080           
   22111 A    5528 TIP4 H2   HW0      0.679100        1.0080           
   22112 A    5528 TIP4 BD1  LP0     -1.358200        0.0000           
   22113 A    5529 TIP4 O1   OW0      0.000000       15.9990           
   22114 A    5529 TIP4 H1   HW0      0.679100        1.0080           
   22115 A    5529 TIP4 H2   HW0      0.679100        1.0080           
   22116 A    5529 TIP4 BD1  LP0     -1.358200        0.0000           
   22117 A    5530 TIP4 O1   OW0      0.000000       15.9990           
   22118 A    5530 TIP4 H1   HW0      0.679100        1.0080           
   22119 A    5530 TIP4 H2   HW0      0.679100        1.0080           
   22120 A    5530 TIP4 BD1  LP0     -1.358200        0.0000           
   22121 A    5531 TIP4 O1   OW0      0.000000       15.9990           
   22122 A    5531 TIP4 H1   HW0      0.679100        1.0080           
   22123 A    5531 TIP4 H2   HW0      0.679100        1.0080           
   22124 A    5531 TIP4 BD1  LP0     -1.358200        0.0000           
   22125 A    5532 TIP4 O1   OW0      0.000000       15.9990           
   22126 A    5532 TIP4 H1   HW0      0.679100        1.0080           
   22127 A    5532 TIP4 H2   HW0      0.679100        1.0080           
   22128 A    5532 TIP4 BD1  LP0     -1.358200        0.0000           
   22129 A    5533 TIP4 O1   OW0      0.000000       15.9990           
   22130 A    5533 TIP4 H1   HW0      0.679100        1.0080           
   22131 A    5533 TIP4 H2   HW0      0.679100        1.0080           
   22132 A    5533 TIP4 BD1  LP0     -1.358200        0.0000           
   22133 A    5534 TIP4 O1   OW0      0.000000       15.9990           
   22134 A    5534 TIP4 H1   HW0      0.679100        1.0080           
   22135 A    5534 TIP4 H2   HW0      0.679100        1.0080           
   22136 A    5534 TIP4 BD1  LP0     -1.358200        0.0000           
   22137 A    5535 TIP4 O1   OW0      0.000000       15.9990           
   22138 A    5535 TIP4 H1   HW0      0.679100        1.0080           
   22139 A    5535 TIP4 H2   HW0      0.679100        1.0080           
   22140 A    5535 TIP4 BD1  LP0     -1.358200        0.0000           
   22141 A    5536 TIP4 O1   OW0      0.000000       15.9990           
   22142 A    5536 TIP4 H1   HW0      0.679100        1.0080           
   22143 A    5536 TIP4 H2   HW0      0.679100        1.0080           
   22144 A    5536 TIP4 BD1  LP0     -1.358200        0.0000           
   22145 A    5537 TIP4 O1   OW0      0.000000       15.9990           
   22146 A    5537 TIP4 H1   HW0      0.679100        1.0080           
   22147 A    5537 TIP4 H2   HW0      0.679100        1.0080           
   22148 A    5537 TIP4 BD1  LP0     -1.358200        0.0000           
   22149 A    5538 TIP4 O1   OW0      0.000000       15.9990           
   22150 A    5538 TIP4 H1   HW0      0.679100        1.0080           
   22151 A    5538 TIP4 H2   HW0      0.679100        1.0080           
   22152 A    5538 TIP4 BD1  LP0     -1.358200        0.0000           
   22153 A    5539 TIP4 O1   OW0      0.000000       15.9990           
   22154 A    5539 TIP4 H1   HW0      0.679100        1.0080           
   22155 A    5539 TIP4 H2   HW0      0.679100        1.0080           
   22156 A    5539 TIP4 BD1  LP0     -1.358200        0.0000           
   22157 A    5540 TIP4 O1   OW0      0.000000       15.9990           
   22158 A    5540 TIP4 H1   HW0      0.679100        1.0080           
   22159 A    5540 TIP4 H2   HW0      0.679100        1.0080           
   22160 A    5540 TIP4 BD1  LP0     -1.358200        0.0000           
   22161 A    5541 TIP4 O1   OW0      0.000000       15.9990           
   22162 A    5541 TIP4 H1   HW0      0.679100        1.0080           
   22163 A    5541 TIP4 H2   HW0      0.679100        1.0080           
   22164 A    5541 TIP4 BD1  LP0     -1.358200        0.0000           
   22165 A    5542 TIP4 O1   OW0      0.000000       15.9990           
   22166 A    5542 TIP4 H1   HW0      0.679100        1.0080           
   22167 A    5542 TIP4 H2   HW0      0.679100        1.0080           
   22168 A    5542 TIP4 BD1  LP0     -1.358200        0.0000           
   22169 A    5543 TIP4 O1   OW0      0.000000       15.9990           
   22170 A    5543 TIP4 H1   HW0      0.679100        1.0080           
   22171 A    5543 TIP4 H2   HW0      0.679100        1.0080           
   22172 A    5543 TIP4 BD1  LP0     -1.358200        0.0000           
   22173 A    5544 TIP4 O1   OW0      0.000000       15.9990           
   22174 A    5544 TIP4 H1   HW0      0.679100        1.0080           
   22175 A    5544 TIP4 H2   HW0      0.679100        1.0080           
   22176 A    5544 TIP4 BD1  LP0     -1.358200        0.0000           
   22177 A    5545 TIP4 O1   OW0      0.000000       15.9990           
   22178 A    5545 TIP4 H1   HW0      0.679100        1.0080           
   22179 A    5545 TIP4 H2   HW0      0.679100        1.0080           
   22180 A    5545 TIP4 BD1  LP0     -1.358200        0.0000           
   22181 A    5546 TIP4 O1   OW0      0.000000       15.9990           
   22182 A    5546 TIP4 H1   HW0      0.679100        1.0080           
   22183 A    5546 TIP4 H2   HW0      0.679100        1.0080           
   22184 A    5546 TIP4 BD1  LP0     -1.358200        0.0000           
   22185 A    5547 TIP4 O1   OW0      0.000000       15.9990           
   22186 A    5547 TIP4 H1   HW0      0.679100        1.0080           
   22187 A    5547 TIP4 H2   HW0      0.679100        1.0080           
   22188 A    5547 TIP4 BD1  LP0     -1.358200        0.0000           
   22189 A    5548 TIP4 O1   OW0      0.000000       15.9990           
   22190 A    5548 TIP4 H1   HW0      0.679100        1.0080           
   22191 A    5548 TIP4 H2   HW0      0.679100        1.0080           
   22192 A    5548 TIP4 BD1  LP0     -1.358200        0.0000           
   22193 A    5549 TIP4 O1   OW0      0.000000       15.9990           
   22194 A    5549 TIP4 H1   HW0      0.679100        1.0080           
   22195 A    5549 TIP4 H2   HW0      0.679100        1.0080           
   22196 A    5549 TIP4 BD1  LP0     -1.358200        0.0000           
   22197 A    5550 TIP4 O1   OW0      0.000000       15.9990           
   22198 A    5550 TIP4 H1   HW0      0.679100        1.0080           
   22199 A    5550 TIP4 H2   HW0      0.679100        1.0080           
   22200 A    5550 TIP4 BD1  LP0     -1.358200        0.0000           
   22201 A    5551 TIP4 O1   OW0      0.000000       15.9990           
   22202 A    5551 TIP4 H1   HW0      0.679100        1.0080           
   22203 A    5551 TIP4 H2   HW0      0.679100        1.0080           
   22204 A    5551 TIP4 BD1  LP0     -1.358200        0.0000           
   22205 A    5552 TIP4 O1   OW0      0.000000       15.9990           
   22206 A    5552 TIP4 H1   HW0      0.679100        1.0080           
   22207 A    5552 TIP4 H2   HW0      0.679100        1.0080           
   22208 A    5552 TIP4 BD1  LP0     -1.358200        0.0000           
   22209 A    5553 TIP4 O1   OW0      0.000000       15.9990           
   22210 A    5553 TIP4 H1   HW0      0.679100        1.0080           
   22211 A    5553 TIP4 H2   HW0      0.679100        1.0080           
   22212 A    5553 TIP4 BD1  LP0     -1.358200        0.0000           
   22213 A    5554 TIP4 O1   OW0      0.000000       15.9990           
   22214 A    5554 TIP4 H1   HW0      0.679100        1.0080           
   22215 A    5554 TIP4 H2   HW0      0.679100        1.0080           
   22216 A    5554 TIP4 BD1  LP0     -1.358200        0.0000           
   22217 A    5555 TIP4 O1   OW0      0.000000       15.9990           
   22218 A    5555 TIP4 H1   HW0      0.679100        1.0080           
   22219 A    5555 TIP4 H2   HW0      0.679100        1.0080           
   22220 A    5555 TIP4 BD1  LP0     -1.358200        0.0000           
   22221 A    5556 TIP4 O1   OW0      0.000000       15.9990           
   22222 A    5556 TIP4 H1   HW0      0.679100        1.0080           
   22223 A    5556 TIP4 H2   HW0      0.679100        1.0080           
   22224 A    5556 TIP4 BD1  LP0     -1.358200        0.0000           
   22225 A    5557 TIP4 O1   OW0      0.000000       15.9990           
   22226 A    5557 TIP4 H1   HW0      0.679100        1.0080           
   22227 A    5557 TIP4 H2   HW0      0.679100        1.0080           
   22228 A    5557 TIP4 BD1  LP0     -1.358200        0.0000           
   22229 A    5558 TIP4 O1   OW0      0.000000       15.9990           
   22230 A    5558 TIP4 H1   HW0      0.679100        1.0080           
   22231 A    5558 TIP4 H2   HW0      0.679100        1.0080           
   22232 A    5558 TIP4 BD1  LP0     -1.358200        0.0000           
   22233 A    5559 TIP4 O1   OW0      0.000000       15.9990           
   22234 A    5559 TIP4 H1   HW0      0.679100        1.0080           
   22235 A    5559 TIP4 H2   HW0      0.679100        1.0080           
   22236 A    5559 TIP4 BD1  LP0     -1.358200        0.0000           
   22237 A    5560 TIP4 O1   OW0      0.000000       15.9990           
   22238 A    5560 TIP4 H1   HW0      0.679100        1.0080           
   22239 A    5560 TIP4 H2   HW0      0.679100        1.0080           
   22240 A    5560 TIP4 BD1  LP0     -1.358200        0.0000           
   22241 A    5561 TIP4 O1   OW0      0.000000       15.9990           
   22242 A    5561 TIP4 H1   HW0      0.679100        1.0080           
   22243 A    5561 TIP4 H2   HW0      0.679100        1.0080           
   22244 A    5561 TIP4 BD1  LP0     -1.358200        0.0000           
   22245 A    5562 TIP4 O1   OW0      0.000000       15.9990           
   22246 A    5562 TIP4 H1   HW0      0.679100        1.0080           
   22247 A    5562 TIP4 H2   HW0      0.679100        1.0080           
   22248 A    5562 TIP4 BD1  LP0     -1.358200        0.0000           
   22249 A    5563 TIP4 O1   OW0      0.000000       15.9990           
   22250 A    5563 TIP4 H1   HW0      0.679100        1.0080           
   22251 A    5563 TIP4 H2   HW0      0.679100        1.0080           
   22252 A    5563 TIP4 BD1  LP0     -1.358200        0.0000           
   22253 A    5564 TIP4 O1   OW0      0.000000       15.9990           
   22254 A    5564 TIP4 H1   HW0      0.679100        1.0080           
   22255 A    5564 TIP4 H2   HW0      0.679100        1.0080           
   22256 A    5564 TIP4 BD1  LP0     -1.358200        0.0000           
   22257 A    5565 TIP4 O1   OW0      0.000000       15.9990           
   22258 A    5565 TIP4 H1   HW0      0.679100        1.0080           
   22259 A    5565 TIP4 H2   HW0      0.679100        1.0080           
   22260 A    5565 TIP4 BD1  LP0     -1.358200        0.0000           
   22261 A    5566 TIP4 O1   OW0      0.000000       15.9990           
   22262 A    5566 TIP4 H1   HW0      0.679100        1.0080           
   22263 A    5566 TIP4 H2   HW0      0.679100        1.0080           
   22264 A    5566 TIP4 BD1  LP0     -1.358200        0.0000           
   22265 A    5567 TIP4 O1   OW0      0.000000       15.9990           
   22266 A    5567 TIP4 H1   HW0      0.679100        1.0080           
   22267 A    5567 TIP4 H2   HW0      0.679100        1.0080           
   22268 A    5567 TIP4 BD1  LP0     -1.358200        0.0000           
   22269 A    5568 TIP4 O1   OW0      0.000000       15.9990           
   22270 A    5568 TIP4 H1   HW0      0.679100        1.0080           
   22271 A    5568 TIP4 H2   HW0      0.679100        1.0080           
   22272 A    5568 TIP4 BD1  LP0     -1.358200        0.0000           
   22273 A    5569 TIP4 O1   OW0      0.000000       15.9990           
   22274 A    5569 TIP4 H1   HW0      0.679100        1.0080           
   22275 A    5569 TIP4 H2   HW0      0.679100        1.0080           
   22276 A    5569 TIP4 BD1  LP0     -1.358200        0.0000           
   22277 A    5570 TIP4 O1   OW0      0.000000       15.9990           
   22278 A    5570 TIP4 H1   HW0      0.679100        1.0080           
   22279 A    5570 TIP4 H2   HW0      0.679100        1.0080           
   22280 A    5570 TIP4 BD1  LP0     -1.358200        0.0000           
   22281 A    5571 TIP4 O1   OW0      0.000000       15.9990           
   22282 A    5571 TIP4 H1   HW0      0.679100        1.0080           
   22283 A    5571 TIP4 H2   HW0      0.679100        1.0080           
   22284 A    5571 TIP4 BD1  LP0     -1.358200        0.0000           
   22285 A    5572 TIP4 O1   OW0      0.000000       15.9990           
   22286 A    5572 TIP4 H1   HW0      0.679100        1.0080           
   22287 A    5572 TIP4 H2   HW0      0.679100        1.0080           
   22288 A    5572 TIP4 BD1  LP0     -1.358200        0.0000           
   22289 A    5573 TIP4 O1   OW0      0.000000       15.9990           
   22290 A    5573 TIP4 H1   HW0      0.679100        1.0080           
   22291 A    5573 TIP4 H2   HW0      0.679100        1.0080           
   22292 A    5573 TIP4 BD1  LP0     -1.358200        0.0000           
   22293 A    5574 TIP4 O1   OW0      0.000000       15.9990           
   22294 A    5574 TIP4 H1   HW0      0.679100        1.0080           
   22295 A    5574 TIP4 H2   HW0      0.679100        1.0080           
   22296 A    5574 TIP4 BD1  LP0     -1.358200        0.0000           
   22297 A    5575 TIP4 O1   OW0      0.000000       15.9990           
   22298 A    5575 TIP4 H1   HW0      0.679100        1.0080           
   22299 A    5575 TIP4 H2   HW0      0.679100        1.0080           
   22300 A    5575 TIP4 BD1  LP0     -1.358200        0.0000           
   22301 A    5576 TIP4 O1   OW0      0.000000       15.9990           
   22302 A    5576 TIP4 H1   HW0      0.679100        1.0080           
   22303 A    5576 TIP4 H2   HW0      0.679100        1.0080           
   22304 A    5576 TIP4 BD1  LP0     -1.358200        0.0000           
   22305 A    5577 TIP4 O1   OW0      0.000000       15.9990           
   22306 A    5577 TIP4 H1   HW0      0.679100        1.0080           
   22307 A    5577 TIP4 H2   HW0      0.679100        1.0080           
   22308 A    5577 TIP4 BD1  LP0     -1.358200        0.0000           
   22309 A    5578 TIP4 O1   OW0      0.000000       15.9990           
   22310 A    5578 TIP4 H1   HW0      0.679100        1.0080           
   22311 A    5578 TIP4 H2   HW0      0.679100        1.0080           
   22312 A    5578 TIP4 BD1  LP0     -1.358200        0.0000           
   22313 A    5579 TIP4 O1   OW0      0.000000       15.9990           
   22314 A    5579 TIP4 H1   HW0      0.679100        1.0080           
   22315 A    5579 TIP4 H2   HW0      0.679100        1.0080           
   22316 A    5579 TIP4 BD1  LP0     -1.358200        0.0000           
   22317 A    5580 TIP4 O1   OW0      0.000000       15.9990           
   22318 A    5580 TIP4 H1   HW0      0.679100        1.0080           
   22319 A    5580 TIP4 H2   HW0      0.679100        1.0080           
   22320 A    5580 TIP4 BD1  LP0     -1.358200        0.0000           
   22321 A    5581 TIP4 O1   OW0      0.000000       15.9990           
   22322 A    5581 TIP4 H1   HW0      0.679100        1.0080           
   22323 A    5581 TIP4 H2   HW0      0.679100        1.0080           
   22324 A    5581 TIP4 BD1  LP0     -1.358200        0.0000           
   22325 A    5582 TIP4 O1   OW0      0.000000       15.9990           
   22326 A    5582 TIP4 H1   HW0      0.679100        1.0080           
   22327 A    5582 TIP4 H2   HW0      0.679100        1.0080           
   22328 A    5582 TIP4 BD1  LP0     -1.358200        0.0000           
   22329 A    5583 TIP4 O1   OW0      0.000000       15.9990           
   22330 A    5583 TIP4 H1   HW0      0.679100        1.0080           
   22331 A    5583 TIP4 H2   HW0      0.679100        1.0080           
   22332 A    5583 TIP4 BD1  LP0     -1.358200        0.0000           
   22333 A    5584 TIP4 O1   OW0      0.000000       15.9990           
   22334 A    5584 TIP4 H1   HW0      0.679100        1.0080           
   22335 A    5584 TIP4 H2   HW0      0.679100        1.0080           
   22336 A    5584 TIP4 BD1  LP0     -1.358200        0.0000           
   22337 A    5585 TIP4 O1   OW0      0.000000       15.9990           
   22338 A    5585 TIP4 H1   HW0      0.679100        1.0080           
   22339 A    5585 TIP4 H2   HW0      0.679100        1.0080           
   22340 A    5585 TIP4 BD1  LP0     -1.358200        0.0000           
   22341 A    5586 TIP4 O1   OW0      0.000000       15.9990           
   22342 A    5586 TIP4 H1   HW0      0.679100        1.0080           
   22343 A    5586 TIP4 H2   HW0      0.679100        1.0080           
   22344 A    5586 TIP4 BD1  LP0     -1.358200        0.0000           
   22345 A    5587 TIP4 O1   OW0      0.000000       15.9990           
   22346 A    5587 TIP4 H1   HW0      0.679100        1.0080           
   22347 A    5587 TIP4 H2   HW0      0.679100        1.0080           
   22348 A    5587 TIP4 BD1  LP0     -1.358200        0.0000           
   22349 A    5588 TIP4 O1   OW0      0.000000       15.9990           
   22350 A    5588 TIP4 H1   HW0      0.679100        1.0080           
   22351 A    5588 TIP4 H2   HW0      0.679100        1.0080           
   22352 A    5588 TIP4 BD1  LP0     -1.358200        0.0000           
   22353 A    5589 TIP4 O1   OW0      0.000000       15.9990           
   22354 A    5589 TIP4 H1   HW0      0.679100        1.0080           
   22355 A    5589 TIP4 H2   HW0      0.679100        1.0080           
   22356 A    5589 TIP4 BD1  LP0     -1.358200        0.0000           
   22357 A    5590 TIP4 O1   OW0      0.000000       15.9990           
   22358 A    5590 TIP4 H1   HW0      0.679100        1.0080           
   22359 A    5590 TIP4 H2   HW0      0.679100        1.0080           
   22360 A    5590 TIP4 BD1  LP0     -1.358200        0.0000           
   22361 A    5591 TIP4 O1   OW0      0.000000       15.9990           
   22362 A    5591 TIP4 H1   HW0      0.679100        1.0080           
   22363 A    5591 TIP4 H2   HW0      0.679100        1.0080           
   22364 A    5591 TIP4 BD1  LP0     -1.358200        0.0000           
   22365 A    5592 TIP4 O1   OW0      0.000000       15.9990           
   22366 A    5592 TIP4 H1   HW0      0.679100        1.0080           
   22367 A    5592 TIP4 H2   HW0      0.679100        1.0080           
   22368 A    5592 TIP4 BD1  LP0     -1.358200        0.0000           
   22369 A    5593 TIP4 O1   OW0      0.000000       15.9990           
   22370 A    5593 TIP4 H1   HW0      0.679100        1.0080           
   22371 A    5593 TIP4 H2   HW0      0.679100        1.0080           
   22372 A    5593 TIP4 BD1  LP0     -1.358200        0.0000           
   22373 A    5594 TIP4 O1   OW0      0.000000       15.9990           
   22374 A    5594 TIP4 H1   HW0      0.679100        1.0080           
   22375 A    5594 TIP4 H2   HW0      0.679100        1.0080           
   22376 A    5594 TIP4 BD1  LP0     -1.358200        0.0000           
   22377 A    5595 TIP4 O1   OW0      0.000000       15.9990           
   22378 A    5595 TIP4 H1   HW0      0.679100        1.0080           
   22379 A    5595 TIP4 H2   HW0      0.679100        1.0080           
   22380 A    5595 TIP4 BD1  LP0     -1.358200        0.0000           
   22381 A    5596 TIP4 O1   OW0      0.000000       15.9990           
   22382 A    5596 TIP4 H1   HW0      0.679100        1.0080           
   22383 A    5596 TIP4 H2   HW0      0.679100        1.0080           
   22384 A    5596 TIP4 BD1  LP0     -1.358200        0.0000           
   22385 A    5597 TIP4 O1   OW0      0.000000       15.9990           
   22386 A    5597 TIP4 H1   HW0      0.679100        1.0080           
   22387 A    5597 TIP4 H2   HW0      0.679100        1.0080           
   22388 A    5597 TIP4 BD1  LP0     -1.358200        0.0000           
   22389 A    5598 TIP4 O1   OW0      0.000000       15.9990           
   22390 A    5598 TIP4 H1   HW0      0.679100        1.0080           
   22391 A    5598 TIP4 H2   HW0      0.679100        1.0080           
   22392 A    5598 TIP4 BD1  LP0     -1.358200        0.0000           
   22393 A    5599 TIP4 O1   OW0      0.000000       15.9990           
   22394 A    5599 TIP4 H1   HW0      0.679100        1.0080           
   22395 A    5599 TIP4 H2   HW0      0.679100        1.0080           
   22396 A    5599 TIP4 BD1  LP0     -1.358200        0.0000           
   22397 A    5600 TIP4 O1   OW0      0.000000       15.9990           
   22398 A    5600 TIP4 H1   HW0      0.679100        1.0080           
   22399 A    5600 TIP4 H2   HW0      0.679100        1.0080           
   22400 A    5600 TIP4 BD1  LP0     -1.358200        0.0000           
   22401 A    5601 TIP4 O1   OW0      0.000000       15.9990           
   22402 A    5601 TIP4 H1   HW0      0.679100        1.0080           
   22403 A    5601 TIP4 H2   HW0      0.679100        1.0080           
   22404 A    5601 TIP4 BD1  LP0     -1.358200        0.0000           
   22405 A    5602 TIP4 O1   OW0      0.000000       15.9990           
   22406 A    5602 TIP4 H1   HW0      0.679100        1.0080           
   22407 A    5602 TIP4 H2   HW0      0.679100        1.0080           
   22408 A    5602 TIP4 BD1  LP0     -1.358200        0.0000           
   22409 A    5603 TIP4 O1   OW0      0.000000       15.9990           
   22410 A    5603 TIP4 H1   HW0      0.679100        1.0080           
   22411 A    5603 TIP4 H2   HW0      0.679100        1.0080           
   22412 A    5603 TIP4 BD1  LP0     -1.358200        0.0000           
   22413 A    5604 TIP4 O1   OW0      0.000000       15.9990           
   22414 A    5604 TIP4 H1   HW0      0.679100        1.0080           
   22415 A    5604 TIP4 H2   HW0      0.679100        1.0080           
   22416 A    5604 TIP4 BD1  LP0     -1.358200        0.0000           
   22417 A    5605 TIP4 O1   OW0      0.000000       15.9990           
   22418 A    5605 TIP4 H1   HW0      0.679100        1.0080           
   22419 A    5605 TIP4 H2   HW0      0.679100        1.0080           
   22420 A    5605 TIP4 BD1  LP0     -1.358200        0.0000           
   22421 A    5606 TIP4 O1   OW0      0.000000       15.9990           
   22422 A    5606 TIP4 H1   HW0      0.679100        1.0080           
   22423 A    5606 TIP4 H2   HW0      0.679100        1.0080           
   22424 A    5606 TIP4 BD1  LP0     -1.358200        0.0000           
   22425 A    5607 TIP4 O1   OW0      0.000000       15.9990           
   22426 A    5607 TIP4 H1   HW0      0.679100        1.0080           
   22427 A    5607 TIP4 H2   HW0      0.679100        1.0080           
   22428 A    5607 TIP4 BD1  LP0     -1.358200        0.0000           
   22429 A    5608 TIP4 O1   OW0      0.000000       15.9990           
   22430 A    5608 TIP4 H1   HW0      0.679100        1.0080           
   22431 A    5608 TIP4 H2   HW0      0.679100        1.0080           
   22432 A    5608 TIP4 BD1  LP0     -1.358200        0.0000           
   22433 A    5609 TIP4 O1   OW0      0.000000       15.9990           
   22434 A    5609 TIP4 H1   HW0      0.679100        1.0080           
   22435 A    5609 TIP4 H2   HW0      0.679100        1.0080           
   22436 A    5609 TIP4 BD1  LP0     -1.358200        0.0000           
   22437 A    5610 TIP4 O1   OW0      0.000000       15.9990           
   22438 A    5610 TIP4 H1   HW0      0.679100        1.0080           
   22439 A    5610 TIP4 H2   HW0      0.679100        1.0080           
   22440 A    5610 TIP4 BD1  LP0     -1.358200        0.0000           
   22441 A    5611 TIP4 O1   OW0      0.000000       15.9990           
   22442 A    5611 TIP4 H1   HW0      0.679100        1.0080           
   22443 A    5611 TIP4 H2   HW0      0.679100        1.0080           
   22444 A    5611 TIP4 BD1  LP0     -1.358200        0.0000           
   22445 A    5612 TIP4 O1   OW0      0.000000       15.9990           
   22446 A    5612 TIP4 H1   HW0      0.679100        1.0080           
   22447 A    5612 TIP4 H2   HW0      0.679100        1.0080           
   22448 A    5612 TIP4 BD1  LP0     -1.358200        0.0000           
   22449 A    5613 TIP4 O1   OW0      0.000000       15.9990           
   22450 A    5613 TIP4 H1   HW0      0.679100        1.0080           
   22451 A    5613 TIP4 H2   HW0      0.679100        1.0080           
   22452 A    5613 TIP4 BD1  LP0     -1.358200        0.0000           
   22453 A    5614 TIP4 O1   OW0      0.000000       15.9990           
   22454 A    5614 TIP4 H1   HW0      0.679100        1.0080           
   22455 A    5614 TIP4 H2   HW0      0.679100        1.0080           
   22456 A    5614 TIP4 BD1  LP0     -1.358200        0.0000           
   22457 A    5615 TIP4 O1   OW0      0.000000       15.9990           
   22458 A    5615 TIP4 H1   HW0      0.679100        1.0080           
   22459 A    5615 TIP4 H2   HW0      0.679100        1.0080           
   22460 A    5615 TIP4 BD1  LP0     -1.358200        0.0000           
   22461 A    5616 TIP4 O1   OW0      0.000000       15.9990           
   22462 A    5616 TIP4 H1   HW0      0.679100        1.0080           
   22463 A    5616 TIP4 H2   HW0      0.679100        1.0080           
   22464 A    5616 TIP4 BD1  LP0     -1.358200        0.0000           
   22465 A    5617 TIP4 O1   OW0      0.000000       15.9990           
   22466 A    5617 TIP4 H1   HW0      0.679100        1.0080           
   22467 A    5617 TIP4 H2   HW0      0.679100        1.0080           
   22468 A    5617 TIP4 BD1  LP0     -1.358200        0.0000           
   22469 A    5618 TIP4 O1   OW0      0.000000       15.9990           
   22470 A    5618 TIP4 H1   HW0      0.679100        1.0080           
   22471 A    5618 TIP4 H2   HW0      0.679100        1.0080           
   22472 A    5618 TIP4 BD1  LP0     -1.358200        0.0000           
   22473 A    5619 TIP4 O1   OW0      0.000000       15.9990           
   22474 A    5619 TIP4 H1   HW0      0.679100        1.0080           
   22475 A    5619 TIP4 H2   HW0      0.679100        1.0080           
   22476 A    5619 TIP4 BD1  LP0     -1.358200        0.0000           
   22477 A    5620 TIP4 O1   OW0      0.000000       15.9990           
   22478 A    5620 TIP4 H1   HW0      0.679100        1.0080           
   22479 A    5620 TIP4 H2   HW0      0.679100        1.0080           
   22480 A    5620 TIP4 BD1  LP0     -1.358200        0.0000           
   22481 A    5621 TIP4 O1   OW0      0.000000       15.9990           
   22482 A    5621 TIP4 H1   HW0      0.679100        1.0080           
   22483 A    5621 TIP4 H2   HW0      0.679100        1.0080           
   22484 A    5621 TIP4 BD1  LP0     -1.358200        0.0000           
   22485 A    5622 TIP4 O1   OW0      0.000000       15.9990           
   22486 A    5622 TIP4 H1   HW0      0.679100        1.0080           
   22487 A    5622 TIP4 H2   HW0      0.679100        1.0080           
   22488 A    5622 TIP4 BD1  LP0     -1.358200        0.0000           
   22489 A    5623 TIP4 O1   OW0      0.000000       15.9990           
   22490 A    5623 TIP4 H1   HW0      0.679100        1.0080           
   22491 A    5623 TIP4 H2   HW0      0.679100        1.0080           
   22492 A    5623 TIP4 BD1  LP0     -1.358200        0.0000           
   22493 A    5624 TIP4 O1   OW0      0.000000       15.9990           
   22494 A    5624 TIP4 H1   HW0      0.679100        1.0080           
   22495 A    5624 TIP4 H2   HW0      0.679100        1.0080           
   22496 A    5624 TIP4 BD1  LP0     -1.358200        0.0000           
   22497 A    5625 TIP4 O1   OW0      0.000000       15.9990           
   22498 A    5625 TIP4 H1   HW0      0.679100        1.0080           
   22499 A    5625 TIP4 H2   HW0      0.679100        1.0080           
   22500 A    5625 TIP4 BD1  LP0     -1.358200        0.0000           
   22501 A    5626 TIP4 O1   OW0      0.000000       15.9990           
   22502 A    5626 TIP4 H1   HW0      0.679100        1.0080           
   22503 A    5626 TIP4 H2   HW0      0.679100        1.0080           
   22504 A    5626 TIP4 BD1  LP0     -1.358200        0.0000           
   22505 A    5627 TIP4 O1   OW0      0.000000       15.9990           
   22506 A    5627 TIP4 H1   HW0      0.679100        1.0080           
   22507 A    5627 TIP4 H2   HW0      0.679100        1.0080           
   22508 A    5627 TIP4 BD1  LP0     -1.358200        0.0000           
   22509 A    5628 TIP4 O1   OW0      0.000000       15.9990           
   22510 A    5628 TIP4 H1   HW0      0.679100        1.0080           
   22511 A    5628 TIP4 H2   HW0      0.679100        1.0080           
   22512 A    5628 TIP4 BD1  LP0     -1.358200        0.0000           
   22513 A    5629 TIP4 O1   OW0      0.000000       15.9990           
   22514 A    5629 TIP4 H1   HW0      0.679100        1.0080           
   22515 A    5629 TIP4 H2   HW0      0.679100        1.0080           
   22516 A    5629 TIP4 BD1  LP0     -1.358200        0.0000           
   22517 A    5630 TIP4 O1   OW0      0.000000       15.9990           
   22518 A    5630 TIP4 H1   HW0      0.679100        1.0080           
   22519 A    5630 TIP4 H2   HW0      0.679100        1.0080           
   22520 A    5630 TIP4 BD1  LP0     -1.358200        0.0000           
   22521 A    5631 TIP4 O1   OW0      0.000000       15.9990           
   22522 A    5631 TIP4 H1   HW0      0.679100        1.0080           
   22523 A    5631 TIP4 H2   HW0      0.679100        1.0080           
   22524 A    5631 TIP4 BD1  LP0     -1.358200        0.0000           
   22525 A    5632 TIP4 O1   OW0      0.000000       15.9990           
   22526 A    5632 TIP4 H1   HW0      0.679100        1.0080           
   22527 A    5632 TIP4 H2   HW0      0.679100        1.0080           
   22528 A    5632 TIP4 BD1  LP0     -1.358200        0.0000           
   22529 A    5633 TIP4 O1   OW0      0.000000       15.9990           
   22530 A    5633 TIP4 H1   HW0      0.679100        1.0080           
   22531 A    5633 TIP4 H2   HW0      0.679100        1.0080           
   22532 A    5633 TIP4 BD1  LP0     -1.358200        0.0000           
   22533 A    5634 TIP4 O1   OW0      0.000000       15.9990           
   22534 A    5634 TIP4 H1   HW0      0.679100        1.0080           
   22535 A    5634 TIP4 H2   HW0      0.679100        1.0080           
   22536 A    5634 TIP4 BD1  LP0     -1.358200        0.0000           
   22537 A    5635 TIP4 O1   OW0      0.000000       15.9990           
   22538 A    5635 TIP4 H1   HW0      0.679100        1.0080           
   22539 A    5635 TIP4 H2   HW0      0.679100        1.0080           
   22540 A    5635 TIP4 BD1  LP0     -1.358200        0.0000           
   22541 A    5636 TIP4 O1   OW0      0.000000       15.9990           
   22542 A    5636 TIP4 H1   HW0      0.679100        1.0080           
   22543 A    5636 TIP4 H2   HW0      0.679100        1.0080           
   22544 A    5636 TIP4 BD1  LP0     -1.358200        0.0000           
   22545 A    5637 TIP4 O1   OW0      0.000000       15.9990           
   22546 A    5637 TIP4 H1   HW0      0.679100        1.0080           
   22547 A    5637 TIP4 H2   HW0      0.679100        1.0080           
   22548 A    5637 TIP4 BD1  LP0     -1.358200        0.0000           
   22549 A    5638 TIP4 O1   OW0      0.000000       15.9990           
   22550 A    5638 TIP4 H1   HW0      0.679100        1.0080           
   22551 A    5638 TIP4 H2   HW0      0.679100        1.0080           
   22552 A    5638 TIP4 BD1  LP0     -1.358200        0.0000           
   22553 A    5639 TIP4 O1   OW0      0.000000       15.9990           
   22554 A    5639 TIP4 H1   HW0      0.679100        1.0080           
   22555 A    5639 TIP4 H2   HW0      0.679100        1.0080           
   22556 A    5639 TIP4 BD1  LP0     -1.358200        0.0000           
   22557 A    5640 TIP4 O1   OW0      0.000000       15.9990           
   22558 A    5640 TIP4 H1   HW0      0.679100        1.0080           
   22559 A    5640 TIP4 H2   HW0      0.679100        1.0080           
   22560 A    5640 TIP4 BD1  LP0     -1.358200        0.0000           
   22561 A    5641 TIP4 O1   OW0      0.000000       15.9990           
   22562 A    5641 TIP4 H1   HW0      0.679100        1.0080           
   22563 A    5641 TIP4 H2   HW0      0.679100        1.0080           
   22564 A    5641 TIP4 BD1  LP0     -1.358200        0.0000           
   22565 A    5642 TIP4 O1   OW0      0.000000       15.9990           
   22566 A    5642 TIP4 H1   HW0      0.679100        1.0080           
   22567 A    5642 TIP4 H2   HW0      0.679100        1.0080           
   22568 A    5642 TIP4 BD1  LP0     -1.358200        0.0000           
   22569 A    5643 TIP4 O1   OW0      0.000000       15.9990           
   22570 A    5643 TIP4 H1   HW0      0.679100        1.0080           
   22571 A    5643 TIP4 H2   HW0      0.679100        1.0080           
   22572 A    5643 TIP4 BD1  LP0     -1.358200        0.0000           
   22573 A    5644 TIP4 O1   OW0      0.000000       15.9990           
   22574 A    5644 TIP4 H1   HW0      0.679100        1.0080           
   22575 A    5644 TIP4 H2   HW0      0.679100        1.0080           
   22576 A    5644 TIP4 BD1  LP0     -1.358200        0.0000           
   22577 A    5645 TIP4 O1   OW0      0.000000       15.9990           
   22578 A    5645 TIP4 H1   HW0      0.679100        1.0080           
   22579 A    5645 TIP4 H2   HW0      0.679100        1.0080           
   22580 A    5645 TIP4 BD1  LP0     -1.358200        0.0000           
   22581 A    5646 TIP4 O1   OW0      0.000000       15.9990           
   22582 A    5646 TIP4 H1   HW0      0.679100        1.0080           
   22583 A    5646 TIP4 H2   HW0      0.679100        1.0080           
   22584 A    5646 TIP4 BD1  LP0     -1.358200        0.0000           
   22585 A    5647 TIP4 O1   OW0      0.000000       15.9990           
   22586 A    5647 TIP4 H1   HW0      0.679100        1.0080           
   22587 A    5647 TIP4 H2   HW0      0.679100        1.0080           
   22588 A    5647 TIP4 BD1  LP0     -1.358200        0.0000           
   22589 A    5648 TIP4 O1   OW0      0.000000       15.9990           
   22590 A    5648 TIP4 H1   HW0      0.679100        1.0080           
   22591 A    5648 TIP4 H2   HW0      0.679100        1.0080           
   22592 A    5648 TIP4 BD1  LP0     -1.358200        0.0000           
   22593 A    5649 TIP4 O1   OW0      0.000000       15.9990           
   22594 A    5649 TIP4 H1   HW0      0.679100        1.0080           
   22595 A    5649 TIP4 H2   HW0      0.679100        1.0080           
   22596 A    5649 TIP4 BD1  LP0     -1.358200        0.0000           
   22597 A    5650 TIP4 O1   OW0      0.000000       15.9990           
   22598 A    5650 TIP4 H1   HW0      0.679100        1.0080           
   22599 A    5650 TIP4 H2   HW0      0.679100        1.0080           
   22600 A    5650 TIP4 BD1  LP0     -1.358200        0.0000           
   22601 A    5651 TIP4 O1   OW0      0.000000       15.9990           
   22602 A    5651 TIP4 H1   HW0      0.679100        1.0080           
   22603 A    5651 TIP4 H2   HW0      0.679100        1.0080           
   22604 A    5651 TIP4 BD1  LP0     -1.358200        0.0000           
   22605 A    5652 TIP4 O1   OW0      0.000000       15.9990           
   22606 A    5652 TIP4 H1   HW0      0.679100        1.0080           
   22607 A    5652 TIP4 H2   HW0      0.679100        1.0080           
   22608 A    5652 TIP4 BD1  LP0     -1.358200        0.0000           
   22609 A    5653 TIP4 O1   OW0      0.000000       15.9990           
   22610 A    5653 TIP4 H1   HW0      0.679100        1.0080           
   22611 A    5653 TIP4 H2   HW0      0.679100        1.0080           
   22612 A    5653 TIP4 BD1  LP0     -1.358200        0.0000           
   22613 A    5654 TIP4 O1   OW0      0.000000       15.9990           
   22614 A    5654 TIP4 H1   HW0      0.679100        1.0080           
   22615 A    5654 TIP4 H2   HW0      0.679100        1.0080           
   22616 A    5654 TIP4 BD1  LP0     -1.358200        0.0000           
   22617 A    5655 TIP4 O1   OW0      0.000000       15.9990           
   22618 A    5655 TIP4 H1   HW0      0.679100        1.0080           
   22619 A    5655 TIP4 H2   HW0      0.679100        1.0080           
   22620 A    5655 TIP4 BD1  LP0     -1.358200        0.0000           
   22621 A    5656 TIP4 O1   OW0      0.000000       15.9990           
   22622 A    5656 TIP4 H1   HW0      0.679100        1.0080           
   22623 A    5656 TIP4 H2   HW0      0.679100        1.0080           
   22624 A    5656 TIP4 BD1  LP0     -1.358200        0.0000           
   22625 A    5657 TIP4 O1   OW0      0.000000       15.9990           
   22626 A    5657 TIP4 H1   HW0      0.679100        1.0080           
   22627 A    5657 TIP4 H2   HW0      0.679100        1.0080           
   22628 A    5657 TIP4 BD1  LP0     -1.358200        0.0000           
   22629 A    5658 TIP4 O1   OW0      0.000000       15.9990           
   22630 A    5658 TIP4 H1   HW0      0.679100        1.0080           
   22631 A    5658 TIP4 H2   HW0      0.679100        1.0080           
   22632 A    5658 TIP4 BD1  LP0     -1.358200        0.0000           
   22633 A    5659 TIP4 O1   OW0      0.000000       15.9990           
   22634 A    5659 TIP4 H1   HW0      0.679100        1.0080           
   22635 A    5659 TIP4 H2   HW0      0.679100        1.0080           
   22636 A    5659 TIP4 BD1  LP0     -1.358200        0.0000           
   22637 A    5660 TIP4 O1   OW0      0.000000       15.9990           
   22638 A    5660 TIP4 H1   HW0      0.679100        1.0080           
   22639 A    5660 TIP4 H2   HW0      0.679100        1.0080           
   22640 A    5660 TIP4 BD1  LP0     -1.358200        0.0000           
   22641 A    5661 TIP4 O1   OW0      0.000000       15.9990           
   22642 A    5661 TIP4 H1   HW0      0.679100        1.0080           
   22643 A    5661 TIP4 H2   HW0      0.679100        1.0080           
   22644 A    5661 TIP4 BD1  LP0     -1.358200        0.0000           
   22645 A    5662 TIP4 O1   OW0      0.000000       15.9990           
   22646 A    5662 TIP4 H1   HW0      0.679100        1.0080           
   22647 A    5662 TIP4 H2   HW0      0.679100        1.0080           
   22648 A    5662 TIP4 BD1  LP0     -1.358200        0.0000           
   22649 A    5663 TIP4 O1   OW0      0.000000       15.9990           
   22650 A    5663 TIP4 H1   HW0      0.679100        1.0080           
   22651 A    5663 TIP4 H2   HW0      0.679100        1.0080           
   22652 A    5663 TIP4 BD1  LP0     -1.358200        0.0000           
   22653 A    5664 TIP4 O1   OW0      0.000000       15.9990           
   22654 A    5664 TIP4 H1   HW0      0.679100        1.0080           
   22655 A    5664 TIP4 H2   HW0      0.679100        1.0080           
   22656 A    5664 TIP4 BD1  LP0     -1.358200        0.0000           
   22657 A    5665 TIP4 O1   OW0      0.000000       15.9990           
   22658 A    5665 TIP4 H1   HW0      0.679100        1.0080           
   22659 A    5665 TIP4 H2   HW0      0.679100        1.0080           
   22660 A    5665 TIP4 BD1  LP0     -1.358200        0.0000           
   22661 A    5666 TIP4 O1   OW0      0.000000       15.9990           
   22662 A    5666 TIP4 H1   HW0      0.679100        1.0080           
   22663 A    5666 TIP4 H2   HW0      0.679100        1.0080           
   22664 A    5666 TIP4 BD1  LP0     -1.358200        0.0000           
   22665 A    5667 TIP4 O1   OW0      0.000000       15.9990           
   22666 A    5667 TIP4 H1   HW0      0.679100        1.0080           
   22667 A    5667 TIP4 H2   HW0      0.679100        1.0080           
   22668 A    5667 TIP4 BD1  LP0     -1.358200        0.0000           
   22669 A    5668 TIP4 O1   OW0      0.000000       15.9990           
   22670 A    5668 TIP4 H1   HW0      0.679100        1.0080           
   22671 A    5668 TIP4 H2   HW0      0.679100        1.0080           
   22672 A    5668 TIP4 BD1  LP0     -1.358200        0.0000           
   22673 A    5669 TIP4 O1   OW0      0.000000       15.9990           
   22674 A    5669 TIP4 H1   HW0      0.679100        1.0080           
   22675 A    5669 TIP4 H2   HW0      0.679100        1.0080           
   22676 A    5669 TIP4 BD1  LP0     -1.358200        0.0000           
   22677 A    5670 TIP4 O1   OW0      0.000000       15.9990           
   22678 A    5670 TIP4 H1   HW0      0.679100        1.0080           
   22679 A    5670 TIP4 H2   HW0      0.679100        1.0080           
   22680 A    5670 TIP4 BD1  LP0     -1.358200        0.0000           
   22681 A    5671 TIP4 O1   OW0      0.000000       15.9990           
   22682 A    5671 TIP4 H1   HW0      0.679100        1.0080           
   22683 A    5671 TIP4 H2   HW0      0.679100        1.0080           
   22684 A    5671 TIP4 BD1  LP0     -1.358200        0.0000           
   22685 A    5672 TIP4 O1   OW0      0.000000       15.9990           
   22686 A    5672 TIP4 H1   HW0      0.679100        1.0080           
   22687 A    5672 TIP4 H2   HW0      0.679100        1.0080           
   22688 A    5672 TIP4 BD1  LP0     -1.358200        0.0000           
   22689 A    5673 TIP4 O1   OW0      0.000000       15.9990           
   22690 A    5673 TIP4 H1   HW0      0.679100        1.0080           
   22691 A    5673 TIP4 H2   HW0      0.679100        1.0080           
   22692 A    5673 TIP4 BD1  LP0     -1.358200        0.0000           
   22693 A    5674 TIP4 O1   OW0      0.000000       15.9990           
   22694 A    5674 TIP4 H1   HW0      0.679100        1.0080           
   22695 A    5674 TIP4 H2   HW0      0.679100        1.0080           
   22696 A    5674 TIP4 BD1  LP0     -1.358200        0.0000           
   22697 A    5675 TIP4 O1   OW0      0.000000       15.9990           
   22698 A    5675 TIP4 H1   HW0      0.679100        1.0080           
   22699 A    5675 TIP4 H2   HW0      0.679100        1.0080           
   22700 A    5675 TIP4 BD1  LP0     -1.358200        0.0000           
   22701 A    5676 TIP4 O1   OW0      0.000000       15.9990           
   22702 A    5676 TIP4 H1   HW0      0.679100        1.0080           
   22703 A    5676 TIP4 H2   HW0      0.679100        1.0080           
   22704 A    5676 TIP4 BD1  LP0     -1.358200        0.0000           
   22705 A    5677 TIP4 O1   OW0      0.000000       15.9990           
   22706 A    5677 TIP4 H1   HW0      0.679100        1.0080           
   22707 A    5677 TIP4 H2   HW0      0.679100        1.0080           
   22708 A    5677 TIP4 BD1  LP0     -1.358200        0.0000           
   22709 A    5678 TIP4 O1   OW0      0.000000       15.9990           
   22710 A    5678 TIP4 H1   HW0      0.679100        1.0080           
   22711 A    5678 TIP4 H2   HW0      0.679100        1.0080           
   22712 A    5678 TIP4 BD1  LP0     -1.358200        0.0000           
   22713 A    5679 TIP4 O1   OW0      0.000000       15.9990           
   22714 A    5679 TIP4 H1   HW0      0.679100        1.0080           
   22715 A    5679 TIP4 H2   HW0      0.679100        1.0080           
   22716 A    5679 TIP4 BD1  LP0     -1.358200        0.0000           
   22717 A    5680 TIP4 O1   OW0      0.000000       15.9990           
   22718 A    5680 TIP4 H1   HW0      0.679100        1.0080           
   22719 A    5680 TIP4 H2   HW0      0.679100        1.0080           
   22720 A    5680 TIP4 BD1  LP0     -1.358200        0.0000           
   22721 A    5681 TIP4 O1   OW0      0.000000       15.9990           
   22722 A    5681 TIP4 H1   HW0      0.679100        1.0080           
   22723 A    5681 TIP4 H2   HW0      0.679100        1.0080           
   22724 A    5681 TIP4 BD1  LP0     -1.358200        0.0000           
   22725 A    5682 TIP4 O1   OW0      0.000000       15.9990           
   22726 A    5682 TIP4 H1   HW0      0.679100        1.0080           
   22727 A    5682 TIP4 H2   HW0      0.679100        1.0080           
   22728 A    5682 TIP4 BD1  LP0     -1.358200        0.0000           
   22729 A    5683 TIP4 O1   OW0      0.000000       15.9990           
   22730 A    5683 TIP4 H1   HW0      0.679100        1.0080           
   22731 A    5683 TIP4 H2   HW0      0.679100        1.0080           
   22732 A    5683 TIP4 BD1  LP0     -1.358200        0.0000           
   22733 A    5684 TIP4 O1   OW0      0.000000       15.9990           
   22734 A    5684 TIP4 H1   HW0      0.679100        1.0080           
   22735 A    5684 TIP4 H2   HW0      0.679100        1.0080           
   22736 A    5684 TIP4 BD1  LP0     -1.358200        0.0000           
   22737 A    5685 TIP4 O1   OW0      0.000000       15.9990           
   22738 A    5685 TIP4 H1   HW0      0.679100        1.0080           
   22739 A    5685 TIP4 H2   HW0      0.679100        1.0080           
   22740 A    5685 TIP4 BD1  LP0     -1.358200        0.0000           
   22741 A    5686 TIP4 O1   OW0      0.000000       15.9990           
   22742 A    5686 TIP4 H1   HW0      0.679100        1.0080           
   22743 A    5686 TIP4 H2   HW0      0.679100        1.0080           
   22744 A    5686 TIP4 BD1  LP0     -1.358200        0.0000           
   22745 A    5687 TIP4 O1   OW0      0.000000       15.9990           
   22746 A    5687 TIP4 H1   HW0      0.679100        1.0080           
   22747 A    5687 TIP4 H2   HW0      0.679100        1.0080           
   22748 A    5687 TIP4 BD1  LP0     -1.358200        0.0000           
   22749 A    5688 TIP4 O1   OW0      0.000000       15.9990           
   22750 A    5688 TIP4 H1   HW0      0.679100        1.0080           
   22751 A    5688 TIP4 H2   HW0      0.679100        1.0080           
   22752 A    5688 TIP4 BD1  LP0     -1.358200        0.0000           
   22753 A    5689 TIP4 O1   OW0      0.000000       15.9990           
   22754 A    5689 TIP4 H1   HW0      0.679100        1.0080           
   22755 A    5689 TIP4 H2   HW0      0.679100        1.0080           
   22756 A    5689 TIP4 BD1  LP0     -1.358200        0.0000           
   22757 A    5690 TIP4 O1   OW0      0.000000       15.9990           
   22758 A    5690 TIP4 H1   HW0      0.679100        1.0080           
   22759 A    5690 TIP4 H2   HW0      0.679100        1.0080           
   22760 A    5690 TIP4 BD1  LP0     -1.358200        0.0000           
   22761 A    5691 TIP4 O1   OW0      0.000000       15.9990           
   22762 A    5691 TIP4 H1   HW0      0.679100        1.0080           
   22763 A    5691 TIP4 H2   HW0      0.679100        1.0080           
   22764 A    5691 TIP4 BD1  LP0     -1.358200        0.0000           
   22765 A    5692 TIP4 O1   OW0      0.000000       15.9990           
   22766 A    5692 TIP4 H1   HW0      0.679100        1.0080           
   22767 A    5692 TIP4 H2   HW0      0.679100        1.0080           
   22768 A    5692 TIP4 BD1  LP0     -1.358200        0.0000           
   22769 A    5693 TIP4 O1   OW0      0.000000       15.9990           
   22770 A    5693 TIP4 H1   HW0      0.679100        1.0080           
   22771 A    5693 TIP4 H2   HW0      0.679100        1.0080           
   22772 A    5693 TIP4 BD1  LP0     -1.358200        0.0000           
   22773 A    5694 TIP4 O1   OW0      0.000000       15.9990           
   22774 A    5694 TIP4 H1   HW0      0.679100        1.0080           
   22775 A    5694 TIP4 H2   HW0      0.679100        1.0080           
   22776 A    5694 TIP4 BD1  LP0     -1.358200        0.0000           
   22777 A    5695 TIP4 O1   OW0      0.000000       15.9990           
   22778 A    5695 TIP4 H1   HW0      0.679100        1.0080           
   22779 A    5695 TIP4 H2   HW0      0.679100        1.0080           
   22780 A    5695 TIP4 BD1  LP0     -1.358200        0.0000           
   22781 A    5696 TIP4 O1   OW0      0.000000       15.9990           
   22782 A    5696 TIP4 H1   HW0      0.679100        1.0080           
   22783 A    5696 TIP4 H2   HW0      0.679100        1.0080           
   22784 A    5696 TIP4 BD1  LP0     -1.358200        0.0000           
   22785 A    5697 TIP4 O1   OW0      0.000000       15.9990           
   22786 A    5697 TIP4 H1   HW0      0.679100        1.0080           
   22787 A    5697 TIP4 H2   HW0      0.679100        1.0080           
   22788 A    5697 TIP4 BD1  LP0     -1.358200        0.0000           
   22789 A    5698 TIP4 O1   OW0      0.000000       15.9990           
   22790 A    5698 TIP4 H1   HW0      0.679100        1.0080           
   22791 A    5698 TIP4 H2   HW0      0.679100        1.0080           
   22792 A    5698 TIP4 BD1  LP0     -1.358200        0.0000           
   22793 A    5699 TIP4 O1   OW0      0.000000       15.9990           
   22794 A    5699 TIP4 H1   HW0      0.679100        1.0080           
   22795 A    5699 TIP4 H2   HW0      0.679100        1.0080           
   22796 A    5699 TIP4 BD1  LP0     -1.358200        0.0000           
   22797 A    5700 TIP4 O1   OW0      0.000000       15.9990           
   22798 A    5700 TIP4 H1   HW0      0.679100        1.0080           
   22799 A    5700 TIP4 H2   HW0      0.679100        1.0080           
   22800 A    5700 TIP4 BD1  LP0     -1.358200        0.0000           
   22801 A    5701 TIP4 O1   OW0      0.000000       15.9990           
   22802 A    5701 TIP4 H1   HW0      0.679100        1.0080           
   22803 A    5701 TIP4 H2   HW0      0.679100        1.0080           
   22804 A    5701 TIP4 BD1  LP0     -1.358200        0.0000           
   22805 A    5702 TIP4 O1   OW0      0.000000       15.9990           
   22806 A    5702 TIP4 H1   HW0      0.679100        1.0080           
   22807 A    5702 TIP4 H2   HW0      0.679100        1.0080           
   22808 A    5702 TIP4 BD1  LP0     -1.358200        0.0000           
   22809 A    5703 TIP4 O1   OW0      0.000000       15.9990           
   22810 A    5703 TIP4 H1   HW0      0.679100        1.0080           
   22811 A    5703 TIP4 H2   HW0      0.679100        1.0080           
   22812 A    5703 TIP4 BD1  LP0     -1.358200        0.0000           
   22813 A    5704 TIP4 O1   OW0      0.000000       15.9990           
   22814 A    5704 TIP4 H1   HW0      0.679100        1.0080           
   22815 A    5704 TIP4 H2   HW0      0.679100        1.0080           
   22816 A    5704 TIP4 BD1  LP0     -1.358200        0.0000           
   22817 A    5705 TIP4 O1   OW0      0.000000       15.9990           
   22818 A    5705 TIP4 H1   HW0      0.679100        1.0080           
   22819 A    5705 TIP4 H2   HW0      0.679100        1.0080           
   22820 A    5705 TIP4 BD1  LP0     -1.358200        0.0000           
   22821 A    5706 TIP4 O1   OW0      0.000000       15.9990           
   22822 A    5706 TIP4 H1   HW0      0.679100        1.0080           
   22823 A    5706 TIP4 H2   HW0      0.679100        1.0080           
   22824 A    5706 TIP4 BD1  LP0     -1.358200        0.0000           
   22825 A    5707 TIP4 O1   OW0      0.000000       15.9990           
   22826 A    5707 TIP4 H1   HW0      0.679100        1.0080           
   22827 A    5707 TIP4 H2   HW0      0.679100        1.0080           
   22828 A    5707 TIP4 BD1  LP0     -1.358200        0.0000           
   22829 A    5708 TIP4 O1   OW0      0.000000       15.9990           
   22830 A    5708 TIP4 H1   HW0      0.679100        1.0080           
   22831 A    5708 TIP4 H2   HW0      0.679100        1.0080           
   22832 A    5708 TIP4 BD1  LP0     -1.358200        0.0000           
   22833 A    5709 TIP4 O1   OW0      0.000000       15.9990           
   22834 A    5709 TIP4 H1   HW0      0.679100        1.0080           
   22835 A    5709 TIP4 H2   HW0      0.679100        1.0080           
   22836 A    5709 TIP4 BD1  LP0     -1.358200        0.0000           
   22837 A    5710 TIP4 O1   OW0      0.000000       15.9990           
   22838 A    5710 TIP4 H1   HW0      0.679100        1.0080           
   22839 A    5710 TIP4 H2   HW0      0.679100        1.0080           
   22840 A    5710 TIP4 BD1  LP0     -1.358200        0.0000           
   22841 A    5711 TIP4 O1   OW0      0.000000       15.9990           
   22842 A    5711 TIP4 H1   HW0      0.679100        1.0080           
   22843 A    5711 TIP4 H2   HW0      0.679100        1.0080           
   22844 A    5711 TIP4 BD1  LP0     -1.358200        0.0000           
   22845 A    5712 TIP4 O1   OW0      0.000000       15.9990           
   22846 A    5712 TIP4 H1   HW0      0.679100        1.0080           
   22847 A    5712 TIP4 H2   HW0      0.679100        1.0080           
   22848 A    5712 TIP4 BD1  LP0     -1.358200        0.0000           
   22849 A    5713 TIP4 O1   OW0      0.000000       15.9990           
   22850 A    5713 TIP4 H1   HW0      0.679100        1.0080           
   22851 A    5713 TIP4 H2   HW0      0.679100        1.0080           
   22852 A    5713 TIP4 BD1  LP0     -1.358200        0.0000           
   22853 A    5714 TIP4 O1   OW0      0.000000       15.9990           
   22854 A    5714 TIP4 H1   HW0      0.679100        1.0080           
   22855 A    5714 TIP4 H2   HW0      0.679100        1.0080           
   22856 A    5714 TIP4 BD1  LP0     -1.358200        0.0000           
   22857 A    5715 TIP4 O1   OW0      0.000000       15.9990           
   22858 A    5715 TIP4 H1   HW0      0.679100        1.0080           
   22859 A    5715 TIP4 H2   HW0      0.679100        1.0080           
   22860 A    5715 TIP4 BD1  LP0     -1.358200        0.0000           
   22861 A    5716 TIP4 O1   OW0      0.000000       15.9990           
   22862 A    5716 TIP4 H1   HW0      0.679100        1.0080           
   22863 A    5716 TIP4 H2   HW0      0.679100        1.0080           
   22864 A    5716 TIP4 BD1  LP0     -1.358200        0.0000           
   22865 A    5717 TIP4 O1   OW0      0.000000       15.9990           
   22866 A    5717 TIP4 H1   HW0      0.679100        1.0080           
   22867 A    5717 TIP4 H2   HW0      0.679100        1.0080           
   22868 A    5717 TIP4 BD1  LP0     -1.358200        0.0000           
   22869 A    5718 TIP4 O1   OW0      0.000000       15.9990           
   22870 A    5718 TIP4 H1   HW0      0.679100        1.0080           
   22871 A    5718 TIP4 H2   HW0      0.679100        1.0080           
   22872 A    5718 TIP4 BD1  LP0     -1.358200        0.0000           
   22873 A    5719 TIP4 O1   OW0      0.000000       15.9990           
   22874 A    5719 TIP4 H1   HW0      0.679100        1.0080           
   22875 A    5719 TIP4 H2   HW0      0.679100        1.0080           
   22876 A    5719 TIP4 BD1  LP0     -1.358200        0.0000           
   22877 A    5720 TIP4 O1   OW0      0.000000       15.9990           
   22878 A    5720 TIP4 H1   HW0      0.679100        1.0080           
   22879 A    5720 TIP4 H2   HW0      0.679100        1.0080           
   22880 A    5720 TIP4 BD1  LP0     -1.358200        0.0000           
   22881 A    5721 TIP4 O1   OW0      0.000000       15.9990           
   22882 A    5721 TIP4 H1   HW0      0.679100        1.0080           
   22883 A    5721 TIP4 H2   HW0      0.679100        1.0080           
   22884 A    5721 TIP4 BD1  LP0     -1.358200        0.0000           
   22885 A    5722 TIP4 O1   OW0      0.000000       15.9990           
   22886 A    5722 TIP4 H1   HW0      0.679100        1.0080           
   22887 A    5722 TIP4 H2   HW0      0.679100        1.0080           
   22888 A    5722 TIP4 BD1  LP0     -1.358200        0.0000           
   22889 A    5723 TIP4 O1   OW0      0.000000       15.9990           
   22890 A    5723 TIP4 H1   HW0      0.679100        1.0080           
   22891 A    5723 TIP4 H2   HW0      0.679100        1.0080           
   22892 A    5723 TIP4 BD1  LP0     -1.358200        0.0000           
   22893 A    5724 TIP4 O1   OW0      0.000000       15.9990           
   22894 A    5724 TIP4 H1   HW0      0.679100        1.0080           
   22895 A    5724 TIP4 H2   HW0      0.679100        1.0080           
   22896 A    5724 TIP4 BD1  LP0     -1.358200        0.0000           
   22897 A    5725 TIP4 O1   OW0      0.000000       15.9990           
   22898 A    5725 TIP4 H1   HW0      0.679100        1.0080           
   22899 A    5725 TIP4 H2   HW0      0.679100        1.0080           
   22900 A    5725 TIP4 BD1  LP0     -1.358200        0.0000           
   22901 A    5726 TIP4 O1   OW0      0.000000       15.9990           
   22902 A    5726 TIP4 H1   HW0      0.679100        1.0080           
   22903 A    5726 TIP4 H2   HW0      0.679100        1.0080           
   22904 A    5726 TIP4 BD1  LP0     -1.358200        0.0000           
   22905 A    5727 TIP4 O1   OW0      0.000000       15.9990           
   22906 A    5727 TIP4 H1   HW0      0.679100        1.0080           
   22907 A    5727 TIP4 H2   HW0      0.679100        1.0080           
   22908 A    5727 TIP4 BD1  LP0     -1.358200        0.0000           
   22909 A    5728 TIP4 O1   OW0      0.000000       15.9990           
   22910 A    5728 TIP4 H1   HW0      0.679100        1.0080           
   22911 A    5728 TIP4 H2   HW0      0.679100        1.0080           
   22912 A    5728 TIP4 BD1  LP0     -1.358200        0.0000           
   22913 A    5729 TIP4 O1   OW0      0.000000       15.9990           
   22914 A    5729 TIP4 H1   HW0      0.679100        1.0080           
   22915 A    5729 TIP4 H2   HW0      0.679100        1.0080           
   22916 A    5729 TIP4 BD1  LP0     -1.358200        0.0000           
   22917 A    5730 TIP4 O1   OW0      0.000000       15.9990           
   22918 A    5730 TIP4 H1   HW0      0.679100        1.0080           
   22919 A    5730 TIP4 H2   HW0      0.679100        1.0080           
   22920 A    5730 TIP4 BD1  LP0     -1.358200        0.0000           
   22921 A    5731 TIP4 O1   OW0      0.000000       15.9990           
   22922 A    5731 TIP4 H1   HW0      0.679100        1.0080           
   22923 A    5731 TIP4 H2   HW0      0.679100        1.0080           
   22924 A    5731 TIP4 BD1  LP0     -1.358200        0.0000           
   22925 A    5732 TIP4 O1   OW0      0.000000       15.9990           
   22926 A    5732 TIP4 H1   HW0      0.679100        1.0080           
   22927 A    5732 TIP4 H2   HW0      0.679100        1.0080           
   22928 A    5732 TIP4 BD1  LP0     -1.358200        0.0000           
   22929 A    5733 TIP4 O1   OW0      0.000000       15.9990           
   22930 A    5733 TIP4 H1   HW0      0.679100        1.0080           
   22931 A    5733 TIP4 H2   HW0      0.679100        1.0080           
   22932 A    5733 TIP4 BD1  LP0     -1.358200        0.0000           
   22933 A    5734 TIP4 O1   OW0      0.000000       15.9990           
   22934 A    5734 TIP4 H1   HW0      0.679100        1.0080           
   22935 A    5734 TIP4 H2   HW0      0.679100        1.0080           
   22936 A    5734 TIP4 BD1  LP0     -1.358200        0.0000           
   22937 A    5735 TIP4 O1   OW0      0.000000       15.9990           
   22938 A    5735 TIP4 H1   HW0      0.679100        1.0080           
   22939 A    5735 TIP4 H2   HW0      0.679100        1.0080           
   22940 A    5735 TIP4 BD1  LP0     -1.358200        0.0000           
   22941 A    5736 TIP4 O1   OW0      0.000000       15.9990           
   22942 A    5736 TIP4 H1   HW0      0.679100        1.0080           
   22943 A    5736 TIP4 H2   HW0      0.679100        1.0080           
   22944 A    5736 TIP4 BD1  LP0     -1.358200        0.0000           
   22945 A    5737 TIP4 O1   OW0      0.000000       15.9990           
   22946 A    5737 TIP4 H1   HW0      0.679100        1.0080           
   22947 A    5737 TIP4 H2   HW0      0.679100        1.0080           
   22948 A    5737 TIP4 BD1  LP0     -1.358200        0.0000           
   22949 A    5738 TIP4 O1   OW0      0.000000       15.9990           
   22950 A    5738 TIP4 H1   HW0      0.679100        1.0080           
   22951 A    5738 TIP4 H2   HW0      0.679100        1.0080           
   22952 A    5738 TIP4 BD1  LP0     -1.358200        0.0000           
   22953 A    5739 TIP4 O1   OW0      0.000000       15.9990           
   22954 A    5739 TIP4 H1   HW0      0.679100        1.0080           
   22955 A    5739 TIP4 H2   HW0      0.679100        1.0080           
   22956 A    5739 TIP4 BD1  LP0     -1.358200        0.0000           
   22957 A    5740 TIP4 O1   OW0      0.000000       15.9990           
   22958 A    5740 TIP4 H1   HW0      0.679100        1.0080           
   22959 A    5740 TIP4 H2   HW0      0.679100        1.0080           
   22960 A    5740 TIP4 BD1  LP0     -1.358200        0.0000           
   22961 A    5741 TIP4 O1   OW0      0.000000       15.9990           
   22962 A    5741 TIP4 H1   HW0      0.679100        1.0080           
   22963 A    5741 TIP4 H2   HW0      0.679100        1.0080           
   22964 A    5741 TIP4 BD1  LP0     -1.358200        0.0000           
   22965 A    5742 TIP4 O1   OW0      0.000000       15.9990           
   22966 A    5742 TIP4 H1   HW0      0.679100        1.0080           
   22967 A    5742 TIP4 H2   HW0      0.679100        1.0080           
   22968 A    5742 TIP4 BD1  LP0     -1.358200        0.0000           
   22969 A    5743 TIP4 O1   OW0      0.000000       15.9990           
   22970 A    5743 TIP4 H1   HW0      0.679100        1.0080           
   22971 A    5743 TIP4 H2   HW0      0.679100        1.0080           
   22972 A    5743 TIP4 BD1  LP0     -1.358200        0.0000           
   22973 A    5744 TIP4 O1   OW0      0.000000       15.9990           
   22974 A    5744 TIP4 H1   HW0      0.679100        1.0080           
   22975 A    5744 TIP4 H2   HW0      0.679100        1.0080           
   22976 A    5744 TIP4 BD1  LP0     -1.358200        0.0000           
   22977 A    5745 TIP4 O1   OW0      0.000000       15.9990           
   22978 A    5745 TIP4 H1   HW0      0.679100        1.0080           
   22979 A    5745 TIP4 H2   HW0      0.679100        1.0080           
   22980 A    5745 TIP4 BD1  LP0     -1.358200        0.0000           
   22981 A    5746 TIP4 O1   OW0      0.000000       15.9990           
   22982 A    5746 TIP4 H1   HW0      0.679100        1.0080           
   22983 A    5746 TIP4 H2   HW0      0.679100        1.0080           
   22984 A    5746 TIP4 BD1  LP0     -1.358200        0.0000           
   22985 A    5747 TIP4 O1   OW0      0.000000       15.9990           
   22986 A    5747 TIP4 H1   HW0      0.679100        1.0080           
   22987 A    5747 TIP4 H2   HW0      0.679100        1.0080           
   22988 A    5747 TIP4 BD1  LP0     -1.358200        0.0000           
   22989 A    5748 TIP4 O1   OW0      0.000000       15.9990           
   22990 A    5748 TIP4 H1   HW0      0.679100        1.0080           
   22991 A    5748 TIP4 H2   HW0      0.679100        1.0080           
   22992 A    5748 TIP4 BD1  LP0     -1.358200        0.0000           
   22993 A    5749 TIP4 O1   OW0      0.000000       15.9990           
   22994 A    5749 TIP4 H1   HW0      0.679100        1.0080           
   22995 A    5749 TIP4 H2   HW0      0.679100        1.0080           
   22996 A    5749 TIP4 BD1  LP0     -1.358200        0.0000           
   22997 A    5750 TIP4 O1   OW0      0.000000       15.9990           
   22998 A    5750 TIP4 H1   HW0      0.679100        1.0080           
   22999 A    5750 TIP4 H2   HW0      0.679100        1.0080           
   23000 A    5750 TIP4 BD1  LP0     -1.358200        0.0000           
   23001 A    5751 TIP4 O1   OW0      0.000000       15.9990           
   23002 A    5751 TIP4 H1   HW0      0.679100        1.0080           
   23003 A    5751 TIP4 H2   HW0      0.679100        1.0080           
   23004 A    5751 TIP4 BD1  LP0     -1.358200        0.0000           
   23005 A    5752 TIP4 O1   OW0      0.000000       15.9990           
   23006 A    5752 TIP4 H1   HW0      0.679100        1.0080           
   23007 A    5752 TIP4 H2   HW0      0.679100        1.0080           
   23008 A    5752 TIP4 BD1  LP0     -1.358200        0.0000           
   23009 A    5753 TIP4 O1   OW0      0.000000       15.9990           
   23010 A    5753 TIP4 H1   HW0      0.679100        1.0080           
   23011 A    5753 TIP4 H2   HW0      0.679100        1.0080           
   23012 A    5753 TIP4 BD1  LP0     -1.358200        0.0000           
   23013 A    5754 TIP4 O1   OW0      0.000000       15.9990           
   23014 A    5754 TIP4 H1   HW0      0.679100        1.0080           
   23015 A    5754 TIP4 H2   HW0      0.679100        1.0080           
   23016 A    5754 TIP4 BD1  LP0     -1.358200        0.0000           
   23017 A    5755 TIP4 O1   OW0      0.000000       15.9990           
   23018 A    5755 TIP4 H1   HW0      0.679100        1.0080           
   23019 A    5755 TIP4 H2   HW0      0.679100        1.0080           
   23020 A    5755 TIP4 BD1  LP0     -1.358200        0.0000           
   23021 A    5756 TIP4 O1   OW0      0.000000       15.9990           
   23022 A    5756 TIP4 H1   HW0      0.679100        1.0080           
   23023 A    5756 TIP4 H2   HW0      0.679100        1.0080           
   23024 A    5756 TIP4 BD1  LP0     -1.358200        0.0000           
   23025 A    5757 TIP4 O1   OW0      0.000000       15.9990           
   23026 A    5757 TIP4 H1   HW0      0.679100        1.0080           
   23027 A    5757 TIP4 H2   HW0      0.679100        1.0080           
   23028 A    5757 TIP4 BD1  LP0     -1.358200        0.0000           
   23029 A    5758 TIP4 O1   OW0      0.000000       15.9990           
   23030 A    5758 TIP4 H1   HW0      0.679100        1.0080           
   23031 A    5758 TIP4 H2   HW0      0.679100        1.0080           
   23032 A    5758 TIP4 BD1  LP0     -1.358200        0.0000           
   23033 A    5759 TIP4 O1   OW0      0.000000       15.9990           
   23034 A    5759 TIP4 H1   HW0      0.679100        1.0080           
   23035 A    5759 TIP4 H2   HW0      0.679100        1.0080           
   23036 A    5759 TIP4 BD1  LP0     -1.358200        0.0000           
   23037 A    5760 TIP4 O1   OW0      0.000000       15.9990           
   23038 A    5760 TIP4 H1   HW0      0.679100        1.0080           
   23039 A    5760 TIP4 H2   HW0      0.679100        1.0080           
   23040 A    5760 TIP4 BD1  LP0     -1.358200        0.0000           
   23041 A    5761 TIP4 O1   OW0      0.000000       15.9990           
   23042 A    5761 TIP4 H1   HW0      0.679100        1.0080           
   23043 A    5761 TIP4 H2   HW0      0.679100        1.0080           
   23044 A    5761 TIP4 BD1  LP0     -1.358200        0.0000           
   23045 A    5762 TIP4 O1   OW0      0.000000       15.9990           
   23046 A    5762 TIP4 H1   HW0      0.679100        1.0080           
   23047 A    5762 TIP4 H2   HW0      0.679100        1.0080           
   23048 A    5762 TIP4 BD1  LP0     -1.358200        0.0000           
   23049 A    5763 TIP4 O1   OW0      0.000000       15.9990           
   23050 A    5763 TIP4 H1   HW0      0.679100        1.0080           
   23051 A    5763 TIP4 H2   HW0      0.679100        1.0080           
   23052 A    5763 TIP4 BD1  LP0     -1.358200        0.0000           
   23053 A    5764 TIP4 O1   OW0      0.000000       15.9990           
   23054 A    5764 TIP4 H1   HW0      0.679100        1.0080           
   23055 A    5764 TIP4 H2   HW0      0.679100        1.0080           
   23056 A    5764 TIP4 BD1  LP0     -1.358200        0.0000           
   23057 A    5765 TIP4 O1   OW0      0.000000       15.9990           
   23058 A    5765 TIP4 H1   HW0      0.679100        1.0080           
   23059 A    5765 TIP4 H2   HW0      0.679100        1.0080           
   23060 A    5765 TIP4 BD1  LP0     -1.358200        0.0000           
   23061 A    5766 TIP4 O1   OW0      0.000000       15.9990           
   23062 A    5766 TIP4 H1   HW0      0.679100        1.0080           
   23063 A    5766 TIP4 H2   HW0      0.679100        1.0080           
   23064 A    5766 TIP4 BD1  LP0     -1.358200        0.0000           
   23065 A    5767 TIP4 O1   OW0      0.000000       15.9990           
   23066 A    5767 TIP4 H1   HW0      0.679100        1.0080           
   23067 A    5767 TIP4 H2   HW0      0.679100        1.0080           
   23068 A    5767 TIP4 BD1  LP0     -1.358200        0.0000           
   23069 A    5768 TIP4 O1   OW0      0.000000       15.9990           
   23070 A    5768 TIP4 H1   HW0      0.679100        1.0080           
   23071 A    5768 TIP4 H2   HW0      0.679100        1.0080           
   23072 A    5768 TIP4 BD1  LP0     -1.358200        0.0000           
   23073 A    5769 TIP4 O1   OW0      0.000000       15.9990           
   23074 A    5769 TIP4 H1   HW0      0.679100        1.0080           
   23075 A    5769 TIP4 H2   HW0      0.679100        1.0080           
   23076 A    5769 TIP4 BD1  LP0     -1.358200        0.0000           
   23077 A    5770 TIP4 O1   OW0      0.000000       15.9990           
   23078 A    5770 TIP4 H1   HW0      0.679100        1.0080           
   23079 A    5770 TIP4 H2   HW0      0.679100        1.0080           
   23080 A    5770 TIP4 BD1  LP0     -1.358200        0.0000           
   23081 A    5771 TIP4 O1   OW0      0.000000       15.9990           
   23082 A    5771 TIP4 H1   HW0      0.679100        1.0080           
   23083 A    5771 TIP4 H2   HW0      0.679100        1.0080           
   23084 A    5771 TIP4 BD1  LP0     -1.358200        0.0000           
   23085 A    5772 TIP4 O1   OW0      0.000000       15.9990           
   23086 A    5772 TIP4 H1   HW0      0.679100        1.0080           
   23087 A    5772 TIP4 H2   HW0      0.679100        1.0080           
   23088 A    5772 TIP4 BD1  LP0     -1.358200        0.0000           
   23089 A    5773 TIP4 O1   OW0      0.000000       15.9990           
   23090 A    5773 TIP4 H1   HW0      0.679100        1.0080           
   23091 A    5773 TIP4 H2   HW0      0.679100        1.0080           
   23092 A    5773 TIP4 BD1  LP0     -1.358200        0.0000           
   23093 A    5774 TIP4 O1   OW0      0.000000       15.9990           
   23094 A    5774 TIP4 H1   HW0      0.679100        1.0080           
   23095 A    5774 TIP4 H2   HW0      0.679100        1.0080           
   23096 A    5774 TIP4 BD1  LP0     -1.358200        0.0000           
   23097 A    5775 TIP4 O1   OW0      0.000000       15.9990           
   23098 A    5775 TIP4 H1   HW0      0.679100        1.0080           
   23099 A    5775 TIP4 H2   HW0      0.679100        1.0080           
   23100 A    5775 TIP4 BD1  LP0     -1.358200        0.0000           
   23101 A    5776 TIP4 O1   OW0      0.000000       15.9990           
   23102 A    5776 TIP4 H1   HW0      0.679100        1.0080           
   23103 A    5776 TIP4 H2   HW0      0.679100        1.0080           
   23104 A    5776 TIP4 BD1  LP0     -1.358200        0.0000           
   23105 A    5777 TIP4 O1   OW0      0.000000       15.9990           
   23106 A    5777 TIP4 H1   HW0      0.679100        1.0080           
   23107 A    5777 TIP4 H2   HW0      0.679100        1.0080           
   23108 A    5777 TIP4 BD1  LP0     -1.358200        0.0000           
   23109 A    5778 TIP4 O1   OW0      0.000000       15.9990           
   23110 A    5778 TIP4 H1   HW0      0.679100        1.0080           
   23111 A    5778 TIP4 H2   HW0      0.679100        1.0080           
   23112 A    5778 TIP4 BD1  LP0     -1.358200        0.0000           
   23113 A    5779 TIP4 O1   OW0      0.000000       15.9990           
   23114 A    5779 TIP4 H1   HW0      0.679100        1.0080           
   23115 A    5779 TIP4 H2   HW0      0.679100        1.0080           
   23116 A    5779 TIP4 BD1  LP0     -1.358200        0.0000           
   23117 A    5780 TIP4 O1   OW0      0.000000       15.9990           
   23118 A    5780 TIP4 H1   HW0      0.679100        1.0080           
   23119 A    5780 TIP4 H2   HW0      0.679100        1.0080           
   23120 A    5780 TIP4 BD1  LP0     -1.358200        0.0000           
   23121 A    5781 TIP4 O1   OW0      0.000000       15.9990           
   23122 A    5781 TIP4 H1   HW0      0.679100        1.0080           
   23123 A    5781 TIP4 H2   HW0      0.679100        1.0080           
   23124 A    5781 TIP4 BD1  LP0     -1.358200        0.0000           
   23125 A    5782 TIP4 O1   OW0      0.000000       15.9990           
   23126 A    5782 TIP4 H1   HW0      0.679100        1.0080           
   23127 A    5782 TIP4 H2   HW0      0.679100        1.0080           
   23128 A    5782 TIP4 BD1  LP0     -1.358200        0.0000           
   23129 A    5783 TIP4 O1   OW0      0.000000       15.9990           
   23130 A    5783 TIP4 H1   HW0      0.679100        1.0080           
   23131 A    5783 TIP4 H2   HW0      0.679100        1.0080           
   23132 A    5783 TIP4 BD1  LP0     -1.358200        0.0000           
   23133 A    5784 TIP4 O1   OW0      0.000000       15.9990           
   23134 A    5784 TIP4 H1   HW0      0.679100        1.0080           
   23135 A    5784 TIP4 H2   HW0      0.679100        1.0080           
   23136 A    5784 TIP4 BD1  LP0     -1.358200        0.0000           
   23137 A    5785 TIP4 O1   OW0      0.000000       15.9990           
   23138 A    5785 TIP4 H1   HW0      0.679100        1.0080           
   23139 A    5785 TIP4 H2   HW0      0.679100        1.0080           
   23140 A    5785 TIP4 BD1  LP0     -1.358200        0.0000           
   23141 A    5786 TIP4 O1   OW0      0.000000       15.9990           
   23142 A    5786 TIP4 H1   HW0      0.679100        1.0080           
   23143 A    5786 TIP4 H2   HW0      0.679100        1.0080           
   23144 A    5786 TIP4 BD1  LP0     -1.358200        0.0000           
   23145 A    5787 TIP4 O1   OW0      0.000000       15.9990           
   23146 A    5787 TIP4 H1   HW0      0.679100        1.0080           
   23147 A    5787 TIP4 H2   HW0      0.679100        1.0080           
   23148 A    5787 TIP4 BD1  LP0     -1.358200        0.0000           
   23149 A    5788 TIP4 O1   OW0      0.000000       15.9990           
   23150 A    5788 TIP4 H1   HW0      0.679100        1.0080           
   23151 A    5788 TIP4 H2   HW0      0.679100        1.0080           
   23152 A    5788 TIP4 BD1  LP0     -1.358200        0.0000           
   23153 A    5789 TIP4 O1   OW0      0.000000       15.9990           
   23154 A    5789 TIP4 H1   HW0      0.679100        1.0080           
   23155 A    5789 TIP4 H2   HW0      0.679100        1.0080           
   23156 A    5789 TIP4 BD1  LP0     -1.358200        0.0000           
   23157 A    5790 TIP4 O1   OW0      0.000000       15.9990           
   23158 A    5790 TIP4 H1   HW0      0.679100        1.0080           
   23159 A    5790 TIP4 H2   HW0      0.679100        1.0080           
   23160 A    5790 TIP4 BD1  LP0     -1.358200        0.0000           
   23161 A    5791 TIP4 O1   OW0      0.000000       15.9990           
   23162 A    5791 TIP4 H1   HW0      0.679100        1.0080           
   23163 A    5791 TIP4 H2   HW0      0.679100        1.0080           
   23164 A    5791 TIP4 BD1  LP0     -1.358200        0.0000           
   23165 A    5792 TIP4 O1   OW0      0.000000       15.9990           
   23166 A    5792 TIP4 H1   HW0      0.679100        1.0080           
   23167 A    5792 TIP4 H2   HW0      0.679100        1.0080           
   23168 A    5792 TIP4 BD1  LP0     -1.358200        0.0000           
   23169 A    5793 TIP4 O1   OW0      0.000000       15.9990           
   23170 A    5793 TIP4 H1   HW0      0.679100        1.0080           
   23171 A    5793 TIP4 H2   HW0      0.679100        1.0080           
   23172 A    5793 TIP4 BD1  LP0     -1.358200        0.0000           
   23173 A    5794 TIP4 O1   OW0      0.000000       15.9990           
   23174 A    5794 TIP4 H1   HW0      0.679100        1.0080           
   23175 A    5794 TIP4 H2   HW0      0.679100        1.0080           
   23176 A    5794 TIP4 BD1  LP0     -1.358200        0.0000           
   23177 A    5795 TIP4 O1   OW0      0.000000       15.9990           
   23178 A    5795 TIP4 H1   HW0      0.679100        1.0080           
   23179 A    5795 TIP4 H2   HW0      0.679100        1.0080           
   23180 A    5795 TIP4 BD1  LP0     -1.358200        0.0000           
   23181 A    5796 TIP4 O1   OW0      0.000000       15.9990           
   23182 A    5796 TIP4 H1   HW0      0.679100        1.0080           
   23183 A    5796 TIP4 H2   HW0      0.679100        1.0080           
   23184 A    5796 TIP4 BD1  LP0     -1.358200        0.0000           
   23185 A    5797 TIP4 O1   OW0      0.000000       15.9990           
   23186 A    5797 TIP4 H1   HW0      0.679100        1.0080           
   23187 A    5797 TIP4 H2   HW0      0.679100        1.0080           
   23188 A    5797 TIP4 BD1  LP0     -1.358200        0.0000           
   23189 A    5798 TIP4 O1   OW0      0.000000       15.9990           
   23190 A    5798 TIP4 H1   HW0      0.679100        1.0080           
   23191 A    5798 TIP4 H2   HW0      0.679100        1.0080           
   23192 A    5798 TIP4 BD1  LP0     -1.358200        0.0000           
   23193 A    5799 TIP4 O1   OW0      0.000000       15.9990           
   23194 A    5799 TIP4 H1   HW0      0.679100        1.0080           
   23195 A    5799 TIP4 H2   HW0      0.679100        1.0080           
   23196 A    5799 TIP4 BD1  LP0     -1.358200        0.0000           
   23197 A    5800 TIP4 O1   OW0      0.000000       15.9990           
   23198 A    5800 TIP4 H1   HW0      0.679100        1.0080           
   23199 A    5800 TIP4 H2   HW0      0.679100        1.0080           
   23200 A    5800 TIP4 BD1  LP0     -1.358200        0.0000           
   23201 A    5801 TIP4 O1   OW0      0.000000       15.9990           
   23202 A    5801 TIP4 H1   HW0      0.679100        1.0080           
   23203 A    5801 TIP4 H2   HW0      0.679100        1.0080           
   23204 A    5801 TIP4 BD1  LP0     -1.358200        0.0000           
   23205 A    5802 TIP4 O1   OW0      0.000000       15.9990           
   23206 A    5802 TIP4 H1   HW0      0.679100        1.0080           
   23207 A    5802 TIP4 H2   HW0      0.679100        1.0080           
   23208 A    5802 TIP4 BD1  LP0     -1.358200        0.0000           
   23209 A    5803 TIP4 O1   OW0      0.000000       15.9990           
   23210 A    5803 TIP4 H1   HW0      0.679100        1.0080           
   23211 A    5803 TIP4 H2   HW0      0.679100        1.0080           
   23212 A    5803 TIP4 BD1  LP0     -1.358200        0.0000           
   23213 A    5804 TIP4 O1   OW0      0.000000       15.9990           
   23214 A    5804 TIP4 H1   HW0      0.679100        1.0080           
   23215 A    5804 TIP4 H2   HW0      0.679100        1.0080           
   23216 A    5804 TIP4 BD1  LP0     -1.358200        0.0000           
   23217 A    5805 TIP4 O1   OW0      0.000000       15.9990           
   23218 A    5805 TIP4 H1   HW0      0.679100        1.0080           
   23219 A    5805 TIP4 H2   HW0      0.679100        1.0080           
   23220 A    5805 TIP4 BD1  LP0     -1.358200        0.0000           
   23221 A    5806 TIP4 O1   OW0      0.000000       15.9990           
   23222 A    5806 TIP4 H1   HW0      0.679100        1.0080           
   23223 A    5806 TIP4 H2   HW0      0.679100        1.0080           
   23224 A    5806 TIP4 BD1  LP0     -1.358200        0.0000           
   23225 A    5807 TIP4 O1   OW0      0.000000       15.9990           
   23226 A    5807 TIP4 H1   HW0      0.679100        1.0080           
   23227 A    5807 TIP4 H2   HW0      0.679100        1.0080           
   23228 A    5807 TIP4 BD1  LP0     -1.358200        0.0000           
   23229 A    5808 TIP4 O1   OW0      0.000000       15.9990           
   23230 A    5808 TIP4 H1   HW0      0.679100        1.0080           
   23231 A    5808 TIP4 H2   HW0      0.679100        1.0080           
   23232 A    5808 TIP4 BD1  LP0     -1.358200        0.0000           
   23233 A    5809 TIP4 O1   OW0      0.000000       15.9990           
   23234 A    5809 TIP4 H1   HW0      0.679100        1.0080           
   23235 A    5809 TIP4 H2   HW0      0.679100        1.0080           
   23236 A    5809 TIP4 BD1  LP0     -1.358200        0.0000           
   23237 A    5810 TIP4 O1   OW0      0.000000       15.9990           
   23238 A    5810 TIP4 H1   HW0      0.679100        1.0080           
   23239 A    5810 TIP4 H2   HW0      0.679100        1.0080           
   23240 A    5810 TIP4 BD1  LP0     -1.358200        0.0000           
   23241 A    5811 TIP4 O1   OW0      0.000000       15.9990           
   23242 A    5811 TIP4 H1   HW0      0.679100        1.0080           
   23243 A    5811 TIP4 H2   HW0      0.679100        1.0080           
   23244 A    5811 TIP4 BD1  LP0     -1.358200        0.0000           
   23245 A    5812 TIP4 O1   OW0      0.000000       15.9990           
   23246 A    5812 TIP4 H1   HW0      0.679100        1.0080           
   23247 A    5812 TIP4 H2   HW0      0.679100        1.0080           
   23248 A    5812 TIP4 BD1  LP0     -1.358200        0.0000           
   23249 A    5813 TIP4 O1   OW0      0.000000       15.9990           
   23250 A    5813 TIP4 H1   HW0      0.679100        1.0080           
   23251 A    5813 TIP4 H2   HW0      0.679100        1.0080           
   23252 A    5813 TIP4 BD1  LP0     -1.358200        0.0000           
   23253 A    5814 TIP4 O1   OW0      0.000000       15.9990           
   23254 A    5814 TIP4 H1   HW0      0.679100        1.0080           
   23255 A    5814 TIP4 H2   HW0      0.679100        1.0080           
   23256 A    5814 TIP4 BD1  LP0     -1.358200        0.0000           
   23257 A    5815 TIP4 O1   OW0      0.000000       15.9990           
   23258 A    5815 TIP4 H1   HW0      0.679100        1.0080           
   23259 A    5815 TIP4 H2   HW0      0.679100        1.0080           
   23260 A    5815 TIP4 BD1  LP0     -1.358200        0.0000           
   23261 A    5816 TIP4 O1   OW0      0.000000       15.9990           
   23262 A    5816 TIP4 H1   HW0      0.679100        1.0080           
   23263 A    5816 TIP4 H2   HW0      0.679100        1.0080           
   23264 A    5816 TIP4 BD1  LP0     -1.358200        0.0000           
   23265 A    5817 TIP4 O1   OW0      0.000000       15.9990           
   23266 A    5817 TIP4 H1   HW0      0.679100        1.0080           
   23267 A    5817 TIP4 H2   HW0      0.679100        1.0080           
   23268 A    5817 TIP4 BD1  LP0     -1.358200        0.0000           
   23269 A    5818 TIP4 O1   OW0      0.000000       15.9990           
   23270 A    5818 TIP4 H1   HW0      0.679100        1.0080           
   23271 A    5818 TIP4 H2   HW0      0.679100        1.0080           
   23272 A    5818 TIP4 BD1  LP0     -1.358200        0.0000           
   23273 A    5819 TIP4 O1   OW0      0.000000       15.9990           
   23274 A    5819 TIP4 H1   HW0      0.679100        1.0080           
   23275 A    5819 TIP4 H2   HW0      0.679100        1.0080           
   23276 A    5819 TIP4 BD1  LP0     -1.358200        0.0000           
   23277 A    5820 TIP4 O1   OW0      0.000000       15.9990           
   23278 A    5820 TIP4 H1   HW0      0.679100        1.0080           
   23279 A    5820 TIP4 H2   HW0      0.679100        1.0080           
   23280 A    5820 TIP4 BD1  LP0     -1.358200        0.0000           
   23281 A    5821 TIP4 O1   OW0      0.000000       15.9990           
   23282 A    5821 TIP4 H1   HW0      0.679100        1.0080           
   23283 A    5821 TIP4 H2   HW0      0.679100        1.0080           
   23284 A    5821 TIP4 BD1  LP0     -1.358200        0.0000           
   23285 A    5822 TIP4 O1   OW0      0.000000       15.9990           
   23286 A    5822 TIP4 H1   HW0      0.679100        1.0080           
   23287 A    5822 TIP4 H2   HW0      0.679100        1.0080           
   23288 A    5822 TIP4 BD1  LP0     -1.358200        0.0000           
   23289 A    5823 TIP4 O1   OW0      0.000000       15.9990           
   23290 A    5823 TIP4 H1   HW0      0.679100        1.0080           
   23291 A    5823 TIP4 H2   HW0      0.679100        1.0080           
   23292 A    5823 TIP4 BD1  LP0     -1.358200        0.0000           
   23293 A    5824 TIP4 O1   OW0      0.000000       15.9990           
   23294 A    5824 TIP4 H1   HW0      0.679100        1.0080           
   23295 A    5824 TIP4 H2   HW0      0.679100        1.0080           
   23296 A    5824 TIP4 BD1  LP0     -1.358200        0.0000           
   23297 A    5825 TIP4 O1   OW0      0.000000       15.9990           
   23298 A    5825 TIP4 H1   HW0      0.679100        1.0080           
   23299 A    5825 TIP4 H2   HW0      0.679100        1.0080           
   23300 A    5825 TIP4 BD1  LP0     -1.358200        0.0000           
   23301 A    5826 TIP4 O1   OW0      0.000000       15.9990           
   23302 A    5826 TIP4 H1   HW0      0.679100        1.0080           
   23303 A    5826 TIP4 H2   HW0      0.679100        1.0080           
   23304 A    5826 TIP4 BD1  LP0     -1.358200        0.0000           
   23305 A    5827 TIP4 O1   OW0      0.000000       15.9990           
   23306 A    5827 TIP4 H1   HW0      0.679100        1.0080           
   23307 A    5827 TIP4 H2   HW0      0.679100        1.0080           
   23308 A    5827 TIP4 BD1  LP0     -1.358200        0.0000           
   23309 A    5828 TIP4 O1   OW0      0.000000       15.9990           
   23310 A    5828 TIP4 H1   HW0      0.679100        1.0080           
   23311 A    5828 TIP4 H2   HW0      0.679100        1.0080           
   23312 A    5828 TIP4 BD1  LP0     -1.358200        0.0000           
   23313 A    5829 TIP4 O1   OW0      0.000000       15.9990           
   23314 A    5829 TIP4 H1   HW0      0.679100        1.0080           
   23315 A    5829 TIP4 H2   HW0      0.679100        1.0080           
   23316 A    5829 TIP4 BD1  LP0     -1.358200        0.0000           
   23317 A    5830 TIP4 O1   OW0      0.000000       15.9990           
   23318 A    5830 TIP4 H1   HW0      0.679100        1.0080           
   23319 A    5830 TIP4 H2   HW0      0.679100        1.0080           
   23320 A    5830 TIP4 BD1  LP0     -1.358200        0.0000           
   23321 A    5831 TIP4 O1   OW0      0.000000       15.9990           
   23322 A    5831 TIP4 H1   HW0      0.679100        1.0080           
   23323 A    5831 TIP4 H2   HW0      0.679100        1.0080           
   23324 A    5831 TIP4 BD1  LP0     -1.358200        0.0000           
   23325 A    5832 TIP4 O1   OW0      0.000000       15.9990           
   23326 A    5832 TIP4 H1   HW0      0.679100        1.0080           
   23327 A    5832 TIP4 H2   HW0      0.679100        1.0080           
   23328 A    5832 TIP4 BD1  LP0     -1.358200        0.0000           
   23329 A    5833 TIP4 O1   OW0      0.000000       15.9990           
   23330 A    5833 TIP4 H1   HW0      0.679100        1.0080           
   23331 A    5833 TIP4 H2   HW0      0.679100        1.0080           
   23332 A    5833 TIP4 BD1  LP0     -1.358200        0.0000           
   23333 A    5834 TIP4 O1   OW0      0.000000       15.9990           
   23334 A    5834 TIP4 H1   HW0      0.679100        1.0080           
   23335 A    5834 TIP4 H2   HW0      0.679100        1.0080           
   23336 A    5834 TIP4 BD1  LP0     -1.358200        0.0000           
   23337 A    5835 TIP4 O1   OW0      0.000000       15.9990           
   23338 A    5835 TIP4 H1   HW0      0.679100        1.0080           
   23339 A    5835 TIP4 H2   HW0      0.679100        1.0080           
   23340 A    5835 TIP4 BD1  LP0     -1.358200        0.0000           
   23341 A    5836 TIP4 O1   OW0      0.000000       15.9990           
   23342 A    5836 TIP4 H1   HW0      0.679100        1.0080           
   23343 A    5836 TIP4 H2   HW0      0.679100        1.0080           
   23344 A    5836 TIP4 BD1  LP0     -1.358200        0.0000           
   23345 A    5837 TIP4 O1   OW0      0.000000       15.9990           
   23346 A    5837 TIP4 H1   HW0      0.679100        1.0080           
   23347 A    5837 TIP4 H2   HW0      0.679100        1.0080           
   23348 A    5837 TIP4 BD1  LP0     -1.358200        0.0000           
   23349 A    5838 TIP4 O1   OW0      0.000000       15.9990           
   23350 A    5838 TIP4 H1   HW0      0.679100        1.0080           
   23351 A    5838 TIP4 H2   HW0      0.679100        1.0080           
   23352 A    5838 TIP4 BD1  LP0     -1.358200        0.0000           
   23353 A    5839 TIP4 O1   OW0      0.000000       15.9990           
   23354 A    5839 TIP4 H1   HW0      0.679100        1.0080           
   23355 A    5839 TIP4 H2   HW0      0.679100        1.0080           
   23356 A    5839 TIP4 BD1  LP0     -1.358200        0.0000           
   23357 A    5840 TIP4 O1   OW0      0.000000       15.9990           
   23358 A    5840 TIP4 H1   HW0      0.679100        1.0080           
   23359 A    5840 TIP4 H2   HW0      0.679100        1.0080           
   23360 A    5840 TIP4 BD1  LP0     -1.358200        0.0000           
   23361 A    5841 TIP4 O1   OW0      0.000000       15.9990           
   23362 A    5841 TIP4 H1   HW0      0.679100        1.0080           
   23363 A    5841 TIP4 H2   HW0      0.679100        1.0080           
   23364 A    5841 TIP4 BD1  LP0     -1.358200        0.0000           
   23365 A    5842 TIP4 O1   OW0      0.000000       15.9990           
   23366 A    5842 TIP4 H1   HW0      0.679100        1.0080           
   23367 A    5842 TIP4 H2   HW0      0.679100        1.0080           
   23368 A    5842 TIP4 BD1  LP0     -1.358200        0.0000           
   23369 A    5843 TIP4 O1   OW0      0.000000       15.9990           
   23370 A    5843 TIP4 H1   HW0      0.679100        1.0080           
   23371 A    5843 TIP4 H2   HW0      0.679100        1.0080           
   23372 A    5843 TIP4 BD1  LP0     -1.358200        0.0000           
   23373 A    5844 TIP4 O1   OW0      0.000000       15.9990           
   23374 A    5844 TIP4 H1   HW0      0.679100        1.0080           
   23375 A    5844 TIP4 H2   HW0      0.679100        1.0080           
   23376 A    5844 TIP4 BD1  LP0     -1.358200        0.0000           
   23377 A    5845 TIP4 O1   OW0      0.000000       15.9990           
   23378 A    5845 TIP4 H1   HW0      0.679100        1.0080           
   23379 A    5845 TIP4 H2   HW0      0.679100        1.0080           
   23380 A    5845 TIP4 BD1  LP0     -1.358200        0.0000           
   23381 A    5846 TIP4 O1   OW0      0.000000       15.9990           
   23382 A    5846 TIP4 H1   HW0      0.679100        1.0080           
   23383 A    5846 TIP4 H2   HW0      0.679100        1.0080           
   23384 A    5846 TIP4 BD1  LP0     -1.358200        0.0000           
   23385 A    5847 TIP4 O1   OW0      0.000000       15.9990           
   23386 A    5847 TIP4 H1   HW0      0.679100        1.0080           
   23387 A    5847 TIP4 H2   HW0      0.679100        1.0080           
   23388 A    5847 TIP4 BD1  LP0     -1.358200        0.0000           
   23389 A    5848 TIP4 O1   OW0      0.000000       15.9990           
   23390 A    5848 TIP4 H1   HW0      0.679100        1.0080           
   23391 A    5848 TIP4 H2   HW0      0.679100        1.0080           
   23392 A    5848 TIP4 BD1  LP0     -1.358200        0.0000           
   23393 A    5849 TIP4 O1   OW0      0.000000       15.9990           
   23394 A    5849 TIP4 H1   HW0      0.679100        1.0080           
   23395 A    5849 TIP4 H2   HW0      0.679100        1.0080           
   23396 A    5849 TIP4 BD1  LP0     -1.358200        0.0000           
   23397 A    5850 TIP4 O1   OW0      0.000000       15.9990           
   23398 A    5850 TIP4 H1   HW0      0.679100        1.0080           
   23399 A    5850 TIP4 H2   HW0      0.679100        1.0080           
   23400 A    5850 TIP4 BD1  LP0     -1.358200        0.0000           
   23401 A    5851 TIP4 O1   OW0      0.000000       15.9990           
   23402 A    5851 TIP4 H1   HW0      0.679100        1.0080           
   23403 A    5851 TIP4 H2   HW0      0.679100        1.0080           
   23404 A    5851 TIP4 BD1  LP0     -1.358200        0.0000           
   23405 A    5852 TIP4 O1   OW0      0.000000       15.9990           
   23406 A    5852 TIP4 H1   HW0      0.679100        1.0080           
   23407 A    5852 TIP4 H2   HW0      0.679100        1.0080           
   23408 A    5852 TIP4 BD1  LP0     -1.358200        0.0000           
   23409 A    5853 TIP4 O1   OW0      0.000000       15.9990           
   23410 A    5853 TIP4 H1   HW0      0.679100        1.0080           
   23411 A    5853 TIP4 H2   HW0      0.679100        1.0080           
   23412 A    5853 TIP4 BD1  LP0     -1.358200        0.0000           
   23413 A    5854 TIP4 O1   OW0      0.000000       15.9990           
   23414 A    5854 TIP4 H1   HW0      0.679100        1.0080           
   23415 A    5854 TIP4 H2   HW0      0.679100        1.0080           
   23416 A    5854 TIP4 BD1  LP0     -1.358200        0.0000           
   23417 A    5855 TIP4 O1   OW0      0.000000       15.9990           
   23418 A    5855 TIP4 H1   HW0      0.679100        1.0080           
   23419 A    5855 TIP4 H2   HW0      0.679100        1.0080           
   23420 A    5855 TIP4 BD1  LP0     -1.358200        0.0000           
   23421 A    5856 TIP4 O1   OW0      0.000000       15.9990           
   23422 A    5856 TIP4 H1   HW0      0.679100        1.0080           
   23423 A    5856 TIP4 H2   HW0      0.679100        1.0080           
   23424 A    5856 TIP4 BD1  LP0     -1.358200        0.0000           
   23425 A    5857 TIP4 O1   OW0      0.000000       15.9990           
   23426 A    5857 TIP4 H1   HW0      0.679100        1.0080           
   23427 A    5857 TIP4 H2   HW0      0.679100        1.0080           
   23428 A    5857 TIP4 BD1  LP0     -1.358200        0.0000           
   23429 A    5858 TIP4 O1   OW0      0.000000       15.9990           
   23430 A    5858 TIP4 H1   HW0      0.679100        1.0080           
   23431 A    5858 TIP4 H2   HW0      0.679100        1.0080           
   23432 A    5858 TIP4 BD1  LP0     -1.358200        0.0000           
   23433 A    5859 TIP4 O1   OW0      0.000000       15.9990           
   23434 A    5859 TIP4 H1   HW0      0.679100        1.0080           
   23435 A    5859 TIP4 H2   HW0      0.679100        1.0080           
   23436 A    5859 TIP4 BD1  LP0     -1.358200        0.0000           
   23437 A    5860 TIP4 O1   OW0      0.000000       15.9990           
   23438 A    5860 TIP4 H1   HW0      0.679100        1.0080           
   23439 A    5860 TIP4 H2   HW0      0.679100        1.0080           
   23440 A    5860 TIP4 BD1  LP0     -1.358200        0.0000           
   23441 A    5861 TIP4 O1   OW0      0.000000       15.9990           
   23442 A    5861 TIP4 H1   HW0      0.679100        1.0080           
   23443 A    5861 TIP4 H2   HW0      0.679100        1.0080           
   23444 A    5861 TIP4 BD1  LP0     -1.358200        0.0000           
   23445 A    5862 TIP4 O1   OW0      0.000000       15.9990           
   23446 A    5862 TIP4 H1   HW0      0.679100        1.0080           
   23447 A    5862 TIP4 H2   HW0      0.679100        1.0080           
   23448 A    5862 TIP4 BD1  LP0     -1.358200        0.0000           
   23449 A    5863 TIP4 O1   OW0      0.000000       15.9990           
   23450 A    5863 TIP4 H1   HW0      0.679100        1.0080           
   23451 A    5863 TIP4 H2   HW0      0.679100        1.0080           
   23452 A    5863 TIP4 BD1  LP0     -1.358200        0.0000           
   23453 A    5864 TIP4 O1   OW0      0.000000       15.9990           
   23454 A    5864 TIP4 H1   HW0      0.679100        1.0080           
   23455 A    5864 TIP4 H2   HW0      0.679100        1.0080           
   23456 A    5864 TIP4 BD1  LP0     -1.358200        0.0000           
   23457 A    5865 TIP4 O1   OW0      0.000000       15.9990           
   23458 A    5865 TIP4 H1   HW0      0.679100        1.0080           
   23459 A    5865 TIP4 H2   HW0      0.679100        1.0080           
   23460 A    5865 TIP4 BD1  LP0     -1.358200        0.0000           
   23461 A    5866 TIP4 O1   OW0      0.000000       15.9990           
   23462 A    5866 TIP4 H1   HW0      0.679100        1.0080           
   23463 A    5866 TIP4 H2   HW0      0.679100        1.0080           
   23464 A    5866 TIP4 BD1  LP0     -1.358200        0.0000           
   23465 A    5867 TIP4 O1   OW0      0.000000       15.9990           
   23466 A    5867 TIP4 H1   HW0      0.679100        1.0080           
   23467 A    5867 TIP4 H2   HW0      0.679100        1.0080           
   23468 A    5867 TIP4 BD1  LP0     -1.358200        0.0000           
   23469 A    5868 TIP4 O1   OW0      0.000000       15.9990           
   23470 A    5868 TIP4 H1   HW0      0.679100        1.0080           
   23471 A    5868 TIP4 H2   HW0      0.679100        1.0080           
   23472 A    5868 TIP4 BD1  LP0     -1.358200        0.0000           
   23473 A    5869 TIP4 O1   OW0      0.000000       15.9990           
   23474 A    5869 TIP4 H1   HW0      0.679100        1.0080           
   23475 A    5869 TIP4 H2   HW0      0.679100        1.0080           
   23476 A    5869 TIP4 BD1  LP0     -1.358200        0.0000           
   23477 A    5870 TIP4 O1   OW0      0.000000       15.9990           
   23478 A    5870 TIP4 H1   HW0      0.679100        1.0080           
   23479 A    5870 TIP4 H2   HW0      0.679100        1.0080           
   23480 A    5870 TIP4 BD1  LP0     -1.358200        0.0000           
   23481 A    5871 TIP4 O1   OW0      0.000000       15.9990           
   23482 A    5871 TIP4 H1   HW0      0.679100        1.0080           
   23483 A    5871 TIP4 H2   HW0      0.679100        1.0080           
   23484 A    5871 TIP4 BD1  LP0     -1.358200        0.0000           
   23485 A    5872 TIP4 O1   OW0      0.000000       15.9990           
   23486 A    5872 TIP4 H1   HW0      0.679100        1.0080           
   23487 A    5872 TIP4 H2   HW0      0.679100        1.0080           
   23488 A    5872 TIP4 BD1  LP0     -1.358200        0.0000           
   23489 A    5873 TIP4 O1   OW0      0.000000       15.9990           
   23490 A    5873 TIP4 H1   HW0      0.679100        1.0080           
   23491 A    5873 TIP4 H2   HW0      0.679100        1.0080           
   23492 A    5873 TIP4 BD1  LP0     -1.358200        0.0000           
   23493 A    5874 TIP4 O1   OW0      0.000000       15.9990           
   23494 A    5874 TIP4 H1   HW0      0.679100        1.0080           
   23495 A    5874 TIP4 H2   HW0      0.679100        1.0080           
   23496 A    5874 TIP4 BD1  LP0     -1.358200        0.0000           
   23497 A    5875 TIP4 O1   OW0      0.000000       15.9990           
   23498 A    5875 TIP4 H1   HW0      0.679100        1.0080           
   23499 A    5875 TIP4 H2   HW0      0.679100        1.0080           
   23500 A    5875 TIP4 BD1  LP0     -1.358200        0.0000           
   23501 A    5876 TIP4 O1   OW0      0.000000       15.9990           
   23502 A    5876 TIP4 H1   HW0      0.679100        1.0080           
   23503 A    5876 TIP4 H2   HW0      0.679100        1.0080           
   23504 A    5876 TIP4 BD1  LP0     -1.358200        0.0000           
   23505 A    5877 TIP4 O1   OW0      0.000000       15.9990           
   23506 A    5877 TIP4 H1   HW0      0.679100        1.0080           
   23507 A    5877 TIP4 H2   HW0      0.679100        1.0080           
   23508 A    5877 TIP4 BD1  LP0     -1.358200        0.0000           
   23509 A    5878 TIP4 O1   OW0      0.000000       15.9990           
   23510 A    5878 TIP4 H1   HW0      0.679100        1.0080           
   23511 A    5878 TIP4 H2   HW0      0.679100        1.0080           
   23512 A    5878 TIP4 BD1  LP0     -1.358200        0.0000           
   23513 A    5879 TIP4 O1   OW0      0.000000       15.9990           
   23514 A    5879 TIP4 H1   HW0      0.679100        1.0080           
   23515 A    5879 TIP4 H2   HW0      0.679100        1.0080           
   23516 A    5879 TIP4 BD1  LP0     -1.358200        0.0000           
   23517 A    5880 TIP4 O1   OW0      0.000000       15.9990           
   23518 A    5880 TIP4 H1   HW0      0.679100        1.0080           
   23519 A    5880 TIP4 H2   HW0      0.679100        1.0080           
   23520 A    5880 TIP4 BD1  LP0     -1.358200        0.0000           
   23521 A    5881 TIP4 O1   OW0      0.000000       15.9990           
   23522 A    5881 TIP4 H1   HW0      0.679100        1.0080           
   23523 A    5881 TIP4 H2   HW0      0.679100        1.0080           
   23524 A    5881 TIP4 BD1  LP0     -1.358200        0.0000           
   23525 A    5882 TIP4 O1   OW0      0.000000       15.9990           
   23526 A    5882 TIP4 H1   HW0      0.679100        1.0080           
   23527 A    5882 TIP4 H2   HW0      0.679100        1.0080           
   23528 A    5882 TIP4 BD1  LP0     -1.358200        0.0000           
   23529 A    5883 TIP4 O1   OW0      0.000000       15.9990           
   23530 A    5883 TIP4 H1   HW0      0.679100        1.0080           
   23531 A    5883 TIP4 H2   HW0      0.679100        1.0080           
   23532 A    5883 TIP4 BD1  LP0     -1.358200        0.0000           
   23533 A    5884 TIP4 O1   OW0      0.000000       15.9990           
   23534 A    5884 TIP4 H1   HW0      0.679100        1.0080           
   23535 A    5884 TIP4 H2   HW0      0.679100        1.0080           
   23536 A    5884 TIP4 BD1  LP0     -1.358200        0.0000           
   23537 A    5885 TIP4 O1   OW0      0.000000       15.9990           
   23538 A    5885 TIP4 H1   HW0      0.679100        1.0080           
   23539 A    5885 TIP4 H2   HW0      0.679100        1.0080           
   23540 A    5885 TIP4 BD1  LP0     -1.358200        0.0000           
   23541 A    5886 TIP4 O1   OW0      0.000000       15.9990           
   23542 A    5886 TIP4 H1   HW0      0.679100        1.0080           
   23543 A    5886 TIP4 H2   HW0      0.679100        1.0080           
   23544 A    5886 TIP4 BD1  LP0     -1.358200        0.0000           
   23545 A    5887 TIP4 O1   OW0      0.000000       15.9990           
   23546 A    5887 TIP4 H1   HW0      0.679100        1.0080           
   23547 A    5887 TIP4 H2   HW0      0.679100        1.0080           
   23548 A    5887 TIP4 BD1  LP0     -1.358200        0.0000           
   23549 A    5888 TIP4 O1   OW0      0.000000       15.9990           
   23550 A    5888 TIP4 H1   HW0      0.679100        1.0080           
   23551 A    5888 TIP4 H2   HW0      0.679100        1.0080           
   23552 A    5888 TIP4 BD1  LP0     -1.358200        0.0000           
   23553 A    5889 TIP4 O1   OW0      0.000000       15.9990           
   23554 A    5889 TIP4 H1   HW0      0.679100        1.0080           
   23555 A    5889 TIP4 H2   HW0      0.679100        1.0080           
   23556 A    5889 TIP4 BD1  LP0     -1.358200        0.0000           
   23557 A    5890 TIP4 O1   OW0      0.000000       15.9990           
   23558 A    5890 TIP4 H1   HW0      0.679100        1.0080           
   23559 A    5890 TIP4 H2   HW0      0.679100        1.0080           
   23560 A    5890 TIP4 BD1  LP0     -1.358200        0.0000           
   23561 A    5891 TIP4 O1   OW0      0.000000       15.9990           
   23562 A    5891 TIP4 H1   HW0      0.679100        1.0080           
   23563 A    5891 TIP4 H2   HW0      0.679100        1.0080           
   23564 A    5891 TIP4 BD1  LP0     -1.358200        0.0000           
   23565 A    5892 TIP4 O1   OW0      0.000000       15.9990           
   23566 A    5892 TIP4 H1   HW0      0.679100        1.0080           
   23567 A    5892 TIP4 H2   HW0      0.679100        1.0080           
   23568 A    5892 TIP4 BD1  LP0     -1.358200        0.0000           
   23569 A    5893 TIP4 O1   OW0      0.000000       15.9990           
   23570 A    5893 TIP4 H1   HW0      0.679100        1.0080           
   23571 A    5893 TIP4 H2   HW0      0.679100        1.0080           
   23572 A    5893 TIP4 BD1  LP0     -1.358200        0.0000           
   23573 A    5894 TIP4 O1   OW0      0.000000       15.9990           
   23574 A    5894 TIP4 H1   HW0      0.679100        1.0080           
   23575 A    5894 TIP4 H2   HW0      0.679100        1.0080           
   23576 A    5894 TIP4 BD1  LP0     -1.358200        0.0000           
   23577 A    5895 TIP4 O1   OW0      0.000000       15.9990           
   23578 A    5895 TIP4 H1   HW0      0.679100        1.0080           
   23579 A    5895 TIP4 H2   HW0      0.679100        1.0080           
   23580 A    5895 TIP4 BD1  LP0     -1.358200        0.0000           
   23581 A    5896 TIP4 O1   OW0      0.000000       15.9990           
   23582 A    5896 TIP4 H1   HW0      0.679100        1.0080           
   23583 A    5896 TIP4 H2   HW0      0.679100        1.0080           
   23584 A    5896 TIP4 BD1  LP0     -1.358200        0.0000           
   23585 A    5897 TIP4 O1   OW0      0.000000       15.9990           
   23586 A    5897 TIP4 H1   HW0      0.679100        1.0080           
   23587 A    5897 TIP4 H2   HW0      0.679100        1.0080           
   23588 A    5897 TIP4 BD1  LP0     -1.358200        0.0000           
   23589 A    5898 TIP4 O1   OW0      0.000000       15.9990           
   23590 A    5898 TIP4 H1   HW0      0.679100        1.0080           
   23591 A    5898 TIP4 H2   HW0      0.679100        1.0080           
   23592 A    5898 TIP4 BD1  LP0     -1.358200        0.0000           
   23593 A    5899 TIP4 O1   OW0      0.000000       15.9990           
   23594 A    5899 TIP4 H1   HW0      0.679100        1.0080           
   23595 A    5899 TIP4 H2   HW0      0.679100        1.0080           
   23596 A    5899 TIP4 BD1  LP0     -1.358200        0.0000           
   23597 A    5900 TIP4 O1   OW0      0.000000       15.9990           
   23598 A    5900 TIP4 H1   HW0      0.679100        1.0080           
   23599 A    5900 TIP4 H2   HW0      0.679100        1.0080           
   23600 A    5900 TIP4 BD1  LP0     -1.358200        0.0000           
   23601 A    5901 TIP4 O1   OW0      0.000000       15.9990           
   23602 A    5901 TIP4 H1   HW0      0.679100        1.0080           
   23603 A    5901 TIP4 H2   HW0      0.679100        1.0080           
   23604 A    5901 TIP4 BD1  LP0     -1.358200        0.0000           
   23605 A    5902 TIP4 O1   OW0      0.000000       15.9990           
   23606 A    5902 TIP4 H1   HW0      0.679100        1.0080           
   23607 A    5902 TIP4 H2   HW0      0.679100        1.0080           
   23608 A    5902 TIP4 BD1  LP0     -1.358200        0.0000           
   23609 A    5903 TIP4 O1   OW0      0.000000       15.9990           
   23610 A    5903 TIP4 H1   HW0      0.679100        1.0080           
   23611 A    5903 TIP4 H2   HW0      0.679100        1.0080           
   23612 A    5903 TIP4 BD1  LP0     -1.358200        0.0000           
   23613 A    5904 TIP4 O1   OW0      0.000000       15.9990           
   23614 A    5904 TIP4 H1   HW0      0.679100        1.0080           
   23615 A    5904 TIP4 H2   HW0      0.679100        1.0080           
   23616 A    5904 TIP4 BD1  LP0     -1.358200        0.0000           
   23617 A    5905 TIP4 O1   OW0      0.000000       15.9990           
   23618 A    5905 TIP4 H1   HW0      0.679100        1.0080           
   23619 A    5905 TIP4 H2   HW0      0.679100        1.0080           
   23620 A    5905 TIP4 BD1  LP0     -1.358200        0.0000           
   23621 A    5906 TIP4 O1   OW0      0.000000       15.9990           
   23622 A    5906 TIP4 H1   HW0      0.679100        1.0080           
   23623 A    5906 TIP4 H2   HW0      0.679100        1.0080           
   23624 A    5906 TIP4 BD1  LP0     -1.358200        0.0000           
   23625 A    5907 TIP4 O1   OW0      0.000000       15.9990           
   23626 A    5907 TIP4 H1   HW0      0.679100        1.0080           
   23627 A    5907 TIP4 H2   HW0      0.679100        1.0080           
   23628 A    5907 TIP4 BD1  LP0     -1.358200        0.0000           
   23629 A    5908 TIP4 O1   OW0      0.000000       15.9990           
   23630 A    5908 TIP4 H1   HW0      0.679100        1.0080           
   23631 A    5908 TIP4 H2   HW0      0.679100        1.0080           
   23632 A    5908 TIP4 BD1  LP0     -1.358200        0.0000           
   23633 A    5909 TIP4 O1   OW0      0.000000       15.9990           
   23634 A    5909 TIP4 H1   HW0      0.679100        1.0080           
   23635 A    5909 TIP4 H2   HW0      0.679100        1.0080           
   23636 A    5909 TIP4 BD1  LP0     -1.358200        0.0000           
   23637 A    5910 TIP4 O1   OW0      0.000000       15.9990           
   23638 A    5910 TIP4 H1   HW0      0.679100        1.0080           
   23639 A    5910 TIP4 H2   HW0      0.679100        1.0080           
   23640 A    5910 TIP4 BD1  LP0     -1.358200        0.0000           
   23641 A    5911 TIP4 O1   OW0      0.000000       15.9990           
   23642 A    5911 TIP4 H1   HW0      0.679100        1.0080           
   23643 A    5911 TIP4 H2   HW0      0.679100        1.0080           
   23644 A    5911 TIP4 BD1  LP0     -1.358200        0.0000           
   23645 A    5912 TIP4 O1   OW0      0.000000       15.9990           
   23646 A    5912 TIP4 H1   HW0      0.679100        1.0080           
   23647 A    5912 TIP4 H2   HW0      0.679100        1.0080           
   23648 A    5912 TIP4 BD1  LP0     -1.358200        0.0000           
   23649 A    5913 TIP4 O1   OW0      0.000000       15.9990           
   23650 A    5913 TIP4 H1   HW0      0.679100        1.0080           
   23651 A    5913 TIP4 H2   HW0      0.679100        1.0080           
   23652 A    5913 TIP4 BD1  LP0     -1.358200        0.0000           
   23653 A    5914 TIP4 O1   OW0      0.000000       15.9990           
   23654 A    5914 TIP4 H1   HW0      0.679100        1.0080           
   23655 A    5914 TIP4 H2   HW0      0.679100        1.0080           
   23656 A    5914 TIP4 BD1  LP0     -1.358200        0.0000           
   23657 A    5915 TIP4 O1   OW0      0.000000       15.9990           
   23658 A    5915 TIP4 H1   HW0      0.679100        1.0080           
   23659 A    5915 TIP4 H2   HW0      0.679100        1.0080           
   23660 A    5915 TIP4 BD1  LP0     -1.358200        0.0000           
   23661 A    5916 TIP4 O1   OW0      0.000000       15.9990           
   23662 A    5916 TIP4 H1   HW0      0.679100        1.0080           
   23663 A    5916 TIP4 H2   HW0      0.679100        1.0080           
   23664 A    5916 TIP4 BD1  LP0     -1.358200        0.0000           
   23665 A    5917 TIP4 O1   OW0      0.000000       15.9990           
   23666 A    5917 TIP4 H1   HW0      0.679100        1.0080           
   23667 A    5917 TIP4 H2   HW0      0.679100        1.0080           
   23668 A    5917 TIP4 BD1  LP0     -1.358200        0.0000           
   23669 A    5918 TIP4 O1   OW0      0.000000       15.9990           
   23670 A    5918 TIP4 H1   HW0      0.679100        1.0080           
   23671 A    5918 TIP4 H2   HW0      0.679100        1.0080           
   23672 A    5918 TIP4 BD1  LP0     -1.358200        0.0000           
   23673 A    5919 TIP4 O1   OW0      0.000000       15.9990           
   23674 A    5919 TIP4 H1   HW0      0.679100        1.0080           
   23675 A    5919 TIP4 H2   HW0      0.679100        1.0080           
   23676 A    5919 TIP4 BD1  LP0     -1.358200        0.0000           
   23677 A    5920 TIP4 O1   OW0      0.000000       15.9990           
   23678 A    5920 TIP4 H1   HW0      0.679100        1.0080           
   23679 A    5920 TIP4 H2   HW0      0.679100        1.0080           
   23680 A    5920 TIP4 BD1  LP0     -1.358200        0.0000           
   23681 A    5921 TIP4 O1   OW0      0.000000       15.9990           
   23682 A    5921 TIP4 H1   HW0      0.679100        1.0080           
   23683 A    5921 TIP4 H2   HW0      0.679100        1.0080           
   23684 A    5921 TIP4 BD1  LP0     -1.358200        0.0000           
   23685 A    5922 TIP4 O1   OW0      0.000000       15.9990           
   23686 A    5922 TIP4 H1   HW0      0.679100        1.0080           
   23687 A    5922 TIP4 H2   HW0      0.679100        1.0080           
   23688 A    5922 TIP4 BD1  LP0     -1.358200        0.0000           
   23689 A    5923 TIP4 O1   OW0      0.000000       15.9990           
   23690 A    5923 TIP4 H1   HW0      0.679100        1.0080           
   23691 A    5923 TIP4 H2   HW0      0.679100        1.0080           
   23692 A    5923 TIP4 BD1  LP0     -1.358200        0.0000           
   23693 A    5924 TIP4 O1   OW0      0.000000       15.9990           
   23694 A    5924 TIP4 H1   HW0      0.679100        1.0080           
   23695 A    5924 TIP4 H2   HW0      0.679100        1.0080           
   23696 A    5924 TIP4 BD1  LP0     -1.358200        0.0000           
   23697 A    5925 TIP4 O1   OW0      0.000000       15.9990           
   23698 A    5925 TIP4 H1   HW0      0.679100        1.0080           
   23699 A    5925 TIP4 H2   HW0      0.679100        1.0080           
   23700 A    5925 TIP4 BD1  LP0     -1.358200        0.0000           
   23701 A    5926 TIP4 O1   OW0      0.000000       15.9990           
   23702 A    5926 TIP4 H1   HW0      0.679100        1.0080           
   23703 A    5926 TIP4 H2   HW0      0.679100        1.0080           
   23704 A    5926 TIP4 BD1  LP0     -1.358200        0.0000           
   23705 A    5927 TIP4 O1   OW0      0.000000       15.9990           
   23706 A    5927 TIP4 H1   HW0      0.679100        1.0080           
   23707 A    5927 TIP4 H2   HW0      0.679100        1.0080           
   23708 A    5927 TIP4 BD1  LP0     -1.358200        0.0000           
   23709 A    5928 TIP4 O1   OW0      0.000000       15.9990           
   23710 A    5928 TIP4 H1   HW0      0.679100        1.0080           
   23711 A    5928 TIP4 H2   HW0      0.679100        1.0080           
   23712 A    5928 TIP4 BD1  LP0     -1.358200        0.0000           
   23713 A    5929 TIP4 O1   OW0      0.000000       15.9990           
   23714 A    5929 TIP4 H1   HW0      0.679100        1.0080           
   23715 A    5929 TIP4 H2   HW0      0.679100        1.0080           
   23716 A    5929 TIP4 BD1  LP0     -1.358200        0.0000           
   23717 A    5930 TIP4 O1   OW0      0.000000       15.9990           
   23718 A    5930 TIP4 H1   HW0      0.679100        1.0080           
   23719 A    5930 TIP4 H2   HW0      0.679100        1.0080           
   23720 A    5930 TIP4 BD1  LP0     -1.358200        0.0000           
   23721 A    5931 TIP4 O1   OW0      0.000000       15.9990           
   23722 A    5931 TIP4 H1   HW0      0.679100        1.0080           
   23723 A    5931 TIP4 H2   HW0      0.679100        1.0080           
   23724 A    5931 TIP4 BD1  LP0     -1.358200        0.0000           
   23725 A    5932 TIP4 O1   OW0      0.000000       15.9990           
   23726 A    5932 TIP4 H1   HW0      0.679100        1.0080           
   23727 A    5932 TIP4 H2   HW0      0.679100        1.0080           
   23728 A    5932 TIP4 BD1  LP0     -1.358200        0.0000           
   23729 A    5933 TIP4 O1   OW0      0.000000       15.9990           
   23730 A    5933 TIP4 H1   HW0      0.679100        1.0080           
   23731 A    5933 TIP4 H2   HW0      0.679100        1.0080           
   23732 A    5933 TIP4 BD1  LP0     -1.358200        0.0000           
   23733 A    5934 TIP4 O1   OW0      0.000000       15.9990           
   23734 A    5934 TIP4 H1   HW0      0.679100        1.0080           
   23735 A    5934 TIP4 H2   HW0      0.679100        1.0080           
   23736 A    5934 TIP4 BD1  LP0     -1.358200        0.0000           
   23737 A    5935 TIP4 O1   OW0      0.000000       15.9990           
   23738 A    5935 TIP4 H1   HW0      0.679100        1.0080           
   23739 A    5935 TIP4 H2   HW0      0.679100        1.0080           
   23740 A    5935 TIP4 BD1  LP0     -1.358200        0.0000           
   23741 A    5936 TIP4 O1   OW0      0.000000       15.9990           
   23742 A    5936 TIP4 H1   HW0      0.679100        1.0080           
   23743 A    5936 TIP4 H2   HW0      0.679100        1.0080           
   23744 A    5936 TIP4 BD1  LP0     -1.358200        0.0000           
   23745 A    5937 TIP4 O1   OW0      0.000000       15.9990           
   23746 A    5937 TIP4 H1   HW0      0.679100        1.0080           
   23747 A    5937 TIP4 H2   HW0      0.679100        1.0080           
   23748 A    5937 TIP4 BD1  LP0     -1.358200        0.0000           
   23749 A    5938 TIP4 O1   OW0      0.000000       15.9990           
   23750 A    5938 TIP4 H1   HW0      0.679100        1.0080           
   23751 A    5938 TIP4 H2   HW0      0.679100        1.0080           
   23752 A    5938 TIP4 BD1  LP0     -1.358200        0.0000           
   23753 A    5939 TIP4 O1   OW0      0.000000       15.9990           
   23754 A    5939 TIP4 H1   HW0      0.679100        1.0080           
   23755 A    5939 TIP4 H2   HW0      0.679100        1.0080           
   23756 A    5939 TIP4 BD1  LP0     -1.358200        0.0000           
   23757 A    5940 TIP4 O1   OW0      0.000000       15.9990           
   23758 A    5940 TIP4 H1   HW0      0.679100        1.0080           
   23759 A    5940 TIP4 H2   HW0      0.679100        1.0080           
   23760 A    5940 TIP4 BD1  LP0     -1.358200        0.0000           
   23761 A    5941 TIP4 O1   OW0      0.000000       15.9990           
   23762 A    5941 TIP4 H1   HW0      0.679100        1.0080           
   23763 A    5941 TIP4 H2   HW0      0.679100        1.0080           
   23764 A    5941 TIP4 BD1  LP0     -1.358200        0.0000           
   23765 A    5942 TIP4 O1   OW0      0.000000       15.9990           
   23766 A    5942 TIP4 H1   HW0      0.679100        1.0080           
   23767 A    5942 TIP4 H2   HW0      0.679100        1.0080           
   23768 A    5942 TIP4 BD1  LP0     -1.358200        0.0000           
   23769 A    5943 TIP4 O1   OW0      0.000000       15.9990           
   23770 A    5943 TIP4 H1   HW0      0.679100        1.0080           
   23771 A    5943 TIP4 H2   HW0      0.679100        1.0080           
   23772 A    5943 TIP4 BD1  LP0     -1.358200        0.0000           
   23773 A    5944 TIP4 O1   OW0      0.000000       15.9990           
   23774 A    5944 TIP4 H1   HW0      0.679100        1.0080           
   23775 A    5944 TIP4 H2   HW0      0.679100        1.0080           
   23776 A    5944 TIP4 BD1  LP0     -1.358200        0.0000           
   23777 A    5945 TIP4 O1   OW0      0.000000       15.9990           
   23778 A    5945 TIP4 H1   HW0      0.679100        1.0080           
   23779 A    5945 TIP4 H2   HW0      0.679100        1.0080           
   23780 A    5945 TIP4 BD1  LP0     -1.358200        0.0000           
   23781 A    5946 TIP4 O1   OW0      0.000000       15.9990           
   23782 A    5946 TIP4 H1   HW0      0.679100        1.0080           
   23783 A    5946 TIP4 H2   HW0      0.679100        1.0080           
   23784 A    5946 TIP4 BD1  LP0     -1.358200        0.0000           
   23785 A    5947 TIP4 O1   OW0      0.000000       15.9990           
   23786 A    5947 TIP4 H1   HW0      0.679100        1.0080           
   23787 A    5947 TIP4 H2   HW0      0.679100        1.0080           
   23788 A    5947 TIP4 BD1  LP0     -1.358200        0.0000           
   23789 A    5948 TIP4 O1   OW0      0.000000       15.9990           
   23790 A    5948 TIP4 H1   HW0      0.679100        1.0080           
   23791 A    5948 TIP4 H2   HW0      0.679100        1.0080           
   23792 A    5948 TIP4 BD1  LP0     -1.358200        0.0000           
   23793 A    5949 TIP4 O1   OW0      0.000000       15.9990           
   23794 A    5949 TIP4 H1   HW0      0.679100        1.0080           
   23795 A    5949 TIP4 H2   HW0      0.679100        1.0080           
   23796 A    5949 TIP4 BD1  LP0     -1.358200        0.0000           
   23797 A    5950 TIP4 O1   OW0      0.000000       15.9990           
   23798 A    5950 TIP4 H1   HW0      0.679100        1.0080           
   23799 A    5950 TIP4 H2   HW0      0.679100        1.0080           
   23800 A    5950 TIP4 BD1  LP0     -1.358200        0.0000           
   23801 A    5951 TIP4 O1   OW0      0.000000       15.9990           
   23802 A    5951 TIP4 H1   HW0      0.679100        1.0080           
   23803 A    5951 TIP4 H2   HW0      0.679100        1.0080           
   23804 A    5951 TIP4 BD1  LP0     -1.358200        0.0000           
   23805 A    5952 TIP4 O1   OW0      0.000000       15.9990           
   23806 A    5952 TIP4 H1   HW0      0.679100        1.0080           
   23807 A    5952 TIP4 H2   HW0      0.679100        1.0080           
   23808 A    5952 TIP4 BD1  LP0     -1.358200        0.0000           
   23809 A    5953 TIP4 O1   OW0      0.000000       15.9990           
   23810 A    5953 TIP4 H1   HW0      0.679100        1.0080           
   23811 A    5953 TIP4 H2   HW0      0.679100        1.0080           
   23812 A    5953 TIP4 BD1  LP0     -1.358200        0.0000           
   23813 A    5954 TIP4 O1   OW0      0.000000       15.9990           
   23814 A    5954 TIP4 H1   HW0      0.679100        1.0080           
   23815 A    5954 TIP4 H2   HW0      0.679100        1.0080           
   23816 A    5954 TIP4 BD1  LP0     -1.358200        0.0000           
   23817 A    5955 TIP4 O1   OW0      0.000000       15.9990           
   23818 A    5955 TIP4 H1   HW0      0.679100        1.0080           
   23819 A    5955 TIP4 H2   HW0      0.679100        1.0080           
   23820 A    5955 TIP4 BD1  LP0     -1.358200        0.0000           
   23821 A    5956 TIP4 O1   OW0      0.000000       15.9990           
   23822 A    5956 TIP4 H1   HW0      0.679100        1.0080           
   23823 A    5956 TIP4 H2   HW0      0.679100        1.0080           
   23824 A    5956 TIP4 BD1  LP0     -1.358200        0.0000           
   23825 A    5957 TIP4 O1   OW0      0.000000       15.9990           
   23826 A    5957 TIP4 H1   HW0      0.679100        1.0080           
   23827 A    5957 TIP4 H2   HW0      0.679100        1.0080           
   23828 A    5957 TIP4 BD1  LP0     -1.358200        0.0000           
   23829 A    5958 TIP4 O1   OW0      0.000000       15.9990           
   23830 A    5958 TIP4 H1   HW0      0.679100        1.0080           
   23831 A    5958 TIP4 H2   HW0      0.679100        1.0080           
   23832 A    5958 TIP4 BD1  LP0     -1.358200        0.0000           
   23833 A    5959 TIP4 O1   OW0      0.000000       15.9990           
   23834 A    5959 TIP4 H1   HW0      0.679100        1.0080           
   23835 A    5959 TIP4 H2   HW0      0.679100        1.0080           
   23836 A    5959 TIP4 BD1  LP0     -1.358200        0.0000           
   23837 A    5960 TIP4 O1   OW0      0.000000       15.9990           
   23838 A    5960 TIP4 H1   HW0      0.679100        1.0080           
   23839 A    5960 TIP4 H2   HW0      0.679100        1.0080           
   23840 A    5960 TIP4 BD1  LP0     -1.358200        0.0000           
   23841 A    5961 TIP4 O1   OW0      0.000000       15.9990           
   23842 A    5961 TIP4 H1   HW0      0.679100        1.0080           
   23843 A    5961 TIP4 H2   HW0      0.679100        1.0080           
   23844 A    5961 TIP4 BD1  LP0     -1.358200        0.0000           
   23845 A    5962 TIP4 O1   OW0      0.000000       15.9990           
   23846 A    5962 TIP4 H1   HW0      0.679100        1.0080           
   23847 A    5962 TIP4 H2   HW0      0.679100        1.0080           
   23848 A    5962 TIP4 BD1  LP0     -1.358200        0.0000           
   23849 A    5963 TIP4 O1   OW0      0.000000       15.9990           
   23850 A    5963 TIP4 H1   HW0      0.679100        1.0080           
   23851 A    5963 TIP4 H2   HW0      0.679100        1.0080           
   23852 A    5963 TIP4 BD1  LP0     -1.358200        0.0000           
   23853 A    5964 TIP4 O1   OW0      0.000000       15.9990           
   23854 A    5964 TIP4 H1   HW0      0.679100        1.0080           
   23855 A    5964 TIP4 H2   HW0      0.679100        1.0080           
   23856 A    5964 TIP4 BD1  LP0     -1.358200        0.0000           
   23857 A    5965 TIP4 O1   OW0      0.000000       15.9990           
   23858 A    5965 TIP4 H1   HW0      0.679100        1.0080           
   23859 A    5965 TIP4 H2   HW0      0.679100        1.0080           
   23860 A    5965 TIP4 BD1  LP0     -1.358200        0.0000           
   23861 A    5966 TIP4 O1   OW0      0.000000       15.9990           
   23862 A    5966 TIP4 H1   HW0      0.679100        1.0080           
   23863 A    5966 TIP4 H2   HW0      0.679100        1.0080           
   23864 A    5966 TIP4 BD1  LP0     -1.358200        0.0000           
   23865 A    5967 TIP4 O1   OW0      0.000000       15.9990           
   23866 A    5967 TIP4 H1   HW0      0.679100        1.0080           
   23867 A    5967 TIP4 H2   HW0      0.679100        1.0080           
   23868 A    5967 TIP4 BD1  LP0     -1.358200        0.0000           
   23869 A    5968 TIP4 O1   OW0      0.000000       15.9990           
   23870 A    5968 TIP4 H1   HW0      0.679100        1.0080           
   23871 A    5968 TIP4 H2   HW0      0.679100        1.0080           
   23872 A    5968 TIP4 BD1  LP0     -1.358200        0.0000           
   23873 A    5969 TIP4 O1   OW0      0.000000       15.9990           
   23874 A    5969 TIP4 H1   HW0      0.679100        1.0080           
   23875 A    5969 TIP4 H2   HW0      0.679100        1.0080           
   23876 A    5969 TIP4 BD1  LP0     -1.358200        0.0000           
   23877 A    5970 TIP4 O1   OW0      0.000000       15.9990           
   23878 A    5970 TIP4 H1   HW0      0.679100        1.0080           
   23879 A    5970 TIP4 H2   HW0      0.679100        1.0080           
   23880 A    5970 TIP4 BD1  LP0     -1.358200        0.0000           
   23881 A    5971 TIP4 O1   OW0      0.000000       15.9990           
   23882 A    5971 TIP4 H1   HW0      0.679100        1.0080           
   23883 A    5971 TIP4 H2   HW0      0.679100        1.0080           
   23884 A    5971 TIP4 BD1  LP0     -1.358200        0.0000           
   23885 A    5972 TIP4 O1   OW0      0.000000       15.9990           
   23886 A    5972 TIP4 H1   HW0      0.679100        1.0080           
   23887 A    5972 TIP4 H2   HW0      0.679100        1.0080           
   23888 A    5972 TIP4 BD1  LP0     -1.358200        0.0000           
   23889 A    5973 TIP4 O1   OW0      0.000000       15.9990           
   23890 A    5973 TIP4 H1   HW0      0.679100        1.0080           
   23891 A    5973 TIP4 H2   HW0      0.679100        1.0080           
   23892 A    5973 TIP4 BD1  LP0     -1.358200        0.0000           
   23893 A    5974 TIP4 O1   OW0      0.000000       15.9990           
   23894 A    5974 TIP4 H1   HW0      0.679100        1.0080           
   23895 A    5974 TIP4 H2   HW0      0.679100        1.0080           
   23896 A    5974 TIP4 BD1  LP0     -1.358200        0.0000           
   23897 A    5975 TIP4 O1   OW0      0.000000       15.9990           
   23898 A    5975 TIP4 H1   HW0      0.679100        1.0080           
   23899 A    5975 TIP4 H2   HW0      0.679100        1.0080           
   23900 A    5975 TIP4 BD1  LP0     -1.358200        0.0000           
   23901 A    5976 TIP4 O1   OW0      0.000000       15.9990           
   23902 A    5976 TIP4 H1   HW0      0.679100        1.0080           
   23903 A    5976 TIP4 H2   HW0      0.679100        1.0080           
   23904 A    5976 TIP4 BD1  LP0     -1.358200        0.0000           
   23905 A    5977 TIP4 O1   OW0      0.000000       15.9990           
   23906 A    5977 TIP4 H1   HW0      0.679100        1.0080           
   23907 A    5977 TIP4 H2   HW0      0.679100        1.0080           
   23908 A    5977 TIP4 BD1  LP0     -1.358200        0.0000           
   23909 A    5978 TIP4 O1   OW0      0.000000       15.9990           
   23910 A    5978 TIP4 H1   HW0      0.679100        1.0080           
   23911 A    5978 TIP4 H2   HW0      0.679100        1.0080           
   23912 A    5978 TIP4 BD1  LP0     -1.358200        0.0000           
   23913 A    5979 TIP4 O1   OW0      0.000000       15.9990           
   23914 A    5979 TIP4 H1   HW0      0.679100        1.0080           
   23915 A    5979 TIP4 H2   HW0      0.679100        1.0080           
   23916 A    5979 TIP4 BD1  LP0     -1.358200        0.0000           
   23917 A    5980 TIP4 O1   OW0      0.000000       15.9990           
   23918 A    5980 TIP4 H1   HW0      0.679100        1.0080           
   23919 A    5980 TIP4 H2   HW0      0.679100        1.0080           
   23920 A    5980 TIP4 BD1  LP0     -1.358200        0.0000           
   23921 A    5981 TIP4 O1   OW0      0.000000       15.9990           
   23922 A    5981 TIP4 H1   HW0      0.679100        1.0080           
   23923 A    5981 TIP4 H2   HW0      0.679100        1.0080           
   23924 A    5981 TIP4 BD1  LP0     -1.358200        0.0000           
   23925 A    5982 TIP4 O1   OW0      0.000000       15.9990           
   23926 A    5982 TIP4 H1   HW0      0.679100        1.0080           
   23927 A    5982 TIP4 H2   HW0      0.679100        1.0080           
   23928 A    5982 TIP4 BD1  LP0     -1.358200        0.0000           
   23929 A    5983 TIP4 O1   OW0      0.000000       15.9990           
   23930 A    5983 TIP4 H1   HW0      0.679100        1.0080           
   23931 A    5983 TIP4 H2   HW0      0.679100        1.0080           
   23932 A    5983 TIP4 BD1  LP0     -1.358200        0.0000           
   23933 A    5984 TIP4 O1   OW0      0.000000       15.9990           
   23934 A    5984 TIP4 H1   HW0      0.679100        1.0080           
   23935 A    5984 TIP4 H2   HW0      0.679100        1.0080           
   23936 A    5984 TIP4 BD1  LP0     -1.358200        0.0000           
   23937 A    5985 TIP4 O1   OW0      0.000000       15.9990           
   23938 A    5985 TIP4 H1   HW0      0.679100        1.0080           
   23939 A    5985 TIP4 H2   HW0      0.679100        1.0080           
   23940 A    5985 TIP4 BD1  LP0     -1.358200        0.0000           
   23941 A    5986 TIP4 O1   OW0      0.000000       15.9990           
   23942 A    5986 TIP4 H1   HW0      0.679100        1.0080           
   23943 A    5986 TIP4 H2   HW0      0.679100        1.0080           
   23944 A    5986 TIP4 BD1  LP0     -1.358200        0.0000           
   23945 A    5987 TIP4 O1   OW0      0.000000       15.9990           
   23946 A    5987 TIP4 H1   HW0      0.679100        1.0080           
   23947 A    5987 TIP4 H2   HW0      0.679100        1.0080           
   23948 A    5987 TIP4 BD1  LP0     -1.358200        0.0000           
   23949 A    5988 TIP4 O1   OW0      0.000000       15.9990           
   23950 A    5988 TIP4 H1   HW0      0.679100        1.0080           
   23951 A    5988 TIP4 H2   HW0      0.679100        1.0080           
   23952 A    5988 TIP4 BD1  LP0     -1.358200        0.0000           
   23953 A    5989 TIP4 O1   OW0      0.000000       15.9990           
   23954 A    5989 TIP4 H1   HW0      0.679100        1.0080           
   23955 A    5989 TIP4 H2   HW0      0.679100        1.0080           
   23956 A    5989 TIP4 BD1  LP0     -1.358200        0.0000           
   23957 A    5990 TIP4 O1   OW0      0.000000       15.9990           
   23958 A    5990 TIP4 H1   HW0      0.679100        1.0080           
   23959 A    5990 TIP4 H2   HW0      0.679100        1.0080           
   23960 A    5990 TIP4 BD1  LP0     -1.358200        0.0000           
   23961 A    5991 TIP4 O1   OW0      0.000000       15.9990           
   23962 A    5991 TIP4 H1   HW0      0.679100        1.0080           
   23963 A    5991 TIP4 H2   HW0      0.679100        1.0080           
   23964 A    5991 TIP4 BD1  LP0     -1.358200        0.0000           
   23965 A    5992 TIP4 O1   OW0      0.000000       15.9990           
   23966 A    5992 TIP4 H1   HW0      0.679100        1.0080           
   23967 A    5992 TIP4 H2   HW0      0.679100        1.0080           
   23968 A    5992 TIP4 BD1  LP0     -1.358200        0.0000           
   23969 A    5993 TIP4 O1   OW0      0.000000       15.9990           
   23970 A    5993 TIP4 H1   HW0      0.679100        1.0080           
   23971 A    5993 TIP4 H2   HW0      0.679100        1.0080           
   23972 A    5993 TIP4 BD1  LP0     -1.358200        0.0000           
   23973 A    5994 TIP4 O1   OW0      0.000000       15.9990           
   23974 A    5994 TIP4 H1   HW0      0.679100        1.0080           
   23975 A    5994 TIP4 H2   HW0      0.679100        1.0080           
   23976 A    5994 TIP4 BD1  LP0     -1.358200        0.0000           
   23977 A    5995 TIP4 O1   OW0      0.000000       15.9990           
   23978 A    5995 TIP4 H1   HW0      0.679100        1.0080           
   23979 A    5995 TIP4 H2   HW0      0.679100        1.0080           
   23980 A    5995 TIP4 BD1  LP0     -1.358200        0.0000           
   23981 A    5996 TIP4 O1   OW0      0.000000       15.9990           
   23982 A    5996 TIP4 H1   HW0      0.679100        1.0080           
   23983 A    5996 TIP4 H2   HW0      0.679100        1.0080           
   23984 A    5996 TIP4 BD1  LP0     -1.358200        0.0000           
   23985 A    5997 TIP4 O1   OW0      0.000000       15.9990           
   23986 A    5997 TIP4 H1   HW0      0.679100        1.0080           
   23987 A    5997 TIP4 H2   HW0      0.679100        1.0080           
   23988 A    5997 TIP4 BD1  LP0     -1.358200        0.0000           
   23989 A    5998 TIP4 O1   OW0      0.000000       15.9990           
   23990 A    5998 TIP4 H1   HW0      0.679100        1.0080           
   23991 A    5998 TIP4 H2   HW0      0.679100        1.0080           
   23992 A    5998 TIP4 BD1  LP0     -1.358200        0.0000           
   23993 A    5999 TIP4 O1   OW0      0.000000       15.9990           
   23994 A    5999 TIP4 H1   HW0      0.679100        1.0080           
   23995 A    5999 TIP4 H2   HW0      0.679100        1.0080           
   23996 A    5999 TIP4 BD1  LP0     -1.358200        0.0000           
   23997 A    6000 TIP4 O1   OW0      0.000000       15.9990           
   23998 A    6000 TIP4 H1   HW0      0.679100        1.0080           
   23999 A    6000 TIP4 H2   HW0      0.679100        1.0080           
   24000 A    6000 TIP4 BD1  LP0     -1.358200        0.0000           
   24001 A    6001 TIP4 O1   OW0      0.000000       15.9990           
   24002 A    6001 TIP4 H1   HW0      0.679100        1.0080           
   24003 A    6001 TIP4 H2   HW0      0.679100        1.0080           
   24004 A    6001 TIP4 BD1  LP0     -1.358200        0.0000           
   24005 A    6002 TIP4 O1   OW0      0.000000       15.9990           
   24006 A    6002 TIP4 H1   HW0      0.679100        1.0080           
   24007 A    6002 TIP4 H2   HW0      0.679100        1.0080           
   24008 A    6002 TIP4 BD1  LP0     -1.358200        0.0000           
   24009 A    6003 TIP4 O1   OW0      0.000000       15.9990           
   24010 A    6003 TIP4 H1   HW0      0.679100        1.0080           
   24011 A    6003 TIP4 H2   HW0      0.679100        1.0080           
   24012 A    6003 TIP4 BD1  LP0     -1.358200        0.0000           
   24013 A    6004 TIP4 O1   OW0      0.000000       15.9990           
   24014 A    6004 TIP4 H1   HW0      0.679100        1.0080           
   24015 A    6004 TIP4 H2   HW0      0.679100        1.0080           
   24016 A    6004 TIP4 BD1  LP0     -1.358200        0.0000           
   24017 A    6005 TIP4 O1   OW0      0.000000       15.9990           
   24018 A    6005 TIP4 H1   HW0      0.679100        1.0080           
   24019 A    6005 TIP4 H2   HW0      0.679100        1.0080           
   24020 A    6005 TIP4 BD1  LP0     -1.358200        0.0000           
   24021 A    6006 TIP4 O1   OW0      0.000000       15.9990           
   24022 A    6006 TIP4 H1   HW0      0.679100        1.0080           
   24023 A    6006 TIP4 H2   HW0      0.679100        1.0080           
   24024 A    6006 TIP4 BD1  LP0     -1.358200        0.0000           
   24025 A    6007 TIP4 O1   OW0      0.000000       15.9990           
   24026 A    6007 TIP4 H1   HW0      0.679100        1.0080           
   24027 A    6007 TIP4 H2   HW0      0.679100        1.0080           
   24028 A    6007 TIP4 BD1  LP0     -1.358200        0.0000           
   24029 A    6008 TIP4 O1   OW0      0.000000       15.9990           
   24030 A    6008 TIP4 H1   HW0      0.679100        1.0080           
   24031 A    6008 TIP4 H2   HW0      0.679100        1.0080           
   24032 A    6008 TIP4 BD1  LP0     -1.358200        0.0000           
   24033 A    6009 TIP4 O1   OW0      0.000000       15.9990           
   24034 A    6009 TIP4 H1   HW0      0.679100        1.0080           
   24035 A    6009 TIP4 H2   HW0      0.679100        1.0080           
   24036 A    6009 TIP4 BD1  LP0     -1.358200        0.0000           
   24037 A    6010 TIP4 O1   OW0      0.000000       15.9990           
   24038 A    6010 TIP4 H1   HW0      0.679100        1.0080           
   24039 A    6010 TIP4 H2   HW0      0.679100        1.0080           
   24040 A    6010 TIP4 BD1  LP0     -1.358200        0.0000           
   24041 A    6011 TIP4 O1   OW0      0.000000       15.9990           
   24042 A    6011 TIP4 H1   HW0      0.679100        1.0080           
   24043 A    6011 TIP4 H2   HW0      0.679100        1.0080           
   24044 A    6011 TIP4 BD1  LP0     -1.358200        0.0000           
   24045 A    6012 TIP4 O1   OW0      0.000000       15.9990           
   24046 A    6012 TIP4 H1   HW0      0.679100        1.0080           
   24047 A    6012 TIP4 H2   HW0      0.679100        1.0080           
   24048 A    6012 TIP4 BD1  LP0     -1.358200        0.0000           
   24049 A    6013 TIP4 O1   OW0      0.000000       15.9990           
   24050 A    6013 TIP4 H1   HW0      0.679100        1.0080           
   24051 A    6013 TIP4 H2   HW0      0.679100        1.0080           
   24052 A    6013 TIP4 BD1  LP0     -1.358200        0.0000           
   24053 A    6014 TIP4 O1   OW0      0.000000       15.9990           
   24054 A    6014 TIP4 H1   HW0      0.679100        1.0080           
   24055 A    6014 TIP4 H2   HW0      0.679100        1.0080           
   24056 A    6014 TIP4 BD1  LP0     -1.358200        0.0000           
   24057 A    6015 TIP4 O1   OW0      0.000000       15.9990           
   24058 A    6015 TIP4 H1   HW0      0.679100        1.0080           
   24059 A    6015 TIP4 H2   HW0      0.679100        1.0080           
   24060 A    6015 TIP4 BD1  LP0     -1.358200        0.0000           
   24061 A    6016 TIP4 O1   OW0      0.000000       15.9990           
   24062 A    6016 TIP4 H1   HW0      0.679100        1.0080           
   24063 A    6016 TIP4 H2   HW0      0.679100        1.0080           
   24064 A    6016 TIP4 BD1  LP0     -1.358200        0.0000           
   24065 A    6017 TIP4 O1   OW0      0.000000       15.9990           
   24066 A    6017 TIP4 H1   HW0      0.679100        1.0080           
   24067 A    6017 TIP4 H2   HW0      0.679100        1.0080           
   24068 A    6017 TIP4 BD1  LP0     -1.358200        0.0000           
   24069 A    6018 TIP4 O1   OW0      0.000000       15.9990           
   24070 A    6018 TIP4 H1   HW0      0.679100        1.0080           
   24071 A    6018 TIP4 H2   HW0      0.679100        1.0080           
   24072 A    6018 TIP4 BD1  LP0     -1.358200        0.0000           
   24073 A    6019 TIP4 O1   OW0      0.000000       15.9990           
   24074 A    6019 TIP4 H1   HW0      0.679100        1.0080           
   24075 A    6019 TIP4 H2   HW0      0.679100        1.0080           
   24076 A    6019 TIP4 BD1  LP0     -1.358200        0.0000           
   24077 A    6020 TIP4 O1   OW0      0.000000       15.9990           
   24078 A    6020 TIP4 H1   HW0      0.679100        1.0080           
   24079 A    6020 TIP4 H2   HW0      0.679100        1.0080           
   24080 A    6020 TIP4 BD1  LP0     -1.358200        0.0000           
   24081 A    6021 TIP4 O1   OW0      0.000000       15.9990           
   24082 A    6021 TIP4 H1   HW0      0.679100        1.0080           
   24083 A    6021 TIP4 H2   HW0      0.679100        1.0080           
   24084 A    6021 TIP4 BD1  LP0     -1.358200        0.0000           
   24085 A    6022 TIP4 O1   OW0      0.000000       15.9990           
   24086 A    6022 TIP4 H1   HW0      0.679100        1.0080           
   24087 A    6022 TIP4 H2   HW0      0.679100        1.0080           
   24088 A    6022 TIP4 BD1  LP0     -1.358200        0.0000           
   24089 A    6023 TIP4 O1   OW0      0.000000       15.9990           
   24090 A    6023 TIP4 H1   HW0      0.679100        1.0080           
   24091 A    6023 TIP4 H2   HW0      0.679100        1.0080           
   24092 A    6023 TIP4 BD1  LP0     -1.358200        0.0000           
   24093 A    6024 TIP4 O1   OW0      0.000000       15.9990           
   24094 A    6024 TIP4 H1   HW0      0.679100        1.0080           
   24095 A    6024 TIP4 H2   HW0      0.679100        1.0080           
   24096 A    6024 TIP4 BD1  LP0     -1.358200        0.0000           
   24097 A    6025 TIP4 O1   OW0      0.000000       15.9990           
   24098 A    6025 TIP4 H1   HW0      0.679100        1.0080           
   24099 A    6025 TIP4 H2   HW0      0.679100        1.0080           
   24100 A    6025 TIP4 BD1  LP0     -1.358200        0.0000           
   24101 A    6026 TIP4 O1   OW0      0.000000       15.9990           
   24102 A    6026 TIP4 H1   HW0      0.679100        1.0080           
   24103 A    6026 TIP4 H2   HW0      0.679100        1.0080           
   24104 A    6026 TIP4 BD1  LP0     -1.358200        0.0000           
   24105 A    6027 TIP4 O1   OW0      0.000000       15.9990           
   24106 A    6027 TIP4 H1   HW0      0.679100        1.0080           
   24107 A    6027 TIP4 H2   HW0      0.679100        1.0080           
   24108 A    6027 TIP4 BD1  LP0     -1.358200        0.0000           
   24109 A    6028 TIP4 O1   OW0      0.000000       15.9990           
   24110 A    6028 TIP4 H1   HW0      0.679100        1.0080           
   24111 A    6028 TIP4 H2   HW0      0.679100        1.0080           
   24112 A    6028 TIP4 BD1  LP0     -1.358200        0.0000           
   24113 A    6029 TIP4 O1   OW0      0.000000       15.9990           
   24114 A    6029 TIP4 H1   HW0      0.679100        1.0080           
   24115 A    6029 TIP4 H2   HW0      0.679100        1.0080           
   24116 A    6029 TIP4 BD1  LP0     -1.358200        0.0000           
   24117 A    6030 TIP4 O1   OW0      0.000000       15.9990           
   24118 A    6030 TIP4 H1   HW0      0.679100        1.0080           
   24119 A    6030 TIP4 H2   HW0      0.679100        1.0080           
   24120 A    6030 TIP4 BD1  LP0     -1.358200        0.0000           
   24121 A    6031 TIP4 O1   OW0      0.000000       15.9990           
   24122 A    6031 TIP4 H1   HW0      0.679100        1.0080           
   24123 A    6031 TIP4 H2   HW0      0.679100        1.0080           
   24124 A    6031 TIP4 BD1  LP0     -1.358200        0.0000           
   24125 A    6032 TIP4 O1   OW0      0.000000       15.9990           
   24126 A    6032 TIP4 H1   HW0      0.679100        1.0080           
   24127 A    6032 TIP4 H2   HW0      0.679100        1.0080           
   24128 A    6032 TIP4 BD1  LP0     -1.358200        0.0000           
   24129 A    6033 TIP4 O1   OW0      0.000000       15.9990           
   24130 A    6033 TIP4 H1   HW0      0.679100        1.0080           
   24131 A    6033 TIP4 H2   HW0      0.679100        1.0080           
   24132 A    6033 TIP4 BD1  LP0     -1.358200        0.0000           
   24133 A    6034 TIP4 O1   OW0      0.000000       15.9990           
   24134 A    6034 TIP4 H1   HW0      0.679100        1.0080           
   24135 A    6034 TIP4 H2   HW0      0.679100        1.0080           
   24136 A    6034 TIP4 BD1  LP0     -1.358200        0.0000           
   24137 A    6035 TIP4 O1   OW0      0.000000       15.9990           
   24138 A    6035 TIP4 H1   HW0      0.679100        1.0080           
   24139 A    6035 TIP4 H2   HW0      0.679100        1.0080           
   24140 A    6035 TIP4 BD1  LP0     -1.358200        0.0000           
   24141 A    6036 TIP4 O1   OW0      0.000000       15.9990           
   24142 A    6036 TIP4 H1   HW0      0.679100        1.0080           
   24143 A    6036 TIP4 H2   HW0      0.679100        1.0080           
   24144 A    6036 TIP4 BD1  LP0     -1.358200        0.0000           
   24145 A    6037 TIP4 O1   OW0      0.000000       15.9990           
   24146 A    6037 TIP4 H1   HW0      0.679100        1.0080           
   24147 A    6037 TIP4 H2   HW0      0.679100        1.0080           
   24148 A    6037 TIP4 BD1  LP0     -1.358200        0.0000           
   24149 A    6038 TIP4 O1   OW0      0.000000       15.9990           
   24150 A    6038 TIP4 H1   HW0      0.679100        1.0080           
   24151 A    6038 TIP4 H2   HW0      0.679100        1.0080           
   24152 A    6038 TIP4 BD1  LP0     -1.358200        0.0000           
   24153 A    6039 TIP4 O1   OW0      0.000000       15.9990           
   24154 A    6039 TIP4 H1   HW0      0.679100        1.0080           
   24155 A    6039 TIP4 H2   HW0      0.679100        1.0080           
   24156 A    6039 TIP4 BD1  LP0     -1.358200        0.0000           
   24157 A    6040 TIP4 O1   OW0      0.000000       15.9990           
   24158 A    6040 TIP4 H1   HW0      0.679100        1.0080           
   24159 A    6040 TIP4 H2   HW0      0.679100        1.0080           
   24160 A    6040 TIP4 BD1  LP0     -1.358200        0.0000           
   24161 A    6041 TIP4 O1   OW0      0.000000       15.9990           
   24162 A    6041 TIP4 H1   HW0      0.679100        1.0080           
   24163 A    6041 TIP4 H2   HW0      0.679100        1.0080           
   24164 A    6041 TIP4 BD1  LP0     -1.358200        0.0000           
   24165 A    6042 TIP4 O1   OW0      0.000000       15.9990           
   24166 A    6042 TIP4 H1   HW0      0.679100        1.0080           
   24167 A    6042 TIP4 H2   HW0      0.679100        1.0080           
   24168 A    6042 TIP4 BD1  LP0     -1.358200        0.0000           
   24169 A    6043 TIP4 O1   OW0      0.000000       15.9990           
   24170 A    6043 TIP4 H1   HW0      0.679100        1.0080           
   24171 A    6043 TIP4 H2   HW0      0.679100        1.0080           
   24172 A    6043 TIP4 BD1  LP0     -1.358200        0.0000           
   24173 A    6044 TIP4 O1   OW0      0.000000       15.9990           
   24174 A    6044 TIP4 H1   HW0      0.679100        1.0080           
   24175 A    6044 TIP4 H2   HW0      0.679100        1.0080           
   24176 A    6044 TIP4 BD1  LP0     -1.358200        0.0000           
   24177 A    6045 TIP4 O1   OW0      0.000000       15.9990           
   24178 A    6045 TIP4 H1   HW0      0.679100        1.0080           
   24179 A    6045 TIP4 H2   HW0      0.679100        1.0080           
   24180 A    6045 TIP4 BD1  LP0     -1.358200        0.0000           
   24181 A    6046 TIP4 O1   OW0      0.000000       15.9990           
   24182 A    6046 TIP4 H1   HW0      0.679100        1.0080           
   24183 A    6046 TIP4 H2   HW0      0.679100        1.0080           
   24184 A    6046 TIP4 BD1  LP0     -1.358200        0.0000           
   24185 A    6047 TIP4 O1   OW0      0.000000       15.9990           
   24186 A    6047 TIP4 H1   HW0      0.679100        1.0080           
   24187 A    6047 TIP4 H2   HW0      0.679100        1.0080           
   24188 A    6047 TIP4 BD1  LP0     -1.358200        0.0000           
   24189 A    6048 TIP4 O1   OW0      0.000000       15.9990           
   24190 A    6048 TIP4 H1   HW0      0.679100        1.0080           
   24191 A    6048 TIP4 H2   HW0      0.679100        1.0080           
   24192 A    6048 TIP4 BD1  LP0     -1.358200        0.0000           
   24193 A    6049 TIP4 O1   OW0      0.000000       15.9990           
   24194 A    6049 TIP4 H1   HW0      0.679100        1.0080           
   24195 A    6049 TIP4 H2   HW0      0.679100        1.0080           
   24196 A    6049 TIP4 BD1  LP0     -1.358200        0.0000           
   24197 A    6050 TIP4 O1   OW0      0.000000       15.9990           
   24198 A    6050 TIP4 H1   HW0      0.679100        1.0080           
   24199 A    6050 TIP4 H2   HW0      0.679100        1.0080           
   24200 A    6050 TIP4 BD1  LP0     -1.358200        0.0000           
   24201 A    6051 TIP4 O1   OW0      0.000000       15.9990           
   24202 A    6051 TIP4 H1   HW0      0.679100        1.0080           
   24203 A    6051 TIP4 H2   HW0      0.679100        1.0080           
   24204 A    6051 TIP4 BD1  LP0     -1.358200        0.0000           
   24205 A    6052 TIP4 O1   OW0      0.000000       15.9990           
   24206 A    6052 TIP4 H1   HW0      0.679100        1.0080           
   24207 A    6052 TIP4 H2   HW0      0.679100        1.0080           
   24208 A    6052 TIP4 BD1  LP0     -1.358200        0.0000           
   24209 A    6053 TIP4 O1   OW0      0.000000       15.9990           
   24210 A    6053 TIP4 H1   HW0      0.679100        1.0080           
   24211 A    6053 TIP4 H2   HW0      0.679100        1.0080           
   24212 A    6053 TIP4 BD1  LP0     -1.358200        0.0000           
   24213 A    6054 TIP4 O1   OW0      0.000000       15.9990           
   24214 A    6054 TIP4 H1   HW0      0.679100        1.0080           
   24215 A    6054 TIP4 H2   HW0      0.679100        1.0080           
   24216 A    6054 TIP4 BD1  LP0     -1.358200        0.0000           
   24217 A    6055 TIP4 O1   OW0      0.000000       15.9990           
   24218 A    6055 TIP4 H1   HW0      0.679100        1.0080           
   24219 A    6055 TIP4 H2   HW0      0.679100        1.0080           
   24220 A    6055 TIP4 BD1  LP0     -1.358200        0.0000           
   24221 A    6056 TIP4 O1   OW0      0.000000       15.9990           
   24222 A    6056 TIP4 H1   HW0      0.679100        1.0080           
   24223 A    6056 TIP4 H2   HW0      0.679100        1.0080           
   24224 A    6056 TIP4 BD1  LP0     -1.358200        0.0000           
   24225 A    6057 TIP4 O1   OW0      0.000000       15.9990           
   24226 A    6057 TIP4 H1   HW0      0.679100        1.0080           
   24227 A    6057 TIP4 H2   HW0      0.679100        1.0080           
   24228 A    6057 TIP4 BD1  LP0     -1.358200        0.0000           
   24229 A    6058 TIP4 O1   OW0      0.000000       15.9990           
   24230 A    6058 TIP4 H1   HW0      0.679100        1.0080           
   24231 A    6058 TIP4 H2   HW0      0.679100        1.0080           
   24232 A    6058 TIP4 BD1  LP0     -1.358200        0.0000           
   24233 A    6059 TIP4 O1   OW0      0.000000       15.9990           
   24234 A    6059 TIP4 H1   HW0      0.679100        1.0080           
   24235 A    6059 TIP4 H2   HW0      0.679100        1.0080           
   24236 A    6059 TIP4 BD1  LP0     -1.358200        0.0000           
   24237 A    6060 TIP4 O1   OW0      0.000000       15.9990           
   24238 A    6060 TIP4 H1   HW0      0.679100        1.0080           
   24239 A    6060 TIP4 H2   HW0      0.679100        1.0080           
   24240 A    6060 TIP4 BD1  LP0     -1.358200        0.0000           
   24241 A    6061 TIP4 O1   OW0      0.000000       15.9990           
   24242 A    6061 TIP4 H1   HW0      0.679100        1.0080           
   24243 A    6061 TIP4 H2   HW0      0.679100        1.0080           
   24244 A    6061 TIP4 BD1  LP0     -1.358200        0.0000           
   24245 A    6062 TIP4 O1   OW0      0.000000       15.9990           
   24246 A    6062 TIP4 H1   HW0      0.679100        1.0080           
   24247 A    6062 TIP4 H2   HW0      0.679100        1.0080           
   24248 A    6062 TIP4 BD1  LP0     -1.358200        0.0000           
   24249 A    6063 TIP4 O1   OW0      0.000000       15.9990           
   24250 A    6063 TIP4 H1   HW0      0.679100        1.0080           
   24251 A    6063 TIP4 H2   HW0      0.679100        1.0080           
   24252 A    6063 TIP4 BD1  LP0     -1.358200        0.0000           
   24253 A    6064 TIP4 O1   OW0      0.000000       15.9990           
   24254 A    6064 TIP4 H1   HW0      0.679100        1.0080           
   24255 A    6064 TIP4 H2   HW0      0.679100        1.0080           
   24256 A    6064 TIP4 BD1  LP0     -1.358200        0.0000           
   24257 A    6065 TIP4 O1   OW0      0.000000       15.9990           
   24258 A    6065 TIP4 H1   HW0      0.679100        1.0080           
   24259 A    6065 TIP4 H2   HW0      0.679100        1.0080           
   24260 A    6065 TIP4 BD1  LP0     -1.358200        0.0000           
   24261 A    6066 TIP4 O1   OW0      0.000000       15.9990           
   24262 A    6066 TIP4 H1   HW0      0.679100        1.0080           
   24263 A    6066 TIP4 H2   HW0      0.679100        1.0080           
   24264 A    6066 TIP4 BD1  LP0     -1.358200        0.0000           
   24265 A    6067 TIP4 O1   OW0      0.000000       15.9990           
   24266 A    6067 TIP4 H1   HW0      0.679100        1.0080           
   24267 A    6067 TIP4 H2   HW0      0.679100        1.0080           
   24268 A    6067 TIP4 BD1  LP0     -1.358200        0.0000           
   24269 A    6068 TIP4 O1   OW0      0.000000       15.9990           
   24270 A    6068 TIP4 H1   HW0      0.679100        1.0080           
   24271 A    6068 TIP4 H2   HW0      0.679100        1.0080           
   24272 A    6068 TIP4 BD1  LP0     -1.358200        0.0000           
   24273 A    6069 TIP4 O1   OW0      0.000000       15.9990           
   24274 A    6069 TIP4 H1   HW0      0.679100        1.0080           
   24275 A    6069 TIP4 H2   HW0      0.679100        1.0080           
   24276 A    6069 TIP4 BD1  LP0     -1.358200        0.0000           
   24277 A    6070 TIP4 O1   OW0      0.000000       15.9990           
   24278 A    6070 TIP4 H1   HW0      0.679100        1.0080           
   24279 A    6070 TIP4 H2   HW0      0.679100        1.0080           
   24280 A    6070 TIP4 BD1  LP0     -1.358200        0.0000           
   24281 A    6071 TIP4 O1   OW0      0.000000       15.9990           
   24282 A    6071 TIP4 H1   HW0      0.679100        1.0080           
   24283 A    6071 TIP4 H2   HW0      0.679100        1.0080           
   24284 A    6071 TIP4 BD1  LP0     -1.358200        0.0000           
   24285 A    6072 TIP4 O1   OW0      0.000000       15.9990           
   24286 A    6072 TIP4 H1   HW0      0.679100        1.0080           
   24287 A    6072 TIP4 H2   HW0      0.679100        1.0080           
   24288 A    6072 TIP4 BD1  LP0     -1.358200        0.0000           
   24289 A    6073 TIP4 O1   OW0      0.000000       15.9990           
   24290 A    6073 TIP4 H1   HW0      0.679100        1.0080           
   24291 A    6073 TIP4 H2   HW0      0.679100        1.0080           
   24292 A    6073 TIP4 BD1  LP0     -1.358200        0.0000           
   24293 A    6074 TIP4 O1   OW0      0.000000       15.9990           
   24294 A    6074 TIP4 H1   HW0      0.679100        1.0080           
   24295 A    6074 TIP4 H2   HW0      0.679100        1.0080           
   24296 A    6074 TIP4 BD1  LP0     -1.358200        0.0000           
   24297 A    6075 TIP4 O1   OW0      0.000000       15.9990           
   24298 A    6075 TIP4 H1   HW0      0.679100        1.0080           
   24299 A    6075 TIP4 H2   HW0      0.679100        1.0080           
   24300 A    6075 TIP4 BD1  LP0     -1.358200        0.0000           
   24301 A    6076 TIP4 O1   OW0      0.000000       15.9990           
   24302 A    6076 TIP4 H1   HW0      0.679100        1.0080           
   24303 A    6076 TIP4 H2   HW0      0.679100        1.0080           
   24304 A    6076 TIP4 BD1  LP0     -1.358200        0.0000           
   24305 A    6077 TIP4 O1   OW0      0.000000       15.9990           
   24306 A    6077 TIP4 H1   HW0      0.679100        1.0080           
   24307 A    6077 TIP4 H2   HW0      0.679100        1.0080           
   24308 A    6077 TIP4 BD1  LP0     -1.358200        0.0000           
   24309 A    6078 TIP4 O1   OW0      0.000000       15.9990           
   24310 A    6078 TIP4 H1   HW0      0.679100        1.0080           
   24311 A    6078 TIP4 H2   HW0      0.679100        1.0080           
   24312 A    6078 TIP4 BD1  LP0     -1.358200        0.0000           
   24313 A    6079 TIP4 O1   OW0      0.000000       15.9990           
   24314 A    6079 TIP4 H1   HW0      0.679100        1.0080           
   24315 A    6079 TIP4 H2   HW0      0.679100        1.0080           
   24316 A    6079 TIP4 BD1  LP0     -1.358200        0.0000           
   24317 A    6080 TIP4 O1   OW0      0.000000       15.9990           
   24318 A    6080 TIP4 H1   HW0      0.679100        1.0080           
   24319 A    6080 TIP4 H2   HW0      0.679100        1.0080           
   24320 A    6080 TIP4 BD1  LP0     -1.358200        0.0000           
   24321 A    6081 TIP4 O1   OW0      0.000000       15.9990           
   24322 A    6081 TIP4 H1   HW0      0.679100        1.0080           
   24323 A    6081 TIP4 H2   HW0      0.679100        1.0080           
   24324 A    6081 TIP4 BD1  LP0     -1.358200        0.0000           
   24325 A    6082 TIP4 O1   OW0      0.000000       15.9990           
   24326 A    6082 TIP4 H1   HW0      0.679100        1.0080           
   24327 A    6082 TIP4 H2   HW0      0.679100        1.0080           
   24328 A    6082 TIP4 BD1  LP0     -1.358200        0.0000           
   24329 A    6083 TIP4 O1   OW0      0.000000       15.9990           
   24330 A    6083 TIP4 H1   HW0      0.679100        1.0080           
   24331 A    6083 TIP4 H2   HW0      0.679100        1.0080           
   24332 A    6083 TIP4 BD1  LP0     -1.358200        0.0000           
   24333 A    6084 TIP4 O1   OW0      0.000000       15.9990           
   24334 A    6084 TIP4 H1   HW0      0.679100        1.0080           
   24335 A    6084 TIP4 H2   HW0      0.679100        1.0080           
   24336 A    6084 TIP4 BD1  LP0     -1.358200        0.0000           
   24337 A    6085 TIP4 O1   OW0      0.000000       15.9990           
   24338 A    6085 TIP4 H1   HW0      0.679100        1.0080           
   24339 A    6085 TIP4 H2   HW0      0.679100        1.0080           
   24340 A    6085 TIP4 BD1  LP0     -1.358200        0.0000           
   24341 A    6086 TIP4 O1   OW0      0.000000       15.9990           
   24342 A    6086 TIP4 H1   HW0      0.679100        1.0080           
   24343 A    6086 TIP4 H2   HW0      0.679100        1.0080           
   24344 A    6086 TIP4 BD1  LP0     -1.358200        0.0000           
   24345 A    6087 TIP4 O1   OW0      0.000000       15.9990           
   24346 A    6087 TIP4 H1   HW0      0.679100        1.0080           
   24347 A    6087 TIP4 H2   HW0      0.679100        1.0080           
   24348 A    6087 TIP4 BD1  LP0     -1.358200        0.0000           
   24349 A    6088 TIP4 O1   OW0      0.000000       15.9990           
   24350 A    6088 TIP4 H1   HW0      0.679100        1.0080           
   24351 A    6088 TIP4 H2   HW0      0.679100        1.0080           
   24352 A    6088 TIP4 BD1  LP0     -1.358200        0.0000           
   24353 A    6089 TIP4 O1   OW0      0.000000       15.9990           
   24354 A    6089 TIP4 H1   HW0      0.679100        1.0080           
   24355 A    6089 TIP4 H2   HW0      0.679100        1.0080           
   24356 A    6089 TIP4 BD1  LP0     -1.358200        0.0000           
   24357 A    6090 TIP4 O1   OW0      0.000000       15.9990           
   24358 A    6090 TIP4 H1   HW0      0.679100        1.0080           
   24359 A    6090 TIP4 H2   HW0      0.679100        1.0080           
   24360 A    6090 TIP4 BD1  LP0     -1.358200        0.0000           
   24361 A    6091 TIP4 O1   OW0      0.000000       15.9990           
   24362 A    6091 TIP4 H1   HW0      0.679100        1.0080           
   24363 A    6091 TIP4 H2   HW0      0.679100        1.0080           
   24364 A    6091 TIP4 BD1  LP0     -1.358200        0.0000           
   24365 A    6092 TIP4 O1   OW0      0.000000       15.9990           
   24366 A    6092 TIP4 H1   HW0      0.679100        1.0080           
   24367 A    6092 TIP4 H2   HW0      0.679100        1.0080           
   24368 A    6092 TIP4 BD1  LP0     -1.358200        0.0000           
   24369 A    6093 TIP4 O1   OW0      0.000000       15.9990           
   24370 A    6093 TIP4 H1   HW0      0.679100        1.0080           
   24371 A    6093 TIP4 H2   HW0      0.679100        1.0080           
   24372 A    6093 TIP4 BD1  LP0     -1.358200        0.0000           
   24373 A    6094 TIP4 O1   OW0      0.000000       15.9990           
   24374 A    6094 TIP4 H1   HW0      0.679100        1.0080           
   24375 A    6094 TIP4 H2   HW0      0.679100        1.0080           
   24376 A    6094 TIP4 BD1  LP0     -1.358200        0.0000           
   24377 A    6095 TIP4 O1   OW0      0.000000       15.9990           
   24378 A    6095 TIP4 H1   HW0      0.679100        1.0080           
   24379 A    6095 TIP4 H2   HW0      0.679100        1.0080           
   24380 A    6095 TIP4 BD1  LP0     -1.358200        0.0000           
   24381 A    6096 TIP4 O1   OW0      0.000000       15.9990           
   24382 A    6096 TIP4 H1   HW0      0.679100        1.0080           
   24383 A    6096 TIP4 H2   HW0      0.679100        1.0080           
   24384 A    6096 TIP4 BD1  LP0     -1.358200        0.0000           
   24385 A    6097 TIP4 O1   OW0      0.000000       15.9990           
   24386 A    6097 TIP4 H1   HW0      0.679100        1.0080           
   24387 A    6097 TIP4 H2   HW0      0.679100        1.0080           
   24388 A    6097 TIP4 BD1  LP0     -1.358200        0.0000           
   24389 A    6098 TIP4 O1   OW0      0.000000       15.9990           
   24390 A    6098 TIP4 H1   HW0      0.679100        1.0080           
   24391 A    6098 TIP4 H2   HW0      0.679100        1.0080           
   24392 A    6098 TIP4 BD1  LP0     -1.358200        0.0000           
   24393 A    6099 TIP4 O1   OW0      0.000000       15.9990           
   24394 A    6099 TIP4 H1   HW0      0.679100        1.0080           
   24395 A    6099 TIP4 H2   HW0      0.679100        1.0080           
   24396 A    6099 TIP4 BD1  LP0     -1.358200        0.0000           
   24397 A    6100 TIP4 O1   OW0      0.000000       15.9990           
   24398 A    6100 TIP4 H1   HW0      0.679100        1.0080           
   24399 A    6100 TIP4 H2   HW0      0.679100        1.0080           
   24400 A    6100 TIP4 BD1  LP0     -1.358200        0.0000           
   24401 A    6101 TIP4 O1   OW0      0.000000       15.9990           
   24402 A    6101 TIP4 H1   HW0      0.679100        1.0080           
   24403 A    6101 TIP4 H2   HW0      0.679100        1.0080           
   24404 A    6101 TIP4 BD1  LP0     -1.358200        0.0000           
   24405 A    6102 TIP4 O1   OW0      0.000000       15.9990           
   24406 A    6102 TIP4 H1   HW0      0.679100        1.0080           
   24407 A    6102 TIP4 H2   HW0      0.679100        1.0080           
   24408 A    6102 TIP4 BD1  LP0     -1.358200        0.0000           
   24409 A    6103 TIP4 O1   OW0      0.000000       15.9990           
   24410 A    6103 TIP4 H1   HW0      0.679100        1.0080           
   24411 A    6103 TIP4 H2   HW0      0.679100        1.0080           
   24412 A    6103 TIP4 BD1  LP0     -1.358200        0.0000           
   24413 A    6104 TIP4 O1   OW0      0.000000       15.9990           
   24414 A    6104 TIP4 H1   HW0      0.679100        1.0080           
   24415 A    6104 TIP4 H2   HW0      0.679100        1.0080           
   24416 A    6104 TIP4 BD1  LP0     -1.358200        0.0000           
   24417 A    6105 TIP4 O1   OW0      0.000000       15.9990           
   24418 A    6105 TIP4 H1   HW0      0.679100        1.0080           
   24419 A    6105 TIP4 H2   HW0      0.679100        1.0080           
   24420 A    6105 TIP4 BD1  LP0     -1.358200        0.0000           
   24421 A    6106 TIP4 O1   OW0      0.000000       15.9990           
   24422 A    6106 TIP4 H1   HW0      0.679100        1.0080           
   24423 A    6106 TIP4 H2   HW0      0.679100        1.0080           
   24424 A    6106 TIP4 BD1  LP0     -1.358200        0.0000           
   24425 A    6107 TIP4 O1   OW0      0.000000       15.9990           
   24426 A    6107 TIP4 H1   HW0      0.679100        1.0080           
   24427 A    6107 TIP4 H2   HW0      0.679100        1.0080           
   24428 A    6107 TIP4 BD1  LP0     -1.358200        0.0000           
   24429 A    6108 TIP4 O1   OW0      0.000000       15.9990           
   24430 A    6108 TIP4 H1   HW0      0.679100        1.0080           
   24431 A    6108 TIP4 H2   HW0      0.679100        1.0080           
   24432 A    6108 TIP4 BD1  LP0     -1.358200        0.0000           
   24433 A    6109 TIP4 O1   OW0      0.000000       15.9990           
   24434 A    6109 TIP4 H1   HW0      0.679100        1.0080           
   24435 A    6109 TIP4 H2   HW0      0.679100        1.0080           
   24436 A    6109 TIP4 BD1  LP0     -1.358200        0.0000           
   24437 A    6110 TIP4 O1   OW0      0.000000       15.9990           
   24438 A    6110 TIP4 H1   HW0      0.679100        1.0080           
   24439 A    6110 TIP4 H2   HW0      0.679100        1.0080           
   24440 A    6110 TIP4 BD1  LP0     -1.358200        0.0000           
   24441 A    6111 TIP4 O1   OW0      0.000000       15.9990           
   24442 A    6111 TIP4 H1   HW0      0.679100        1.0080           
   24443 A    6111 TIP4 H2   HW0      0.679100        1.0080           
   24444 A    6111 TIP4 BD1  LP0     -1.358200        0.0000           
   24445 A    6112 TIP4 O1   OW0      0.000000       15.9990           
   24446 A    6112 TIP4 H1   HW0      0.679100        1.0080           
   24447 A    6112 TIP4 H2   HW0      0.679100        1.0080           
   24448 A    6112 TIP4 BD1  LP0     -1.358200        0.0000           
   24449 A    6113 TIP4 O1   OW0      0.000000       15.9990           
   24450 A    6113 TIP4 H1   HW0      0.679100        1.0080           
   24451 A    6113 TIP4 H2   HW0      0.679100        1.0080           
   24452 A    6113 TIP4 BD1  LP0     -1.358200        0.0000           
   24453 A    6114 TIP4 O1   OW0      0.000000       15.9990           
   24454 A    6114 TIP4 H1   HW0      0.679100        1.0080           
   24455 A    6114 TIP4 H2   HW0      0.679100        1.0080           
   24456 A    6114 TIP4 BD1  LP0     -1.358200        0.0000           
   24457 A    6115 TIP4 O1   OW0      0.000000       15.9990           
   24458 A    6115 TIP4 H1   HW0      0.679100        1.0080           
   24459 A    6115 TIP4 H2   HW0      0.679100        1.0080           
   24460 A    6115 TIP4 BD1  LP0     -1.358200        0.0000           
   24461 A    6116 TIP4 O1   OW0      0.000000       15.9990           
   24462 A    6116 TIP4 H1   HW0      0.679100        1.0080           
   24463 A    6116 TIP4 H2   HW0      0.679100        1.0080           
   24464 A    6116 TIP4 BD1  LP0     -1.358200        0.0000           
   24465 A    6117 TIP4 O1   OW0      0.000000       15.9990           
   24466 A    6117 TIP4 H1   HW0      0.679100        1.0080           
   24467 A    6117 TIP4 H2   HW0      0.679100        1.0080           
   24468 A    6117 TIP4 BD1  LP0     -1.358200        0.0000           
   24469 A    6118 TIP4 O1   OW0      0.000000       15.9990           
   24470 A    6118 TIP4 H1   HW0      0.679100        1.0080           
   24471 A    6118 TIP4 H2   HW0      0.679100        1.0080           
   24472 A    6118 TIP4 BD1  LP0     -1.358200        0.0000           
   24473 A    6119 TIP4 O1   OW0      0.000000       15.9990           
   24474 A    6119 TIP4 H1   HW0      0.679100        1.0080           
   24475 A    6119 TIP4 H2   HW0      0.679100        1.0080           
   24476 A    6119 TIP4 BD1  LP0     -1.358200        0.0000           
   24477 A    6120 TIP4 O1   OW0      0.000000       15.9990           
   24478 A    6120 TIP4 H1   HW0      0.679100        1.0080           
   24479 A    6120 TIP4 H2   HW0      0.679100        1.0080           
   24480 A    6120 TIP4 BD1  LP0     -1.358200        0.0000           
   24481 A    6121 TIP4 O1   OW0      0.000000       15.9990           
   24482 A    6121 TIP4 H1   HW0      0.679100        1.0080           
   24483 A    6121 TIP4 H2   HW0      0.679100        1.0080           
   24484 A    6121 TIP4 BD1  LP0     -1.358200        0.0000           
   24485 A    6122 TIP4 O1   OW0      0.000000       15.9990           
   24486 A    6122 TIP4 H1   HW0      0.679100        1.0080           
   24487 A    6122 TIP4 H2   HW0      0.679100        1.0080           
   24488 A    6122 TIP4 BD1  LP0     -1.358200        0.0000           
   24489 A    6123 TIP4 O1   OW0      0.000000       15.9990           
   24490 A    6123 TIP4 H1   HW0      0.679100        1.0080           
   24491 A    6123 TIP4 H2   HW0      0.679100        1.0080           
   24492 A    6123 TIP4 BD1  LP0     -1.358200        0.0000           
   24493 A    6124 TIP4 O1   OW0      0.000000       15.9990           
   24494 A    6124 TIP4 H1   HW0      0.679100        1.0080           
   24495 A    6124 TIP4 H2   HW0      0.679100        1.0080           
   24496 A    6124 TIP4 BD1  LP0     -1.358200        0.0000           
   24497 A    6125 TIP4 O1   OW0      0.000000       15.9990           
   24498 A    6125 TIP4 H1   HW0      0.679100        1.0080           
   24499 A    6125 TIP4 H2   HW0      0.679100        1.0080           
   24500 A    6125 TIP4 BD1  LP0     -1.358200        0.0000           
   24501 A    6126 TIP4 O1   OW0      0.000000       15.9990           
   24502 A    6126 TIP4 H1   HW0      0.679100        1.0080           
   24503 A    6126 TIP4 H2   HW0      0.679100        1.0080           
   24504 A    6126 TIP4 BD1  LP0     -1.358200        0.0000           
   24505 A    6127 TIP4 O1   OW0      0.000000       15.9990           
   24506 A    6127 TIP4 H1   HW0      0.679100        1.0080           
   24507 A    6127 TIP4 H2   HW0      0.679100        1.0080           
   24508 A    6127 TIP4 BD1  LP0     -1.358200        0.0000           
   24509 A    6128 TIP4 O1   OW0      0.000000       15.9990           
   24510 A    6128 TIP4 H1   HW0      0.679100        1.0080           
   24511 A    6128 TIP4 H2   HW0      0.679100        1.0080           
   24512 A    6128 TIP4 BD1  LP0     -1.358200        0.0000           
   24513 A    6129 TIP4 O1   OW0      0.000000       15.9990           
   24514 A    6129 TIP4 H1   HW0      0.679100        1.0080           
   24515 A    6129 TIP4 H2   HW0      0.679100        1.0080           
   24516 A    6129 TIP4 BD1  LP0     -1.358200        0.0000           
   24517 A    6130 TIP4 O1   OW0      0.000000       15.9990           
   24518 A    6130 TIP4 H1   HW0      0.679100        1.0080           
   24519 A    6130 TIP4 H2   HW0      0.679100        1.0080           
   24520 A    6130 TIP4 BD1  LP0     -1.358200        0.0000           
   24521 A    6131 TIP4 O1   OW0      0.000000       15.9990           
   24522 A    6131 TIP4 H1   HW0      0.679100        1.0080           
   24523 A    6131 TIP4 H2   HW0      0.679100        1.0080           
   24524 A    6131 TIP4 BD1  LP0     -1.358200        0.0000           
   24525 A    6132 TIP4 O1   OW0      0.000000       15.9990           
   24526 A    6132 TIP4 H1   HW0      0.679100        1.0080           
   24527 A    6132 TIP4 H2   HW0      0.679100        1.0080           
   24528 A    6132 TIP4 BD1  LP0     -1.358200        0.0000           
   24529 A    6133 TIP4 O1   OW0      0.000000       15.9990           
   24530 A    6133 TIP4 H1   HW0      0.679100        1.0080           
   24531 A    6133 TIP4 H2   HW0      0.679100        1.0080           
   24532 A    6133 TIP4 BD1  LP0     -1.358200        0.0000           
   24533 A    6134 TIP4 O1   OW0      0.000000       15.9990           
   24534 A    6134 TIP4 H1   HW0      0.679100        1.0080           
   24535 A    6134 TIP4 H2   HW0      0.679100        1.0080           
   24536 A    6134 TIP4 BD1  LP0     -1.358200        0.0000           
   24537 A    6135 TIP4 O1   OW0      0.000000       15.9990           
   24538 A    6135 TIP4 H1   HW0      0.679100        1.0080           
   24539 A    6135 TIP4 H2   HW0      0.679100        1.0080           
   24540 A    6135 TIP4 BD1  LP0     -1.358200        0.0000           
   24541 A    6136 TIP4 O1   OW0      0.000000       15.9990           
   24542 A    6136 TIP4 H1   HW0      0.679100        1.0080           
   24543 A    6136 TIP4 H2   HW0      0.679100        1.0080           
   24544 A    6136 TIP4 BD1  LP0     -1.358200        0.0000           
   24545 A    6137 TIP4 O1   OW0      0.000000       15.9990           
   24546 A    6137 TIP4 H1   HW0      0.679100        1.0080           
   24547 A    6137 TIP4 H2   HW0      0.679100        1.0080           
   24548 A    6137 TIP4 BD1  LP0     -1.358200        0.0000           
   24549 A    6138 TIP4 O1   OW0      0.000000       15.9990           
   24550 A    6138 TIP4 H1   HW0      0.679100        1.0080           
   24551 A    6138 TIP4 H2   HW0      0.679100        1.0080           
   24552 A    6138 TIP4 BD1  LP0     -1.358200        0.0000           
   24553 A    6139 TIP4 O1   OW0      0.000000       15.9990           
   24554 A    6139 TIP4 H1   HW0      0.679100        1.0080           
   24555 A    6139 TIP4 H2   HW0      0.679100        1.0080           
   24556 A    6139 TIP4 BD1  LP0     -1.358200        0.0000           
   24557 A    6140 TIP4 O1   OW0      0.000000       15.9990           
   24558 A    6140 TIP4 H1   HW0      0.679100        1.0080           
   24559 A    6140 TIP4 H2   HW0      0.679100        1.0080           
   24560 A    6140 TIP4 BD1  LP0     -1.358200        0.0000           
   24561 A    6141 TIP4 O1   OW0      0.000000       15.9990           
   24562 A    6141 TIP4 H1   HW0      0.679100        1.0080           
   24563 A    6141 TIP4 H2   HW0      0.679100        1.0080           
   24564 A    6141 TIP4 BD1  LP0     -1.358200        0.0000           
   24565 A    6142 TIP4 O1   OW0      0.000000       15.9990           
   24566 A    6142 TIP4 H1   HW0      0.679100        1.0080           
   24567 A    6142 TIP4 H2   HW0      0.679100        1.0080           
   24568 A    6142 TIP4 BD1  LP0     -1.358200        0.0000           
   24569 A    6143 TIP4 O1   OW0      0.000000       15.9990           
   24570 A    6143 TIP4 H1   HW0      0.679100        1.0080           
   24571 A    6143 TIP4 H2   HW0      0.679100        1.0080           
   24572 A    6143 TIP4 BD1  LP0     -1.358200        0.0000           
   24573 A    6144 TIP4 O1   OW0      0.000000       15.9990           
   24574 A    6144 TIP4 H1   HW0      0.679100        1.0080           
   24575 A    6144 TIP4 H2   HW0      0.679100        1.0080           
   24576 A    6144 TIP4 BD1  LP0     -1.358200        0.0000           
   24577 A    6145 TIP4 O1   OW0      0.000000       15.9990           
   24578 A    6145 TIP4 H1   HW0      0.679100        1.0080           
   24579 A    6145 TIP4 H2   HW0      0.679100        1.0080           
   24580 A    6145 TIP4 BD1  LP0     -1.358200        0.0000           
   24581 A    6146 TIP4 O1   OW0      0.000000       15.9990           
   24582 A    6146 TIP4 H1   HW0      0.679100        1.0080           
   24583 A    6146 TIP4 H2   HW0      0.679100        1.0080           
   24584 A    6146 TIP4 BD1  LP0     -1.358200        0.0000           
   24585 A    6147 TIP4 O1   OW0      0.000000       15.9990           
   24586 A    6147 TIP4 H1   HW0      0.679100        1.0080           
   24587 A    6147 TIP4 H2   HW0      0.679100        1.0080           
   24588 A    6147 TIP4 BD1  LP0     -1.358200        0.0000           
   24589 A    6148 TIP4 O1   OW0      0.000000       15.9990           
   24590 A    6148 TIP4 H1   HW0      0.679100        1.0080           
   24591 A    6148 TIP4 H2   HW0      0.679100        1.0080           
   24592 A    6148 TIP4 BD1  LP0     -1.358200        0.0000           
   24593 A    6149 TIP4 O1   OW0      0.000000       15.9990           
   24594 A    6149 TIP4 H1   HW0      0.679100        1.0080           
   24595 A    6149 TIP4 H2   HW0      0.679100        1.0080           
   24596 A    6149 TIP4 BD1  LP0     -1.358200        0.0000           
   24597 A    6150 TIP4 O1   OW0      0.000000       15.9990           
   24598 A    6150 TIP4 H1   HW0      0.679100        1.0080           
   24599 A    6150 TIP4 H2   HW0      0.679100        1.0080           
   24600 A    6150 TIP4 BD1  LP0     -1.358200        0.0000           
   24601 A    6151 TIP4 O1   OW0      0.000000       15.9990           
   24602 A    6151 TIP4 H1   HW0      0.679100        1.0080           
   24603 A    6151 TIP4 H2   HW0      0.679100        1.0080           
   24604 A    6151 TIP4 BD1  LP0     -1.358200        0.0000           
   24605 A    6152 TIP4 O1   OW0      0.000000       15.9990           
   24606 A    6152 TIP4 H1   HW0      0.679100        1.0080           
   24607 A    6152 TIP4 H2   HW0      0.679100        1.0080           
   24608 A    6152 TIP4 BD1  LP0     -1.358200        0.0000           
   24609 A    6153 TIP4 O1   OW0      0.000000       15.9990           
   24610 A    6153 TIP4 H1   HW0      0.679100        1.0080           
   24611 A    6153 TIP4 H2   HW0      0.679100        1.0080           
   24612 A    6153 TIP4 BD1  LP0     -1.358200        0.0000           
   24613 A    6154 TIP4 O1   OW0      0.000000       15.9990           
   24614 A    6154 TIP4 H1   HW0      0.679100        1.0080           
   24615 A    6154 TIP4 H2   HW0      0.679100        1.0080           
   24616 A    6154 TIP4 BD1  LP0     -1.358200        0.0000           
   24617 A    6155 TIP4 O1   OW0      0.000000       15.9990           
   24618 A    6155 TIP4 H1   HW0      0.679100        1.0080           
   24619 A    6155 TIP4 H2   HW0      0.679100        1.0080           
   24620 A    6155 TIP4 BD1  LP0     -1.358200        0.0000           
   24621 A    6156 TIP4 O1   OW0      0.000000       15.9990           
   24622 A    6156 TIP4 H1   HW0      0.679100        1.0080           
   24623 A    6156 TIP4 H2   HW0      0.679100        1.0080           
   24624 A    6156 TIP4 BD1  LP0     -1.358200        0.0000           
   24625 A    6157 TIP4 O1   OW0      0.000000       15.9990           
   24626 A    6157 TIP4 H1   HW0      0.679100        1.0080           
   24627 A    6157 TIP4 H2   HW0      0.679100        1.0080           
   24628 A    6157 TIP4 BD1  LP0     -1.358200        0.0000           
   24629 A    6158 TIP4 O1   OW0      0.000000       15.9990           
   24630 A    6158 TIP4 H1   HW0      0.679100        1.0080           
   24631 A    6158 TIP4 H2   HW0      0.679100        1.0080           
   24632 A    6158 TIP4 BD1  LP0     -1.358200        0.0000           
   24633 A    6159 TIP4 O1   OW0      0.000000       15.9990           
   24634 A    6159 TIP4 H1   HW0      0.679100        1.0080           
   24635 A    6159 TIP4 H2   HW0      0.679100        1.0080           
   24636 A    6159 TIP4 BD1  LP0     -1.358200        0.0000           
   24637 A    6160 TIP4 O1   OW0      0.000000       15.9990           
   24638 A    6160 TIP4 H1   HW0      0.679100        1.0080           
   24639 A    6160 TIP4 H2   HW0      0.679100        1.0080           
   24640 A    6160 TIP4 BD1  LP0     -1.358200        0.0000           
   24641 A    6161 TIP4 O1   OW0      0.000000       15.9990           
   24642 A    6161 TIP4 H1   HW0      0.679100        1.0080           
   24643 A    6161 TIP4 H2   HW0      0.679100        1.0080           
   24644 A    6161 TIP4 BD1  LP0     -1.358200        0.0000           
   24645 A    6162 TIP4 O1   OW0      0.000000       15.9990           
   24646 A    6162 TIP4 H1   HW0      0.679100        1.0080           
   24647 A    6162 TIP4 H2   HW0      0.679100        1.0080           
   24648 A    6162 TIP4 BD1  LP0     -1.358200        0.0000           
   24649 A    6163 TIP4 O1   OW0      0.000000       15.9990           
   24650 A    6163 TIP4 H1   HW0      0.679100        1.0080           
   24651 A    6163 TIP4 H2   HW0      0.679100        1.0080           
   24652 A    6163 TIP4 BD1  LP0     -1.358200        0.0000           
   24653 A    6164 TIP4 O1   OW0      0.000000       15.9990           
   24654 A    6164 TIP4 H1   HW0      0.679100        1.0080           
   24655 A    6164 TIP4 H2   HW0      0.679100        1.0080           
   24656 A    6164 TIP4 BD1  LP0     -1.358200        0.0000           
   24657 A    6165 TIP4 O1   OW0      0.000000       15.9990           
   24658 A    6165 TIP4 H1   HW0      0.679100        1.0080           
   24659 A    6165 TIP4 H2   HW0      0.679100        1.0080           
   24660 A    6165 TIP4 BD1  LP0     -1.358200        0.0000           
   24661 A    6166 TIP4 O1   OW0      0.000000       15.9990           
   24662 A    6166 TIP4 H1   HW0      0.679100        1.0080           
   24663 A    6166 TIP4 H2   HW0      0.679100        1.0080           
   24664 A    6166 TIP4 BD1  LP0     -1.358200        0.0000           
   24665 A    6167 TIP4 O1   OW0      0.000000       15.9990           
   24666 A    6167 TIP4 H1   HW0      0.679100        1.0080           
   24667 A    6167 TIP4 H2   HW0      0.679100        1.0080           
   24668 A    6167 TIP4 BD1  LP0     -1.358200        0.0000           
   24669 A    6168 TIP4 O1   OW0      0.000000       15.9990           
   24670 A    6168 TIP4 H1   HW0      0.679100        1.0080           
   24671 A    6168 TIP4 H2   HW0      0.679100        1.0080           
   24672 A    6168 TIP4 BD1  LP0     -1.358200        0.0000           
   24673 A    6169 TIP4 O1   OW0      0.000000       15.9990           
   24674 A    6169 TIP4 H1   HW0      0.679100        1.0080           
   24675 A    6169 TIP4 H2   HW0      0.679100        1.0080           
   24676 A    6169 TIP4 BD1  LP0     -1.358200        0.0000           
   24677 A    6170 TIP4 O1   OW0      0.000000       15.9990           
   24678 A    6170 TIP4 H1   HW0      0.679100        1.0080           
   24679 A    6170 TIP4 H2   HW0      0.679100        1.0080           
   24680 A    6170 TIP4 BD1  LP0     -1.358200        0.0000           
   24681 A    6171 TIP4 O1   OW0      0.000000       15.9990           
   24682 A    6171 TIP4 H1   HW0      0.679100        1.0080           
   24683 A    6171 TIP4 H2   HW0      0.679100        1.0080           
   24684 A    6171 TIP4 BD1  LP0     -1.358200        0.0000           
   24685 A    6172 TIP4 O1   OW0      0.000000       15.9990           
   24686 A    6172 TIP4 H1   HW0      0.679100        1.0080           
   24687 A    6172 TIP4 H2   HW0      0.679100        1.0080           
   24688 A    6172 TIP4 BD1  LP0     -1.358200        0.0000           
   24689 A    6173 TIP4 O1   OW0      0.000000       15.9990           
   24690 A    6173 TIP4 H1   HW0      0.679100        1.0080           
   24691 A    6173 TIP4 H2   HW0      0.679100        1.0080           
   24692 A    6173 TIP4 BD1  LP0     -1.358200        0.0000           
   24693 A    6174 TIP4 O1   OW0      0.000000       15.9990           
   24694 A    6174 TIP4 H1   HW0      0.679100        1.0080           
   24695 A    6174 TIP4 H2   HW0      0.679100        1.0080           
   24696 A    6174 TIP4 BD1  LP0     -1.358200        0.0000           
   24697 A    6175 TIP4 O1   OW0      0.000000       15.9990           
   24698 A    6175 TIP4 H1   HW0      0.679100        1.0080           
   24699 A    6175 TIP4 H2   HW0      0.679100        1.0080           
   24700 A    6175 TIP4 BD1  LP0     -1.358200        0.0000           
   24701 A    6176 TIP4 O1   OW0      0.000000       15.9990           
   24702 A    6176 TIP4 H1   HW0      0.679100        1.0080           
   24703 A    6176 TIP4 H2   HW0      0.679100        1.0080           
   24704 A    6176 TIP4 BD1  LP0     -1.358200        0.0000           
   24705 A    6177 TIP4 O1   OW0      0.000000       15.9990           
   24706 A    6177 TIP4 H1   HW0      0.679100        1.0080           
   24707 A    6177 TIP4 H2   HW0      0.679100        1.0080           
   24708 A    6177 TIP4 BD1  LP0     -1.358200        0.0000           
   24709 A    6178 TIP4 O1   OW0      0.000000       15.9990           
   24710 A    6178 TIP4 H1   HW0      0.679100        1.0080           
   24711 A    6178 TIP4 H2   HW0      0.679100        1.0080           
   24712 A    6178 TIP4 BD1  LP0     -1.358200        0.0000           
   24713 A    6179 TIP4 O1   OW0      0.000000       15.9990           
   24714 A    6179 TIP4 H1   HW0      0.679100        1.0080           
   24715 A    6179 TIP4 H2   HW0      0.679100        1.0080           
   24716 A    6179 TIP4 BD1  LP0     -1.358200        0.0000           
   24717 A    6180 TIP4 O1   OW0      0.000000       15.9990           
   24718 A    6180 TIP4 H1   HW0      0.679100        1.0080           
   24719 A    6180 TIP4 H2   HW0      0.679100        1.0080           
   24720 A    6180 TIP4 BD1  LP0     -1.358200        0.0000           
   24721 A    6181 TIP4 O1   OW0      0.000000       15.9990           
   24722 A    6181 TIP4 H1   HW0      0.679100        1.0080           
   24723 A    6181 TIP4 H2   HW0      0.679100        1.0080           
   24724 A    6181 TIP4 BD1  LP0     -1.358200        0.0000           
   24725 A    6182 TIP4 O1   OW0      0.000000       15.9990           
   24726 A    6182 TIP4 H1   HW0      0.679100        1.0080           
   24727 A    6182 TIP4 H2   HW0      0.679100        1.0080           
   24728 A    6182 TIP4 BD1  LP0     -1.358200        0.0000           
   24729 A    6183 TIP4 O1   OW0      0.000000       15.9990           
   24730 A    6183 TIP4 H1   HW0      0.679100        1.0080           
   24731 A    6183 TIP4 H2   HW0      0.679100        1.0080           
   24732 A    6183 TIP4 BD1  LP0     -1.358200        0.0000           
   24733 A    6184 TIP4 O1   OW0      0.000000       15.9990           
   24734 A    6184 TIP4 H1   HW0      0.679100        1.0080           
   24735 A    6184 TIP4 H2   HW0      0.679100        1.0080           
   24736 A    6184 TIP4 BD1  LP0     -1.358200        0.0000           
   24737 A    6185 TIP4 O1   OW0      0.000000       15.9990           
   24738 A    6185 TIP4 H1   HW0      0.679100        1.0080           
   24739 A    6185 TIP4 H2   HW0      0.679100        1.0080           
   24740 A    6185 TIP4 BD1  LP0     -1.358200        0.0000           
   24741 A    6186 TIP4 O1   OW0      0.000000       15.9990           
   24742 A    6186 TIP4 H1   HW0      0.679100        1.0080           
   24743 A    6186 TIP4 H2   HW0      0.679100        1.0080           
   24744 A    6186 TIP4 BD1  LP0     -1.358200        0.0000           
   24745 A    6187 TIP4 O1   OW0      0.000000       15.9990           
   24746 A    6187 TIP4 H1   HW0      0.679100        1.0080           
   24747 A    6187 TIP4 H2   HW0      0.679100        1.0080           
   24748 A    6187 TIP4 BD1  LP0     -1.358200        0.0000           
   24749 A    6188 TIP4 O1   OW0      0.000000       15.9990           
   24750 A    6188 TIP4 H1   HW0      0.679100        1.0080           
   24751 A    6188 TIP4 H2   HW0      0.679100        1.0080           
   24752 A    6188 TIP4 BD1  LP0     -1.358200        0.0000           
   24753 A    6189 TIP4 O1   OW0      0.000000       15.9990           
   24754 A    6189 TIP4 H1   HW0      0.679100        1.0080           
   24755 A    6189 TIP4 H2   HW0      0.679100        1.0080           
   24756 A    6189 TIP4 BD1  LP0     -1.358200        0.0000           
   24757 A    6190 TIP4 O1   OW0      0.000000       15.9990           
   24758 A    6190 TIP4 H1   HW0      0.679100        1.0080           
   24759 A    6190 TIP4 H2   HW0      0.679100        1.0080           
   24760 A    6190 TIP4 BD1  LP0     -1.358200        0.0000           
   24761 A    6191 TIP4 O1   OW0      0.000000       15.9990           
   24762 A    6191 TIP4 H1   HW0      0.679100        1.0080           
   24763 A    6191 TIP4 H2   HW0      0.679100        1.0080           
   24764 A    6191 TIP4 BD1  LP0     -1.358200        0.0000           
   24765 A    6192 TIP4 O1   OW0      0.000000       15.9990           
   24766 A    6192 TIP4 H1   HW0      0.679100        1.0080           
   24767 A    6192 TIP4 H2   HW0      0.679100        1.0080           
   24768 A    6192 TIP4 BD1  LP0     -1.358200        0.0000           
   24769 A    6193 TIP4 O1   OW0      0.000000       15.9990           
   24770 A    6193 TIP4 H1   HW0      0.679100        1.0080           
   24771 A    6193 TIP4 H2   HW0      0.679100        1.0080           
   24772 A    6193 TIP4 BD1  LP0     -1.358200        0.0000           
   24773 A    6194 TIP4 O1   OW0      0.000000       15.9990           
   24774 A    6194 TIP4 H1   HW0      0.679100        1.0080           
   24775 A    6194 TIP4 H2   HW0      0.679100        1.0080           
   24776 A    6194 TIP4 BD1  LP0     -1.358200        0.0000           
   24777 A    6195 TIP4 O1   OW0      0.000000       15.9990           
   24778 A    6195 TIP4 H1   HW0      0.679100        1.0080           
   24779 A    6195 TIP4 H2   HW0      0.679100        1.0080           
   24780 A    6195 TIP4 BD1  LP0     -1.358200        0.0000           
   24781 A    6196 TIP4 O1   OW0      0.000000       15.9990           
   24782 A    6196 TIP4 H1   HW0      0.679100        1.0080           
   24783 A    6196 TIP4 H2   HW0      0.679100        1.0080           
   24784 A    6196 TIP4 BD1  LP0     -1.358200        0.0000           
   24785 A    6197 TIP4 O1   OW0      0.000000       15.9990           
   24786 A    6197 TIP4 H1   HW0      0.679100        1.0080           
   24787 A    6197 TIP4 H2   HW0      0.679100        1.0080           
   24788 A    6197 TIP4 BD1  LP0     -1.358200        0.0000           
   24789 A    6198 TIP4 O1   OW0      0.000000       15.9990           
   24790 A    6198 TIP4 H1   HW0      0.679100        1.0080           
   24791 A    6198 TIP4 H2   HW0      0.679100        1.0080           
   24792 A    6198 TIP4 BD1  LP0     -1.358200        0.0000           
   24793 A    6199 TIP4 O1   OW0      0.000000       15.9990           
   24794 A    6199 TIP4 H1   HW0      0.679100        1.0080           
   24795 A    6199 TIP4 H2   HW0      0.679100        1.0080           
   24796 A    6199 TIP4 BD1  LP0     -1.358200        0.0000           
   24797 A    6200 TIP4 O1   OW0      0.000000       15.9990           
   24798 A    6200 TIP4 H1   HW0      0.679100        1.0080           
   24799 A    6200 TIP4 H2   HW0      0.679100        1.0080           
   24800 A    6200 TIP4 BD1  LP0     -1.358200        0.0000           
   24801 A    6201 TIP4 O1   OW0      0.000000       15.9990           
   24802 A    6201 TIP4 H1   HW0      0.679100        1.0080           
   24803 A    6201 TIP4 H2   HW0      0.679100        1.0080           
   24804 A    6201 TIP4 BD1  LP0     -1.358200        0.0000           
   24805 A    6202 TIP4 O1   OW0      0.000000       15.9990           
   24806 A    6202 TIP4 H1   HW0      0.679100        1.0080           
   24807 A    6202 TIP4 H2   HW0      0.679100        1.0080           
   24808 A    6202 TIP4 BD1  LP0     -1.358200        0.0000           
   24809 A    6203 TIP4 O1   OW0      0.000000       15.9990           
   24810 A    6203 TIP4 H1   HW0      0.679100        1.0080           
   24811 A    6203 TIP4 H2   HW0      0.679100        1.0080           
   24812 A    6203 TIP4 BD1  LP0     -1.358200        0.0000           
   24813 A    6204 TIP4 O1   OW0      0.000000       15.9990           
   24814 A    6204 TIP4 H1   HW0      0.679100        1.0080           
   24815 A    6204 TIP4 H2   HW0      0.679100        1.0080           
   24816 A    6204 TIP4 BD1  LP0     -1.358200        0.0000           
   24817 A    6205 TIP4 O1   OW0      0.000000       15.9990           
   24818 A    6205 TIP4 H1   HW0      0.679100        1.0080           
   24819 A    6205 TIP4 H2   HW0      0.679100        1.0080           
   24820 A    6205 TIP4 BD1  LP0     -1.358200        0.0000           
   24821 A    6206 TIP4 O1   OW0      0.000000       15.9990           
   24822 A    6206 TIP4 H1   HW0      0.679100        1.0080           
   24823 A    6206 TIP4 H2   HW0      0.679100        1.0080           
   24824 A    6206 TIP4 BD1  LP0     -1.358200        0.0000           
   24825 A    6207 TIP4 O1   OW0      0.000000       15.9990           
   24826 A    6207 TIP4 H1   HW0      0.679100        1.0080           
   24827 A    6207 TIP4 H2   HW0      0.679100        1.0080           
   24828 A    6207 TIP4 BD1  LP0     -1.358200        0.0000           
   24829 A    6208 TIP4 O1   OW0      0.000000       15.9990           
   24830 A    6208 TIP4 H1   HW0      0.679100        1.0080           
   24831 A    6208 TIP4 H2   HW0      0.679100        1.0080           
   24832 A    6208 TIP4 BD1  LP0     -1.358200        0.0000           
   24833 A    6209 TIP4 O1   OW0      0.000000       15.9990           
   24834 A    6209 TIP4 H1   HW0      0.679100        1.0080           
   24835 A    6209 TIP4 H2   HW0      0.679100        1.0080           
   24836 A    6209 TIP4 BD1  LP0     -1.358200        0.0000           
   24837 A    6210 TIP4 O1   OW0      0.000000       15.9990           
   24838 A    6210 TIP4 H1   HW0      0.679100        1.0080           
   24839 A    6210 TIP4 H2   HW0      0.679100        1.0080           
   24840 A    6210 TIP4 BD1  LP0     -1.358200        0.0000           
   24841 A    6211 TIP4 O1   OW0      0.000000       15.9990           
   24842 A    6211 TIP4 H1   HW0      0.679100        1.0080           
   24843 A    6211 TIP4 H2   HW0      0.679100        1.0080           
   24844 A    6211 TIP4 BD1  LP0     -1.358200        0.0000           
   24845 A    6212 TIP4 O1   OW0      0.000000       15.9990           
   24846 A    6212 TIP4 H1   HW0      0.679100        1.0080           
   24847 A    6212 TIP4 H2   HW0      0.679100        1.0080           
   24848 A    6212 TIP4 BD1  LP0     -1.358200        0.0000           
   24849 A    6213 TIP4 O1   OW0      0.000000       15.9990           
   24850 A    6213 TIP4 H1   HW0      0.679100        1.0080           
   24851 A    6213 TIP4 H2   HW0      0.679100        1.0080           
   24852 A    6213 TIP4 BD1  LP0     -1.358200        0.0000           
   24853 A    6214 TIP4 O1   OW0      0.000000       15.9990           
   24854 A    6214 TIP4 H1   HW0      0.679100        1.0080           
   24855 A    6214 TIP4 H2   HW0      0.679100        1.0080           
   24856 A    6214 TIP4 BD1  LP0     -1.358200        0.0000           
   24857 A    6215 TIP4 O1   OW0      0.000000       15.9990           
   24858 A    6215 TIP4 H1   HW0      0.679100        1.0080           
   24859 A    6215 TIP4 H2   HW0      0.679100        1.0080           
   24860 A    6215 TIP4 BD1  LP0     -1.358200        0.0000           
   24861 A    6216 TIP4 O1   OW0      0.000000       15.9990           
   24862 A    6216 TIP4 H1   HW0      0.679100        1.0080           
   24863 A    6216 TIP4 H2   HW0      0.679100        1.0080           
   24864 A    6216 TIP4 BD1  LP0     -1.358200        0.0000           
   24865 A    6217 TIP4 O1   OW0      0.000000       15.9990           
   24866 A    6217 TIP4 H1   HW0      0.679100        1.0080           
   24867 A    6217 TIP4 H2   HW0      0.679100        1.0080           
   24868 A    6217 TIP4 BD1  LP0     -1.358200        0.0000           
   24869 A    6218 TIP4 O1   OW0      0.000000       15.9990           
   24870 A    6218 TIP4 H1   HW0      0.679100        1.0080           
   24871 A    6218 TIP4 H2   HW0      0.679100        1.0080           
   24872 A    6218 TIP4 BD1  LP0     -1.358200        0.0000           
   24873 A    6219 TIP4 O1   OW0      0.000000       15.9990           
   24874 A    6219 TIP4 H1   HW0      0.679100        1.0080           
   24875 A    6219 TIP4 H2   HW0      0.679100        1.0080           
   24876 A    6219 TIP4 BD1  LP0     -1.358200        0.0000           
   24877 A    6220 TIP4 O1   OW0      0.000000       15.9990           
   24878 A    6220 TIP4 H1   HW0      0.679100        1.0080           
   24879 A    6220 TIP4 H2   HW0      0.679100        1.0080           
   24880 A    6220 TIP4 BD1  LP0     -1.358200        0.0000           
   24881 A    6221 TIP4 O1   OW0      0.000000       15.9990           
   24882 A    6221 TIP4 H1   HW0      0.679100        1.0080           
   24883 A    6221 TIP4 H2   HW0      0.679100        1.0080           
   24884 A    6221 TIP4 BD1  LP0     -1.358200        0.0000           
   24885 A    6222 TIP4 O1   OW0      0.000000       15.9990           
   24886 A    6222 TIP4 H1   HW0      0.679100        1.0080           
   24887 A    6222 TIP4 H2   HW0      0.679100        1.0080           
   24888 A    6222 TIP4 BD1  LP0     -1.358200        0.0000           
   24889 A    6223 TIP4 O1   OW0      0.000000       15.9990           
   24890 A    6223 TIP4 H1   HW0      0.679100        1.0080           
   24891 A    6223 TIP4 H2   HW0      0.679100        1.0080           
   24892 A    6223 TIP4 BD1  LP0     -1.358200        0.0000           
   24893 A    6224 TIP4 O1   OW0      0.000000       15.9990           
   24894 A    6224 TIP4 H1   HW0      0.679100        1.0080           
   24895 A    6224 TIP4 H2   HW0      0.679100        1.0080           
   24896 A    6224 TIP4 BD1  LP0     -1.358200        0.0000           
   24897 A    6225 TIP4 O1   OW0      0.000000       15.9990           
   24898 A    6225 TIP4 H1   HW0      0.679100        1.0080           
   24899 A    6225 TIP4 H2   HW0      0.679100        1.0080           
   24900 A    6225 TIP4 BD1  LP0     -1.358200        0.0000           
   24901 A    6226 TIP4 O1   OW0      0.000000       15.9990           
   24902 A    6226 TIP4 H1   HW0      0.679100        1.0080           
   24903 A    6226 TIP4 H2   HW0      0.679100        1.0080           
   24904 A    6226 TIP4 BD1  LP0     -1.358200        0.0000           
   24905 A    6227 TIP4 O1   OW0      0.000000       15.9990           
   24906 A    6227 TIP4 H1   HW0      0.679100        1.0080           
   24907 A    6227 TIP4 H2   HW0      0.679100        1.0080           
   24908 A    6227 TIP4 BD1  LP0     -1.358200        0.0000           
   24909 A    6228 TIP4 O1   OW0      0.000000       15.9990           
   24910 A    6228 TIP4 H1   HW0      0.679100        1.0080           
   24911 A    6228 TIP4 H2   HW0      0.679100        1.0080           
   24912 A    6228 TIP4 BD1  LP0     -1.358200        0.0000           
   24913 A    6229 TIP4 O1   OW0      0.000000       15.9990           
   24914 A    6229 TIP4 H1   HW0      0.679100        1.0080           
   24915 A    6229 TIP4 H2   HW0      0.679100        1.0080           
   24916 A    6229 TIP4 BD1  LP0     -1.358200        0.0000           
   24917 A    6230 TIP4 O1   OW0      0.000000       15.9990           
   24918 A    6230 TIP4 H1   HW0      0.679100        1.0080           
   24919 A    6230 TIP4 H2   HW0      0.679100        1.0080           
   24920 A    6230 TIP4 BD1  LP0     -1.358200        0.0000           
   24921 A    6231 TIP4 O1   OW0      0.000000       15.9990           
   24922 A    6231 TIP4 H1   HW0      0.679100        1.0080           
   24923 A    6231 TIP4 H2   HW0      0.679100        1.0080           
   24924 A    6231 TIP4 BD1  LP0     -1.358200        0.0000           
   24925 A    6232 TIP4 O1   OW0      0.000000       15.9990           
   24926 A    6232 TIP4 H1   HW0      0.679100        1.0080           
   24927 A    6232 TIP4 H2   HW0      0.679100        1.0080           
   24928 A    6232 TIP4 BD1  LP0     -1.358200        0.0000           
   24929 A    6233 TIP4 O1   OW0      0.000000       15.9990           
   24930 A    6233 TIP4 H1   HW0      0.679100        1.0080           
   24931 A    6233 TIP4 H2   HW0      0.679100        1.0080           
   24932 A    6233 TIP4 BD1  LP0     -1.358200        0.0000           
   24933 A    6234 TIP4 O1   OW0      0.000000       15.9990           
   24934 A    6234 TIP4 H1   HW0      0.679100        1.0080           
   24935 A    6234 TIP4 H2   HW0      0.679100        1.0080           
   24936 A    6234 TIP4 BD1  LP0     -1.358200        0.0000           
   24937 A    6235 TIP4 O1   OW0      0.000000       15.9990           
   24938 A    6235 TIP4 H1   HW0      0.679100        1.0080           
   24939 A    6235 TIP4 H2   HW0      0.679100        1.0080           
   24940 A    6235 TIP4 BD1  LP0     -1.358200        0.0000           
   24941 A    6236 TIP4 O1   OW0      0.000000       15.9990           
   24942 A    6236 TIP4 H1   HW0      0.679100        1.0080           
   24943 A    6236 TIP4 H2   HW0      0.679100        1.0080           
   24944 A    6236 TIP4 BD1  LP0     -1.358200        0.0000           
   24945 A    6237 TIP4 O1   OW0      0.000000       15.9990           
   24946 A    6237 TIP4 H1   HW0      0.679100        1.0080           
   24947 A    6237 TIP4 H2   HW0      0.679100        1.0080           
   24948 A    6237 TIP4 BD1  LP0     -1.358200        0.0000           
   24949 A    6238 TIP4 O1   OW0      0.000000       15.9990           
   24950 A    6238 TIP4 H1   HW0      0.679100        1.0080           
   24951 A    6238 TIP4 H2   HW0      0.679100        1.0080           
   24952 A    6238 TIP4 BD1  LP0     -1.358200        0.0000           
   24953 A    6239 TIP4 O1   OW0      0.000000       15.9990           
   24954 A    6239 TIP4 H1   HW0      0.679100        1.0080           
   24955 A    6239 TIP4 H2   HW0      0.679100        1.0080           
   24956 A    6239 TIP4 BD1  LP0     -1.358200        0.0000           
   24957 A    6240 TIP4 O1   OW0      0.000000       15.9990           
   24958 A    6240 TIP4 H1   HW0      0.679100        1.0080           
   24959 A    6240 TIP4 H2   HW0      0.679100        1.0080           
   24960 A    6240 TIP4 BD1  LP0     -1.358200        0.0000           
   24961 A    6241 TIP4 O1   OW0      0.000000       15.9990           
   24962 A    6241 TIP4 H1   HW0      0.679100        1.0080           
   24963 A    6241 TIP4 H2   HW0      0.679100        1.0080           
   24964 A    6241 TIP4 BD1  LP0     -1.358200        0.0000           
   24965 A    6242 TIP4 O1   OW0      0.000000       15.9990           
   24966 A    6242 TIP4 H1   HW0      0.679100        1.0080           
   24967 A    6242 TIP4 H2   HW0      0.679100        1.0080           
   24968 A    6242 TIP4 BD1  LP0     -1.358200        0.0000           
   24969 A    6243 TIP4 O1   OW0      0.000000       15.9990           
   24970 A    6243 TIP4 H1   HW0      0.679100        1.0080           
   24971 A    6243 TIP4 H2   HW0      0.679100        1.0080           
   24972 A    6243 TIP4 BD1  LP0     -1.358200        0.0000           
   24973 A    6244 TIP4 O1   OW0      0.000000       15.9990           
   24974 A    6244 TIP4 H1   HW0      0.679100        1.0080           
   24975 A    6244 TIP4 H2   HW0      0.679100        1.0080           
   24976 A    6244 TIP4 BD1  LP0     -1.358200        0.0000           
   24977 A    6245 TIP4 O1   OW0      0.000000       15.9990           
   24978 A    6245 TIP4 H1   HW0      0.679100        1.0080           
   24979 A    6245 TIP4 H2   HW0      0.679100        1.0080           
   24980 A    6245 TIP4 BD1  LP0     -1.358200        0.0000           
   24981 A    6246 TIP4 O1   OW0      0.000000       15.9990           
   24982 A    6246 TIP4 H1   HW0      0.679100        1.0080           
   24983 A    6246 TIP4 H2   HW0      0.679100        1.0080           
   24984 A    6246 TIP4 BD1  LP0     -1.358200        0.0000           
   24985 A    6247 TIP4 O1   OW0      0.000000       15.9990           
   24986 A    6247 TIP4 H1   HW0      0.679100        1.0080           
   24987 A    6247 TIP4 H2   HW0      0.679100        1.0080           
   24988 A    6247 TIP4 BD1  LP0     -1.358200        0.0000           
   24989 A    6248 TIP4 O1   OW0      0.000000       15.9990           
   24990 A    6248 TIP4 H1   HW0      0.679100        1.0080           
   24991 A    6248 TIP4 H2   HW0      0.679100        1.0080           
   24992 A    6248 TIP4 BD1  LP0     -1.358200        0.0000           
   24993 A    6249 TIP4 O1   OW0      0.000000       15.9990           
   24994 A    6249 TIP4 H1   HW0      0.679100        1.0080           
   24995 A    6249 TIP4 H2   HW0      0.679100        1.0080           
   24996 A    6249 TIP4 BD1  LP0     -1.358200        0.0000           
   24997 A    6250 TIP4 O1   OW0      0.000000       15.9990           
   24998 A    6250 TIP4 H1   HW0      0.679100        1.0080           
   24999 A    6250 TIP4 H2   HW0      0.679100        1.0080           
   25000 A    6250 TIP4 BD1  LP0     -1.358200        0.0000           
   25001 A    6251 TIP4 O1   OW0      0.000000       15.9990           
   25002 A    6251 TIP4 H1   HW0      0.679100        1.0080           
   25003 A    6251 TIP4 H2   HW0      0.679100        1.0080           
   25004 A    6251 TIP4 BD1  LP0     -1.358200        0.0000           
   25005 A    6252 TIP4 O1   OW0      0.000000       15.9990           
   25006 A    6252 TIP4 H1   HW0      0.679100        1.0080           
   25007 A    6252 TIP4 H2   HW0      0.679100        1.0080           
   25008 A    6252 TIP4 BD1  LP0     -1.358200        0.0000           
   25009 A    6253 TIP4 O1   OW0      0.000000       15.9990           
   25010 A    6253 TIP4 H1   HW0      0.679100        1.0080           
   25011 A    6253 TIP4 H2   HW0      0.679100        1.0080           
   25012 A    6253 TIP4 BD1  LP0     -1.358200        0.0000           
   25013 A    6254 TIP4 O1   OW0      0.000000       15.9990           
   25014 A    6254 TIP4 H1   HW0      0.679100        1.0080           
   25015 A    6254 TIP4 H2   HW0      0.679100        1.0080           
   25016 A    6254 TIP4 BD1  LP0     -1.358200        0.0000           
   25017 A    6255 TIP4 O1   OW0      0.000000       15.9990           
   25018 A    6255 TIP4 H1   HW0      0.679100        1.0080           
   25019 A    6255 TIP4 H2   HW0      0.679100        1.0080           
   25020 A    6255 TIP4 BD1  LP0     -1.358200        0.0000           
   25021 A    6256 TIP4 O1   OW0      0.000000       15.9990           
   25022 A    6256 TIP4 H1   HW0      0.679100        1.0080           
   25023 A    6256 TIP4 H2   HW0      0.679100        1.0080           
   25024 A    6256 TIP4 BD1  LP0     -1.358200        0.0000           
   25025 A    6257 TIP4 O1   OW0      0.000000       15.9990           
   25026 A    6257 TIP4 H1   HW0      0.679100        1.0080           
   25027 A    6257 TIP4 H2   HW0      0.679100        1.0080           
   25028 A    6257 TIP4 BD1  LP0     -1.358200        0.0000           
   25029 A    6258 TIP4 O1   OW0      0.000000       15.9990           
   25030 A    6258 TIP4 H1   HW0      0.679100        1.0080           
   25031 A    6258 TIP4 H2   HW0      0.679100        1.0080           
   25032 A    6258 TIP4 BD1  LP0     -1.358200        0.0000           
   25033 A    6259 TIP4 O1   OW0      0.000000       15.9990           
   25034 A    6259 TIP4 H1   HW0      0.679100        1.0080           
   25035 A    6259 TIP4 H2   HW0      0.679100        1.0080           
   25036 A    6259 TIP4 BD1  LP0     -1.358200        0.0000           
   25037 A    6260 TIP4 O1   OW0      0.000000       15.9990           
   25038 A    6260 TIP4 H1   HW0      0.679100        1.0080           
   25039 A    6260 TIP4 H2   HW0      0.679100        1.0080           
   25040 A    6260 TIP4 BD1  LP0     -1.358200        0.0000           
   25041 A    6261 TIP4 O1   OW0      0.000000       15.9990           
   25042 A    6261 TIP4 H1   HW0      0.679100        1.0080           
   25043 A    6261 TIP4 H2   HW0      0.679100        1.0080           
   25044 A    6261 TIP4 BD1  LP0     -1.358200        0.0000           
   25045 A    6262 TIP4 O1   OW0      0.000000       15.9990           
   25046 A    6262 TIP4 H1   HW0      0.679100        1.0080           
   25047 A    6262 TIP4 H2   HW0      0.679100        1.0080           
   25048 A    6262 TIP4 BD1  LP0     -1.358200        0.0000           
   25049 A    6263 TIP4 O1   OW0      0.000000       15.9990           
   25050 A    6263 TIP4 H1   HW0      0.679100        1.0080           
   25051 A    6263 TIP4 H2   HW0      0.679100        1.0080           
   25052 A    6263 TIP4 BD1  LP0     -1.358200        0.0000           
   25053 A    6264 TIP4 O1   OW0      0.000000       15.9990           
   25054 A    6264 TIP4 H1   HW0      0.679100        1.0080           
   25055 A    6264 TIP4 H2   HW0      0.679100        1.0080           
   25056 A    6264 TIP4 BD1  LP0     -1.358200        0.0000           
   25057 A    6265 TIP4 O1   OW0      0.000000       15.9990           
   25058 A    6265 TIP4 H1   HW0      0.679100        1.0080           
   25059 A    6265 TIP4 H2   HW0      0.679100        1.0080           
   25060 A    6265 TIP4 BD1  LP0     -1.358200        0.0000           
   25061 A    6266 TIP4 O1   OW0      0.000000       15.9990           
   25062 A    6266 TIP4 H1   HW0      0.679100        1.0080           
   25063 A    6266 TIP4 H2   HW0      0.679100        1.0080           
   25064 A    6266 TIP4 BD1  LP0     -1.358200        0.0000           
   25065 A    6267 TIP4 O1   OW0      0.000000       15.9990           
   25066 A    6267 TIP4 H1   HW0      0.679100        1.0080           
   25067 A    6267 TIP4 H2   HW0      0.679100        1.0080           
   25068 A    6267 TIP4 BD1  LP0     -1.358200        0.0000           
   25069 A    6268 TIP4 O1   OW0      0.000000       15.9990           
   25070 A    6268 TIP4 H1   HW0      0.679100        1.0080           
   25071 A    6268 TIP4 H2   HW0      0.679100        1.0080           
   25072 A    6268 TIP4 BD1  LP0     -1.358200        0.0000           
   25073 A    6269 TIP4 O1   OW0      0.000000       15.9990           
   25074 A    6269 TIP4 H1   HW0      0.679100        1.0080           
   25075 A    6269 TIP4 H2   HW0      0.679100        1.0080           
   25076 A    6269 TIP4 BD1  LP0     -1.358200        0.0000           
   25077 A    6270 TIP4 O1   OW0      0.000000       15.9990           
   25078 A    6270 TIP4 H1   HW0      0.679100        1.0080           
   25079 A    6270 TIP4 H2   HW0      0.679100        1.0080           
   25080 A    6270 TIP4 BD1  LP0     -1.358200        0.0000           
   25081 A    6271 TIP4 O1   OW0      0.000000       15.9990           
   25082 A    6271 TIP4 H1   HW0      0.679100        1.0080           
   25083 A    6271 TIP4 H2   HW0      0.679100        1.0080           
   25084 A    6271 TIP4 BD1  LP0     -1.358200        0.0000           
   25085 A    6272 TIP4 O1   OW0      0.000000       15.9990           
   25086 A    6272 TIP4 H1   HW0      0.679100        1.0080           
   25087 A    6272 TIP4 H2   HW0      0.679100        1.0080           
   25088 A    6272 TIP4 BD1  LP0     -1.358200        0.0000           
   25089 A    6273 TIP4 O1   OW0      0.000000       15.9990           
   25090 A    6273 TIP4 H1   HW0      0.679100        1.0080           
   25091 A    6273 TIP4 H2   HW0      0.679100        1.0080           
   25092 A    6273 TIP4 BD1  LP0     -1.358200        0.0000           
   25093 A    6274 TIP4 O1   OW0      0.000000       15.9990           
   25094 A    6274 TIP4 H1   HW0      0.679100        1.0080           
   25095 A    6274 TIP4 H2   HW0      0.679100        1.0080           
   25096 A    6274 TIP4 BD1  LP0     -1.358200        0.0000           
   25097 A    6275 TIP4 O1   OW0      0.000000       15.9990           
   25098 A    6275 TIP4 H1   HW0      0.679100        1.0080           
   25099 A    6275 TIP4 H2   HW0      0.679100        1.0080           
   25100 A    6275 TIP4 BD1  LP0     -1.358200        0.0000           
   25101 A    6276 TIP4 O1   OW0      0.000000       15.9990           
   25102 A    6276 TIP4 H1   HW0      0.679100        1.0080           
   25103 A    6276 TIP4 H2   HW0      0.679100        1.0080           
   25104 A    6276 TIP4 BD1  LP0     -1.358200        0.0000           
   25105 A    6277 TIP4 O1   OW0      0.000000       15.9990           
   25106 A    6277 TIP4 H1   HW0      0.679100        1.0080           
   25107 A    6277 TIP4 H2   HW0      0.679100        1.0080           
   25108 A    6277 TIP4 BD1  LP0     -1.358200        0.0000           
   25109 A    6278 TIP4 O1   OW0      0.000000       15.9990           
   25110 A    6278 TIP4 H1   HW0      0.679100        1.0080           
   25111 A    6278 TIP4 H2   HW0      0.679100        1.0080           
   25112 A    6278 TIP4 BD1  LP0     -1.358200        0.0000           
   25113 A    6279 TIP4 O1   OW0      0.000000       15.9990           
   25114 A    6279 TIP4 H1   HW0      0.679100        1.0080           
   25115 A    6279 TIP4 H2   HW0      0.679100        1.0080           
   25116 A    6279 TIP4 BD1  LP0     -1.358200        0.0000           
   25117 A    6280 TIP4 O1   OW0      0.000000       15.9990           
   25118 A    6280 TIP4 H1   HW0      0.679100        1.0080           
   25119 A    6280 TIP4 H2   HW0      0.679100        1.0080           
   25120 A    6280 TIP4 BD1  LP0     -1.358200        0.0000           
   25121 A    6281 TIP4 O1   OW0      0.000000       15.9990           
   25122 A    6281 TIP4 H1   HW0      0.679100        1.0080           
   25123 A    6281 TIP4 H2   HW0      0.679100        1.0080           
   25124 A    6281 TIP4 BD1  LP0     -1.358200        0.0000           
   25125 A    6282 TIP4 O1   OW0      0.000000       15.9990           
   25126 A    6282 TIP4 H1   HW0      0.679100        1.0080           
   25127 A    6282 TIP4 H2   HW0      0.679100        1.0080           
   25128 A    6282 TIP4 BD1  LP0     -1.358200        0.0000           
   25129 A    6283 TIP4 O1   OW0      0.000000       15.9990           
   25130 A    6283 TIP4 H1   HW0      0.679100        1.0080           
   25131 A    6283 TIP4 H2   HW0      0.679100        1.0080           
   25132 A    6283 TIP4 BD1  LP0     -1.358200        0.0000           
   25133 A    6284 TIP4 O1   OW0      0.000000       15.9990           
   25134 A    6284 TIP4 H1   HW0      0.679100        1.0080           
   25135 A    6284 TIP4 H2   HW0      0.679100        1.0080           
   25136 A    6284 TIP4 BD1  LP0     -1.358200        0.0000           
   25137 A    6285 TIP4 O1   OW0      0.000000       15.9990           
   25138 A    6285 TIP4 H1   HW0      0.679100        1.0080           
   25139 A    6285 TIP4 H2   HW0      0.679100        1.0080           
   25140 A    6285 TIP4 BD1  LP0     -1.358200        0.0000           
   25141 A    6286 TIP4 O1   OW0      0.000000       15.9990           
   25142 A    6286 TIP4 H1   HW0      0.679100        1.0080           
   25143 A    6286 TIP4 H2   HW0      0.679100        1.0080           
   25144 A    6286 TIP4 BD1  LP0     -1.358200        0.0000           
   25145 A    6287 TIP4 O1   OW0      0.000000       15.9990           
   25146 A    6287 TIP4 H1   HW0      0.679100        1.0080           
   25147 A    6287 TIP4 H2   HW0      0.679100        1.0080           
   25148 A    6287 TIP4 BD1  LP0     -1.358200        0.0000           
   25149 A    6288 TIP4 O1   OW0      0.000000       15.9990           
   25150 A    6288 TIP4 H1   HW0      0.679100        1.0080           
   25151 A    6288 TIP4 H2   HW0      0.679100        1.0080           
   25152 A    6288 TIP4 BD1  LP0     -1.358200        0.0000           
   25153 A    6289 TIP4 O1   OW0      0.000000       15.9990           
   25154 A    6289 TIP4 H1   HW0      0.679100        1.0080           
   25155 A    6289 TIP4 H2   HW0      0.679100        1.0080           
   25156 A    6289 TIP4 BD1  LP0     -1.358200        0.0000           
   25157 A    6290 TIP4 O1   OW0      0.000000       15.9990           
   25158 A    6290 TIP4 H1   HW0      0.679100        1.0080           
   25159 A    6290 TIP4 H2   HW0      0.679100        1.0080           
   25160 A    6290 TIP4 BD1  LP0     -1.358200        0.0000           
   25161 A    6291 TIP4 O1   OW0      0.000000       15.9990           
   25162 A    6291 TIP4 H1   HW0      0.679100        1.0080           
   25163 A    6291 TIP4 H2   HW0      0.679100        1.0080           
   25164 A    6291 TIP4 BD1  LP0     -1.358200        0.0000           
   25165 A    6292 TIP4 O1   OW0      0.000000       15.9990           
   25166 A    6292 TIP4 H1   HW0      0.679100        1.0080           
   25167 A    6292 TIP4 H2   HW0      0.679100        1.0080           
   25168 A    6292 TIP4 BD1  LP0     -1.358200        0.0000           
   25169 A    6293 TIP4 O1   OW0      0.000000       15.9990           
   25170 A    6293 TIP4 H1   HW0      0.679100        1.0080           
   25171 A    6293 TIP4 H2   HW0      0.679100        1.0080           
   25172 A    6293 TIP4 BD1  LP0     -1.358200        0.0000           
   25173 A    6294 TIP4 O1   OW0      0.000000       15.9990           
   25174 A    6294 TIP4 H1   HW0      0.679100        1.0080           
   25175 A    6294 TIP4 H2   HW0      0.679100        1.0080           
   25176 A    6294 TIP4 BD1  LP0     -1.358200        0.0000           
   25177 A    6295 TIP4 O1   OW0      0.000000       15.9990           
   25178 A    6295 TIP4 H1   HW0      0.679100        1.0080           
   25179 A    6295 TIP4 H2   HW0      0.679100        1.0080           
   25180 A    6295 TIP4 BD1  LP0     -1.358200        0.0000           
   25181 A    6296 TIP4 O1   OW0      0.000000       15.9990           
   25182 A    6296 TIP4 H1   HW0      0.679100        1.0080           
   25183 A    6296 TIP4 H2   HW0      0.679100        1.0080           
   25184 A    6296 TIP4 BD1  LP0     -1.358200        0.0000           
   25185 A    6297 TIP4 O1   OW0      0.000000       15.9990           
   25186 A    6297 TIP4 H1   HW0      0.679100        1.0080           
   25187 A    6297 TIP4 H2   HW0      0.679100        1.0080           
   25188 A    6297 TIP4 BD1  LP0     -1.358200        0.0000           
   25189 A    6298 TIP4 O1   OW0      0.000000       15.9990           
   25190 A    6298 TIP4 H1   HW0      0.679100        1.0080           
   25191 A    6298 TIP4 H2   HW0      0.679100        1.0080           
   25192 A    6298 TIP4 BD1  LP0     -1.358200        0.0000           
   25193 A    6299 TIP4 O1   OW0      0.000000       15.9990           
   25194 A    6299 TIP4 H1   HW0      0.679100        1.0080           
   25195 A    6299 TIP4 H2   HW0      0.679100        1.0080           
   25196 A    6299 TIP4 BD1  LP0     -1.358200        0.0000           
   25197 A    6300 TIP4 O1   OW0      0.000000       15.9990           
   25198 A    6300 TIP4 H1   HW0      0.679100        1.0080           
   25199 A    6300 TIP4 H2   HW0      0.679100        1.0080           
   25200 A    6300 TIP4 BD1  LP0     -1.358200        0.0000           
   25201 A    6301 TIP4 O1   OW0      0.000000       15.9990           
   25202 A    6301 TIP4 H1   HW0      0.679100        1.0080           
   25203 A    6301 TIP4 H2   HW0      0.679100        1.0080           
   25204 A    6301 TIP4 BD1  LP0     -1.358200        0.0000           
   25205 A    6302 TIP4 O1   OW0      0.000000       15.9990           
   25206 A    6302 TIP4 H1   HW0      0.679100        1.0080           
   25207 A    6302 TIP4 H2   HW0      0.679100        1.0080           
   25208 A    6302 TIP4 BD1  LP0     -1.358200        0.0000           
   25209 A    6303 TIP4 O1   OW0      0.000000       15.9990           
   25210 A    6303 TIP4 H1   HW0      0.679100        1.0080           
   25211 A    6303 TIP4 H2   HW0      0.679100        1.0080           
   25212 A    6303 TIP4 BD1  LP0     -1.358200        0.0000           
   25213 A    6304 TIP4 O1   OW0      0.000000       15.9990           
   25214 A    6304 TIP4 H1   HW0      0.679100        1.0080           
   25215 A    6304 TIP4 H2   HW0      0.679100        1.0080           
   25216 A    6304 TIP4 BD1  LP0     -1.358200        0.0000           
   25217 A    6305 TIP4 O1   OW0      0.000000       15.9990           
   25218 A    6305 TIP4 H1   HW0      0.679100        1.0080           
   25219 A    6305 TIP4 H2   HW0      0.679100        1.0080           
   25220 A    6305 TIP4 BD1  LP0     -1.358200        0.0000           
   25221 A    6306 TIP4 O1   OW0      0.000000       15.9990           
   25222 A    6306 TIP4 H1   HW0      0.679100        1.0080           
   25223 A    6306 TIP4 H2   HW0      0.679100        1.0080           
   25224 A    6306 TIP4 BD1  LP0     -1.358200        0.0000           
   25225 A    6307 TIP4 O1   OW0      0.000000       15.9990           
   25226 A    6307 TIP4 H1   HW0      0.679100        1.0080           
   25227 A    6307 TIP4 H2   HW0      0.679100        1.0080           
   25228 A    6307 TIP4 BD1  LP0     -1.358200        0.0000           
   25229 A    6308 TIP4 O1   OW0      0.000000       15.9990           
   25230 A    6308 TIP4 H1   HW0      0.679100        1.0080           
   25231 A    6308 TIP4 H2   HW0      0.679100        1.0080           
   25232 A    6308 TIP4 BD1  LP0     -1.358200        0.0000           
   25233 A    6309 TIP4 O1   OW0      0.000000       15.9990           
   25234 A    6309 TIP4 H1   HW0      0.679100        1.0080           
   25235 A    6309 TIP4 H2   HW0      0.679100        1.0080           
   25236 A    6309 TIP4 BD1  LP0     -1.358200        0.0000           
   25237 A    6310 TIP4 O1   OW0      0.000000       15.9990           
   25238 A    6310 TIP4 H1   HW0      0.679100        1.0080           
   25239 A    6310 TIP4 H2   HW0      0.679100        1.0080           
   25240 A    6310 TIP4 BD1  LP0     -1.358200        0.0000           
   25241 A    6311 TIP4 O1   OW0      0.000000       15.9990           
   25242 A    6311 TIP4 H1   HW0      0.679100        1.0080           
   25243 A    6311 TIP4 H2   HW0      0.679100        1.0080           
   25244 A    6311 TIP4 BD1  LP0     -1.358200        0.0000           
   25245 A    6312 TIP4 O1   OW0      0.000000       15.9990           
   25246 A    6312 TIP4 H1   HW0      0.679100        1.0080           
   25247 A    6312 TIP4 H2   HW0      0.679100        1.0080           
   25248 A    6312 TIP4 BD1  LP0     -1.358200        0.0000           
   25249 A    6313 TIP4 O1   OW0      0.000000       15.9990           
   25250 A    6313 TIP4 H1   HW0      0.679100        1.0080           
   25251 A    6313 TIP4 H2   HW0      0.679100        1.0080           
   25252 A    6313 TIP4 BD1  LP0     -1.358200        0.0000           
   25253 A    6314 TIP4 O1   OW0      0.000000       15.9990           
   25254 A    6314 TIP4 H1   HW0      0.679100        1.0080           
   25255 A    6314 TIP4 H2   HW0      0.679100        1.0080           
   25256 A    6314 TIP4 BD1  LP0     -1.358200        0.0000           
   25257 A    6315 TIP4 O1   OW0      0.000000       15.9990           
   25258 A    6315 TIP4 H1   HW0      0.679100        1.0080           
   25259 A    6315 TIP4 H2   HW0      0.679100        1.0080           
   25260 A    6315 TIP4 BD1  LP0     -1.358200        0.0000           
   25261 A    6316 TIP4 O1   OW0      0.000000       15.9990           
   25262 A    6316 TIP4 H1   HW0      0.679100        1.0080           
   25263 A    6316 TIP4 H2   HW0      0.679100        1.0080           
   25264 A    6316 TIP4 BD1  LP0     -1.358200        0.0000           
   25265 A    6317 TIP4 O1   OW0      0.000000       15.9990           
   25266 A    6317 TIP4 H1   HW0      0.679100        1.0080           
   25267 A    6317 TIP4 H2   HW0      0.679100        1.0080           
   25268 A    6317 TIP4 BD1  LP0     -1.358200        0.0000           
   25269 A    6318 TIP4 O1   OW0      0.000000       15.9990           
   25270 A    6318 TIP4 H1   HW0      0.679100        1.0080           
   25271 A    6318 TIP4 H2   HW0      0.679100        1.0080           
   25272 A    6318 TIP4 BD1  LP0     -1.358200        0.0000           
   25273 A    6319 TIP4 O1   OW0      0.000000       15.9990           
   25274 A    6319 TIP4 H1   HW0      0.679100        1.0080           
   25275 A    6319 TIP4 H2   HW0      0.679100        1.0080           
   25276 A    6319 TIP4 BD1  LP0     -1.358200        0.0000           
   25277 A    6320 TIP4 O1   OW0      0.000000       15.9990           
   25278 A    6320 TIP4 H1   HW0      0.679100        1.0080           
   25279 A    6320 TIP4 H2   HW0      0.679100        1.0080           
   25280 A    6320 TIP4 BD1  LP0     -1.358200        0.0000           
   25281 A    6321 TIP4 O1   OW0      0.000000       15.9990           
   25282 A    6321 TIP4 H1   HW0      0.679100        1.0080           
   25283 A    6321 TIP4 H2   HW0      0.679100        1.0080           
   25284 A    6321 TIP4 BD1  LP0     -1.358200        0.0000           
   25285 A    6322 TIP4 O1   OW0      0.000000       15.9990           
   25286 A    6322 TIP4 H1   HW0      0.679100        1.0080           
   25287 A    6322 TIP4 H2   HW0      0.679100        1.0080           
   25288 A    6322 TIP4 BD1  LP0     -1.358200        0.0000           
   25289 A    6323 TIP4 O1   OW0      0.000000       15.9990           
   25290 A    6323 TIP4 H1   HW0      0.679100        1.0080           
   25291 A    6323 TIP4 H2   HW0      0.679100        1.0080           
   25292 A    6323 TIP4 BD1  LP0     -1.358200        0.0000           
   25293 A    6324 TIP4 O1   OW0      0.000000       15.9990           
   25294 A    6324 TIP4 H1   HW0      0.679100        1.0080           
   25295 A    6324 TIP4 H2   HW0      0.679100        1.0080           
   25296 A    6324 TIP4 BD1  LP0     -1.358200        0.0000           
   25297 A    6325 TIP4 O1   OW0      0.000000       15.9990           
   25298 A    6325 TIP4 H1   HW0      0.679100        1.0080           
   25299 A    6325 TIP4 H2   HW0      0.679100        1.0080           
   25300 A    6325 TIP4 BD1  LP0     -1.358200        0.0000           
   25301 A    6326 TIP4 O1   OW0      0.000000       15.9990           
   25302 A    6326 TIP4 H1   HW0      0.679100        1.0080           
   25303 A    6326 TIP4 H2   HW0      0.679100        1.0080           
   25304 A    6326 TIP4 BD1  LP0     -1.358200        0.0000           
   25305 A    6327 TIP4 O1   OW0      0.000000       15.9990           
   25306 A    6327 TIP4 H1   HW0      0.679100        1.0080           
   25307 A    6327 TIP4 H2   HW0      0.679100        1.0080           
   25308 A    6327 TIP4 BD1  LP0     -1.358200        0.0000           
   25309 A    6328 TIP4 O1   OW0      0.000000       15.9990           
   25310 A    6328 TIP4 H1   HW0      0.679100        1.0080           
   25311 A    6328 TIP4 H2   HW0      0.679100        1.0080           
   25312 A    6328 TIP4 BD1  LP0     -1.358200        0.0000           
   25313 A    6329 TIP4 O1   OW0      0.000000       15.9990           
   25314 A    6329 TIP4 H1   HW0      0.679100        1.0080           
   25315 A    6329 TIP4 H2   HW0      0.679100        1.0080           
   25316 A    6329 TIP4 BD1  LP0     -1.358200        0.0000           
   25317 A    6330 TIP4 O1   OW0      0.000000       15.9990           
   25318 A    6330 TIP4 H1   HW0      0.679100        1.0080           
   25319 A    6330 TIP4 H2   HW0      0.679100        1.0080           
   25320 A    6330 TIP4 BD1  LP0     -1.358200        0.0000           
   25321 A    6331 TIP4 O1   OW0      0.000000       15.9990           
   25322 A    6331 TIP4 H1   HW0      0.679100        1.0080           
   25323 A    6331 TIP4 H2   HW0      0.679100        1.0080           
   25324 A    6331 TIP4 BD1  LP0     -1.358200        0.0000           
   25325 A    6332 TIP4 O1   OW0      0.000000       15.9990           
   25326 A    6332 TIP4 H1   HW0      0.679100        1.0080           
   25327 A    6332 TIP4 H2   HW0      0.679100        1.0080           
   25328 A    6332 TIP4 BD1  LP0     -1.358200        0.0000           
   25329 A    6333 TIP4 O1   OW0      0.000000       15.9990           
   25330 A    6333 TIP4 H1   HW0      0.679100        1.0080           
   25331 A    6333 TIP4 H2   HW0      0.679100        1.0080           
   25332 A    6333 TIP4 BD1  LP0     -1.358200        0.0000           
   25333 A    6334 TIP4 O1   OW0      0.000000       15.9990           
   25334 A    6334 TIP4 H1   HW0      0.679100        1.0080           
   25335 A    6334 TIP4 H2   HW0      0.679100        1.0080           
   25336 A    6334 TIP4 BD1  LP0     -1.358200        0.0000           
   25337 A    6335 TIP4 O1   OW0      0.000000       15.9990           
   25338 A    6335 TIP4 H1   HW0      0.679100        1.0080           
   25339 A    6335 TIP4 H2   HW0      0.679100        1.0080           
   25340 A    6335 TIP4 BD1  LP0     -1.358200        0.0000           
   25341 A    6336 TIP4 O1   OW0      0.000000       15.9990           
   25342 A    6336 TIP4 H1   HW0      0.679100        1.0080           
   25343 A    6336 TIP4 H2   HW0      0.679100        1.0080           
   25344 A    6336 TIP4 BD1  LP0     -1.358200        0.0000           
   25345 A    6337 TIP4 O1   OW0      0.000000       15.9990           
   25346 A    6337 TIP4 H1   HW0      0.679100        1.0080           
   25347 A    6337 TIP4 H2   HW0      0.679100        1.0080           
   25348 A    6337 TIP4 BD1  LP0     -1.358200        0.0000           
   25349 A    6338 TIP4 O1   OW0      0.000000       15.9990           
   25350 A    6338 TIP4 H1   HW0      0.679100        1.0080           
   25351 A    6338 TIP4 H2   HW0      0.679100        1.0080           
   25352 A    6338 TIP4 BD1  LP0     -1.358200        0.0000           
   25353 A    6339 TIP4 O1   OW0      0.000000       15.9990           
   25354 A    6339 TIP4 H1   HW0      0.679100        1.0080           
   25355 A    6339 TIP4 H2   HW0      0.679100        1.0080           
   25356 A    6339 TIP4 BD1  LP0     -1.358200        0.0000           
   25357 A    6340 TIP4 O1   OW0      0.000000       15.9990           
   25358 A    6340 TIP4 H1   HW0      0.679100        1.0080           
   25359 A    6340 TIP4 H2   HW0      0.679100        1.0080           
   25360 A    6340 TIP4 BD1  LP0     -1.358200        0.0000           
   25361 A    6341 TIP4 O1   OW0      0.000000       15.9990           
   25362 A    6341 TIP4 H1   HW0      0.679100        1.0080           
   25363 A    6341 TIP4 H2   HW0      0.679100        1.0080           
   25364 A    6341 TIP4 BD1  LP0     -1.358200        0.0000           
   25365 A    6342 TIP4 O1   OW0      0.000000       15.9990           
   25366 A    6342 TIP4 H1   HW0      0.679100        1.0080           
   25367 A    6342 TIP4 H2   HW0      0.679100        1.0080           
   25368 A    6342 TIP4 BD1  LP0     -1.358200        0.0000           
   25369 A    6343 TIP4 O1   OW0      0.000000       15.9990           
   25370 A    6343 TIP4 H1   HW0      0.679100        1.0080           
   25371 A    6343 TIP4 H2   HW0      0.679100        1.0080           
   25372 A    6343 TIP4 BD1  LP0     -1.358200        0.0000           
   25373 A    6344 TIP4 O1   OW0      0.000000       15.9990           
   25374 A    6344 TIP4 H1   HW0      0.679100        1.0080           
   25375 A    6344 TIP4 H2   HW0      0.679100        1.0080           
   25376 A    6344 TIP4 BD1  LP0     -1.358200        0.0000           
   25377 A    6345 TIP4 O1   OW0      0.000000       15.9990           
   25378 A    6345 TIP4 H1   HW0      0.679100        1.0080           
   25379 A    6345 TIP4 H2   HW0      0.679100        1.0080           
   25380 A    6345 TIP4 BD1  LP0     -1.358200        0.0000           
   25381 A    6346 TIP4 O1   OW0      0.000000       15.9990           
   25382 A    6346 TIP4 H1   HW0      0.679100        1.0080           
   25383 A    6346 TIP4 H2   HW0      0.679100        1.0080           
   25384 A    6346 TIP4 BD1  LP0     -1.358200        0.0000           
   25385 A    6347 TIP4 O1   OW0      0.000000       15.9990           
   25386 A    6347 TIP4 H1   HW0      0.679100        1.0080           
   25387 A    6347 TIP4 H2   HW0      0.679100        1.0080           
   25388 A    6347 TIP4 BD1  LP0     -1.358200        0.0000           
   25389 A    6348 TIP4 O1   OW0      0.000000       15.9990           
   25390 A    6348 TIP4 H1   HW0      0.679100        1.0080           
   25391 A    6348 TIP4 H2   HW0      0.679100        1.0080           
   25392 A    6348 TIP4 BD1  LP0     -1.358200        0.0000           
   25393 A    6349 TIP4 O1   OW0      0.000000       15.9990           
   25394 A    6349 TIP4 H1   HW0      0.679100        1.0080           
   25395 A    6349 TIP4 H2   HW0      0.679100        1.0080           
   25396 A    6349 TIP4 BD1  LP0     -1.358200        0.0000           
   25397 A    6350 TIP4 O1   OW0      0.000000       15.9990           
   25398 A    6350 TIP4 H1   HW0      0.679100        1.0080           
   25399 A    6350 TIP4 H2   HW0      0.679100        1.0080           
   25400 A    6350 TIP4 BD1  LP0     -1.358200        0.0000           
   25401 A    6351 TIP4 O1   OW0      0.000000       15.9990           
   25402 A    6351 TIP4 H1   HW0      0.679100        1.0080           
   25403 A    6351 TIP4 H2   HW0      0.679100        1.0080           
   25404 A    6351 TIP4 BD1  LP0     -1.358200        0.0000           
   25405 A    6352 TIP4 O1   OW0      0.000000       15.9990           
   25406 A    6352 TIP4 H1   HW0      0.679100        1.0080           
   25407 A    6352 TIP4 H2   HW0      0.679100        1.0080           
   25408 A    6352 TIP4 BD1  LP0     -1.358200        0.0000           
   25409 A    6353 TIP4 O1   OW0      0.000000       15.9990           
   25410 A    6353 TIP4 H1   HW0      0.679100        1.0080           
   25411 A    6353 TIP4 H2   HW0      0.679100        1.0080           
   25412 A    6353 TIP4 BD1  LP0     -1.358200        0.0000           
   25413 A    6354 TIP4 O1   OW0      0.000000       15.9990           
   25414 A    6354 TIP4 H1   HW0      0.679100        1.0080           
   25415 A    6354 TIP4 H2   HW0      0.679100        1.0080           
   25416 A    6354 TIP4 BD1  LP0     -1.358200        0.0000           
   25417 A    6355 TIP4 O1   OW0      0.000000       15.9990           
   25418 A    6355 TIP4 H1   HW0      0.679100        1.0080           
   25419 A    6355 TIP4 H2   HW0      0.679100        1.0080           
   25420 A    6355 TIP4 BD1  LP0     -1.358200        0.0000           
   25421 A    6356 TIP4 O1   OW0      0.000000       15.9990           
   25422 A    6356 TIP4 H1   HW0      0.679100        1.0080           
   25423 A    6356 TIP4 H2   HW0      0.679100        1.0080           
   25424 A    6356 TIP4 BD1  LP0     -1.358200        0.0000           
   25425 A    6357 TIP4 O1   OW0      0.000000       15.9990           
   25426 A    6357 TIP4 H1   HW0      0.679100        1.0080           
   25427 A    6357 TIP4 H2   HW0      0.679100        1.0080           
   25428 A    6357 TIP4 BD1  LP0     -1.358200        0.0000           
   25429 A    6358 TIP4 O1   OW0      0.000000       15.9990           
   25430 A    6358 TIP4 H1   HW0      0.679100        1.0080           
   25431 A    6358 TIP4 H2   HW0      0.679100        1.0080           
   25432 A    6358 TIP4 BD1  LP0     -1.358200        0.0000           
   25433 A    6359 TIP4 O1   OW0      0.000000       15.9990           
   25434 A    6359 TIP4 H1   HW0      0.679100        1.0080           
   25435 A    6359 TIP4 H2   HW0      0.679100        1.0080           
   25436 A    6359 TIP4 BD1  LP0     -1.358200        0.0000           
   25437 A    6360 TIP4 O1   OW0      0.000000       15.9990           
   25438 A    6360 TIP4 H1   HW0      0.679100        1.0080           
   25439 A    6360 TIP4 H2   HW0      0.679100        1.0080           
   25440 A    6360 TIP4 BD1  LP0     -1.358200        0.0000           
   25441 A    6361 TIP4 O1   OW0      0.000000       15.9990           
   25442 A    6361 TIP4 H1   HW0      0.679100        1.0080           
   25443 A    6361 TIP4 H2   HW0      0.679100        1.0080           
   25444 A    6361 TIP4 BD1  LP0     -1.358200        0.0000           
   25445 A    6362 TIP4 O1   OW0      0.000000       15.9990           
   25446 A    6362 TIP4 H1   HW0      0.679100        1.0080           
   25447 A    6362 TIP4 H2   HW0      0.679100        1.0080           
   25448 A    6362 TIP4 BD1  LP0     -1.358200        0.0000           
   25449 A    6363 TIP4 O1   OW0      0.000000       15.9990           
   25450 A    6363 TIP4 H1   HW0      0.679100        1.0080           
   25451 A    6363 TIP4 H2   HW0      0.679100        1.0080           
   25452 A    6363 TIP4 BD1  LP0     -1.358200        0.0000           
   25453 A    6364 TIP4 O1   OW0      0.000000       15.9990           
   25454 A    6364 TIP4 H1   HW0      0.679100        1.0080           
   25455 A    6364 TIP4 H2   HW0      0.679100        1.0080           
   25456 A    6364 TIP4 BD1  LP0     -1.358200        0.0000           
   25457 A    6365 TIP4 O1   OW0      0.000000       15.9990           
   25458 A    6365 TIP4 H1   HW0      0.679100        1.0080           
   25459 A    6365 TIP4 H2   HW0      0.679100        1.0080           
   25460 A    6365 TIP4 BD1  LP0     -1.358200        0.0000           
   25461 A    6366 TIP4 O1   OW0      0.000000       15.9990           
   25462 A    6366 TIP4 H1   HW0      0.679100        1.0080           
   25463 A    6366 TIP4 H2   HW0      0.679100        1.0080           
   25464 A    6366 TIP4 BD1  LP0     -1.358200        0.0000           
   25465 A    6367 TIP4 O1   OW0      0.000000       15.9990           
   25466 A    6367 TIP4 H1   HW0      0.679100        1.0080           
   25467 A    6367 TIP4 H2   HW0      0.679100        1.0080           
   25468 A    6367 TIP4 BD1  LP0     -1.358200        0.0000           
   25469 A    6368 TIP4 O1   OW0      0.000000       15.9990           
   25470 A    6368 TIP4 H1   HW0      0.679100        1.0080           
   25471 A    6368 TIP4 H2   HW0      0.679100        1.0080           
   25472 A    6368 TIP4 BD1  LP0     -1.358200        0.0000           
   25473 A    6369 TIP4 O1   OW0      0.000000       15.9990           
   25474 A    6369 TIP4 H1   HW0      0.679100        1.0080           
   25475 A    6369 TIP4 H2   HW0      0.679100        1.0080           
   25476 A    6369 TIP4 BD1  LP0     -1.358200        0.0000           
   25477 A    6370 TIP4 O1   OW0      0.000000       15.9990           
   25478 A    6370 TIP4 H1   HW0      0.679100        1.0080           
   25479 A    6370 TIP4 H2   HW0      0.679100        1.0080           
   25480 A    6370 TIP4 BD1  LP0     -1.358200        0.0000           
   25481 A    6371 TIP4 O1   OW0      0.000000       15.9990           
   25482 A    6371 TIP4 H1   HW0      0.679100        1.0080           
   25483 A    6371 TIP4 H2   HW0      0.679100        1.0080           
   25484 A    6371 TIP4 BD1  LP0     -1.358200        0.0000           
   25485 A    6372 TIP4 O1   OW0      0.000000       15.9990           
   25486 A    6372 TIP4 H1   HW0      0.679100        1.0080           
   25487 A    6372 TIP4 H2   HW0      0.679100        1.0080           
   25488 A    6372 TIP4 BD1  LP0     -1.358200        0.0000           
   25489 A    6373 TIP4 O1   OW0      0.000000       15.9990           
   25490 A    6373 TIP4 H1   HW0      0.679100        1.0080           
   25491 A    6373 TIP4 H2   HW0      0.679100        1.0080           
   25492 A    6373 TIP4 BD1  LP0     -1.358200        0.0000           
   25493 A    6374 TIP4 O1   OW0      0.000000       15.9990           
   25494 A    6374 TIP4 H1   HW0      0.679100        1.0080           
   25495 A    6374 TIP4 H2   HW0      0.679100        1.0080           
   25496 A    6374 TIP4 BD1  LP0     -1.358200        0.0000           
   25497 A    6375 TIP4 O1   OW0      0.000000       15.9990           
   25498 A    6375 TIP4 H1   HW0      0.679100        1.0080           
   25499 A    6375 TIP4 H2   HW0      0.679100        1.0080           
   25500 A    6375 TIP4 BD1  LP0     -1.358200        0.0000           
   25501 A    6376 TIP4 O1   OW0      0.000000       15.9990           
   25502 A    6376 TIP4 H1   HW0      0.679100        1.0080           
   25503 A    6376 TIP4 H2   HW0      0.679100        1.0080           
   25504 A    6376 TIP4 BD1  LP0     -1.358200        0.0000           
   25505 A    6377 TIP4 O1   OW0      0.000000       15.9990           
   25506 A    6377 TIP4 H1   HW0      0.679100        1.0080           
   25507 A    6377 TIP4 H2   HW0      0.679100        1.0080           
   25508 A    6377 TIP4 BD1  LP0     -1.358200        0.0000           
   25509 A    6378 TIP4 O1   OW0      0.000000       15.9990           
   25510 A    6378 TIP4 H1   HW0      0.679100        1.0080           
   25511 A    6378 TIP4 H2   HW0      0.679100        1.0080           
   25512 A    6378 TIP4 BD1  LP0     -1.358200        0.0000           
   25513 A    6379 TIP4 O1   OW0      0.000000       15.9990           
   25514 A    6379 TIP4 H1   HW0      0.679100        1.0080           
   25515 A    6379 TIP4 H2   HW0      0.679100        1.0080           
   25516 A    6379 TIP4 BD1  LP0     -1.358200        0.0000           
   25517 A    6380 TIP4 O1   OW0      0.000000       15.9990           
   25518 A    6380 TIP4 H1   HW0      0.679100        1.0080           
   25519 A    6380 TIP4 H2   HW0      0.679100        1.0080           
   25520 A    6380 TIP4 BD1  LP0     -1.358200        0.0000           
   25521 A    6381 TIP4 O1   OW0      0.000000       15.9990           
   25522 A    6381 TIP4 H1   HW0      0.679100        1.0080           
   25523 A    6381 TIP4 H2   HW0      0.679100        1.0080           
   25524 A    6381 TIP4 BD1  LP0     -1.358200        0.0000           
   25525 A    6382 TIP4 O1   OW0      0.000000       15.9990           
   25526 A    6382 TIP4 H1   HW0      0.679100        1.0080           
   25527 A    6382 TIP4 H2   HW0      0.679100        1.0080           
   25528 A    6382 TIP4 BD1  LP0     -1.358200        0.0000           
   25529 A    6383 TIP4 O1   OW0      0.000000       15.9990           
   25530 A    6383 TIP4 H1   HW0      0.679100        1.0080           
   25531 A    6383 TIP4 H2   HW0      0.679100        1.0080           
   25532 A    6383 TIP4 BD1  LP0     -1.358200        0.0000           
   25533 A    6384 TIP4 O1   OW0      0.000000       15.9990           
   25534 A    6384 TIP4 H1   HW0      0.679100        1.0080           
   25535 A    6384 TIP4 H2   HW0      0.679100        1.0080           
   25536 A    6384 TIP4 BD1  LP0     -1.358200        0.0000           
   25537 A    6385 TIP4 O1   OW0      0.000000       15.9990           
   25538 A    6385 TIP4 H1   HW0      0.679100        1.0080           
   25539 A    6385 TIP4 H2   HW0      0.679100        1.0080           
   25540 A    6385 TIP4 BD1  LP0     -1.358200        0.0000           
   25541 A    6386 TIP4 O1   OW0      0.000000       15.9990           
   25542 A    6386 TIP4 H1   HW0      0.679100        1.0080           
   25543 A    6386 TIP4 H2   HW0      0.679100        1.0080           
   25544 A    6386 TIP4 BD1  LP0     -1.358200        0.0000           
   25545 A    6387 TIP4 O1   OW0      0.000000       15.9990           
   25546 A    6387 TIP4 H1   HW0      0.679100        1.0080           
   25547 A    6387 TIP4 H2   HW0      0.679100        1.0080           
   25548 A    6387 TIP4 BD1  LP0     -1.358200        0.0000           
   25549 A    6388 TIP4 O1   OW0      0.000000       15.9990           
   25550 A    6388 TIP4 H1   HW0      0.679100        1.0080           
   25551 A    6388 TIP4 H2   HW0      0.679100        1.0080           
   25552 A    6388 TIP4 BD1  LP0     -1.358200        0.0000           
   25553 A    6389 TIP4 O1   OW0      0.000000       15.9990           
   25554 A    6389 TIP4 H1   HW0      0.679100        1.0080           
   25555 A    6389 TIP4 H2   HW0      0.679100        1.0080           
   25556 A    6389 TIP4 BD1  LP0     -1.358200        0.0000           
   25557 A    6390 TIP4 O1   OW0      0.000000       15.9990           
   25558 A    6390 TIP4 H1   HW0      0.679100        1.0080           
   25559 A    6390 TIP4 H2   HW0      0.679100        1.0080           
   25560 A    6390 TIP4 BD1  LP0     -1.358200        0.0000           
   25561 A    6391 TIP4 O1   OW0      0.000000       15.9990           
   25562 A    6391 TIP4 H1   HW0      0.679100        1.0080           
   25563 A    6391 TIP4 H2   HW0      0.679100        1.0080           
   25564 A    6391 TIP4 BD1  LP0     -1.358200        0.0000           
   25565 A    6392 TIP4 O1   OW0      0.000000       15.9990           
   25566 A    6392 TIP4 H1   HW0      0.679100        1.0080           
   25567 A    6392 TIP4 H2   HW0      0.679100        1.0080           
   25568 A    6392 TIP4 BD1  LP0     -1.358200        0.0000           
   25569 A    6393 TIP4 O1   OW0      0.000000       15.9990           
   25570 A    6393 TIP4 H1   HW0      0.679100        1.0080           
   25571 A    6393 TIP4 H2   HW0      0.679100        1.0080           
   25572 A    6393 TIP4 BD1  LP0     -1.358200        0.0000           
   25573 A    6394 TIP4 O1   OW0      0.000000       15.9990           
   25574 A    6394 TIP4 H1   HW0      0.679100        1.0080           
   25575 A    6394 TIP4 H2   HW0      0.679100        1.0080           
   25576 A    6394 TIP4 BD1  LP0     -1.358200        0.0000           
   25577 A    6395 TIP4 O1   OW0      0.000000       15.9990           
   25578 A    6395 TIP4 H1   HW0      0.679100        1.0080           
   25579 A    6395 TIP4 H2   HW0      0.679100        1.0080           
   25580 A    6395 TIP4 BD1  LP0     -1.358200        0.0000           
   25581 A    6396 TIP4 O1   OW0      0.000000       15.9990           
   25582 A    6396 TIP4 H1   HW0      0.679100        1.0080           
   25583 A    6396 TIP4 H2   HW0      0.679100        1.0080           
   25584 A    6396 TIP4 BD1  LP0     -1.358200        0.0000           
   25585 A    6397 TIP4 O1   OW0      0.000000       15.9990           
   25586 A    6397 TIP4 H1   HW0      0.679100        1.0080           
   25587 A    6397 TIP4 H2   HW0      0.679100        1.0080           
   25588 A    6397 TIP4 BD1  LP0     -1.358200        0.0000           
   25589 A    6398 TIP4 O1   OW0      0.000000       15.9990           
   25590 A    6398 TIP4 H1   HW0      0.679100        1.0080           
   25591 A    6398 TIP4 H2   HW0      0.679100        1.0080           
   25592 A    6398 TIP4 BD1  LP0     -1.358200        0.0000           
   25593 A    6399 TIP4 O1   OW0      0.000000       15.9990           
   25594 A    6399 TIP4 H1   HW0      0.679100        1.0080           
   25595 A    6399 TIP4 H2   HW0      0.679100        1.0080           
   25596 A    6399 TIP4 BD1  LP0     -1.358200        0.0000           
   25597 A    6400 TIP4 O1   OW0      0.000000       15.9990           
   25598 A    6400 TIP4 H1   HW0      0.679100        1.0080           
   25599 A    6400 TIP4 H2   HW0      0.679100        1.0080           
   25600 A    6400 TIP4 BD1  LP0     -1.358200        0.0000           
   25601 A    6401 TIP4 O1   OW0      0.000000       15.9990           
   25602 A    6401 TIP4 H1   HW0      0.679100        1.0080           
   25603 A    6401 TIP4 H2   HW0      0.679100        1.0080           
   25604 A    6401 TIP4 BD1  LP0     -1.358200        0.0000           
   25605 A    6402 TIP4 O1   OW0      0.000000       15.9990           
   25606 A    6402 TIP4 H1   HW0      0.679100        1.0080           
   25607 A    6402 TIP4 H2   HW0      0.679100        1.0080           
   25608 A    6402 TIP4 BD1  LP0     -1.358200        0.0000           
   25609 A    6403 TIP4 O1   OW0      0.000000       15.9990           
   25610 A    6403 TIP4 H1   HW0      0.679100        1.0080           
   25611 A    6403 TIP4 H2   HW0      0.679100        1.0080           
   25612 A    6403 TIP4 BD1  LP0     -1.358200        0.0000           
   25613 A    6404 TIP4 O1   OW0      0.000000       15.9990           
   25614 A    6404 TIP4 H1   HW0      0.679100        1.0080           
   25615 A    6404 TIP4 H2   HW0      0.679100        1.0080           
   25616 A    6404 TIP4 BD1  LP0     -1.358200        0.0000           
   25617 A    6405 TIP4 O1   OW0      0.000000       15.9990           
   25618 A    6405 TIP4 H1   HW0      0.679100        1.0080           
   25619 A    6405 TIP4 H2   HW0      0.679100        1.0080           
   25620 A    6405 TIP4 BD1  LP0     -1.358200        0.0000           
   25621 A    6406 TIP4 O1   OW0      0.000000       15.9990           
   25622 A    6406 TIP4 H1   HW0      0.679100        1.0080           
   25623 A    6406 TIP4 H2   HW0      0.679100        1.0080           
   25624 A    6406 TIP4 BD1  LP0     -1.358200        0.0000           
   25625 A    6407 TIP4 O1   OW0      0.000000       15.9990           
   25626 A    6407 TIP4 H1   HW0      0.679100        1.0080           
   25627 A    6407 TIP4 H2   HW0      0.679100        1.0080           
   25628 A    6407 TIP4 BD1  LP0     -1.358200        0.0000           
   25629 A    6408 TIP4 O1   OW0      0.000000       15.9990           
   25630 A    6408 TIP4 H1   HW0      0.679100        1.0080           
   25631 A    6408 TIP4 H2   HW0      0.679100        1.0080           
   25632 A    6408 TIP4 BD1  LP0     -1.358200        0.0000           
   25633 A    6409 TIP4 O1   OW0      0.000000       15.9990           
   25634 A    6409 TIP4 H1   HW0      0.679100        1.0080           
   25635 A    6409 TIP4 H2   HW0      0.679100        1.0080           
   25636 A    6409 TIP4 BD1  LP0     -1.358200        0.0000           
   25637 A    6410 TIP4 O1   OW0      0.000000       15.9990           
   25638 A    6410 TIP4 H1   HW0      0.679100        1.0080           
   25639 A    6410 TIP4 H2   HW0      0.679100        1.0080           
   25640 A    6410 TIP4 BD1  LP0     -1.358200        0.0000           
   25641 A    6411 TIP4 O1   OW0      0.000000       15.9990           
   25642 A    6411 TIP4 H1   HW0      0.679100        1.0080           
   25643 A    6411 TIP4 H2   HW0      0.679100        1.0080           
   25644 A    6411 TIP4 BD1  LP0     -1.358200        0.0000           
   25645 A    6412 TIP4 O1   OW0      0.000000       15.9990           
   25646 A    6412 TIP4 H1   HW0      0.679100        1.0080           
   25647 A    6412 TIP4 H2   HW0      0.679100        1.0080           
   25648 A    6412 TIP4 BD1  LP0     -1.358200        0.0000           
   25649 A    6413 TIP4 O1   OW0      0.000000       15.9990           
   25650 A    6413 TIP4 H1   HW0      0.679100        1.0080           
   25651 A    6413 TIP4 H2   HW0      0.679100        1.0080           
   25652 A    6413 TIP4 BD1  LP0     -1.358200        0.0000           
   25653 A    6414 TIP4 O1   OW0      0.000000       15.9990           
   25654 A    6414 TIP4 H1   HW0      0.679100        1.0080           
   25655 A    6414 TIP4 H2   HW0      0.679100        1.0080           
   25656 A    6414 TIP4 BD1  LP0     -1.358200        0.0000           
   25657 A    6415 TIP4 O1   OW0      0.000000       15.9990           
   25658 A    6415 TIP4 H1   HW0      0.679100        1.0080           
   25659 A    6415 TIP4 H2   HW0      0.679100        1.0080           
   25660 A    6415 TIP4 BD1  LP0     -1.358200        0.0000           
   25661 A    6416 TIP4 O1   OW0      0.000000       15.9990           
   25662 A    6416 TIP4 H1   HW0      0.679100        1.0080           
   25663 A    6416 TIP4 H2   HW0      0.679100        1.0080           
   25664 A    6416 TIP4 BD1  LP0     -1.358200        0.0000           
   25665 A    6417 TIP4 O1   OW0      0.000000       15.9990           
   25666 A    6417 TIP4 H1   HW0      0.679100        1.0080           
   25667 A    6417 TIP4 H2   HW0      0.679100        1.0080           
   25668 A    6417 TIP4 BD1  LP0     -1.358200        0.0000           
   25669 A    6418 TIP4 O1   OW0      0.000000       15.9990           
   25670 A    6418 TIP4 H1   HW0      0.679100        1.0080           
   25671 A    6418 TIP4 H2   HW0      0.679100        1.0080           
   25672 A    6418 TIP4 BD1  LP0     -1.358200        0.0000           
   25673 A    6419 TIP4 O1   OW0      0.000000       15.9990           
   25674 A    6419 TIP4 H1   HW0      0.679100        1.0080           
   25675 A    6419 TIP4 H2   HW0      0.679100        1.0080           
   25676 A    6419 TIP4 BD1  LP0     -1.358200        0.0000           
   25677 A    6420 TIP4 O1   OW0      0.000000       15.9990           
   25678 A    6420 TIP4 H1   HW0      0.679100        1.0080           
   25679 A    6420 TIP4 H2   HW0      0.679100        1.0080           
   25680 A    6420 TIP4 BD1  LP0     -1.358200        0.0000           
   25681 A    6421 TIP4 O1   OW0      0.000000       15.9990           
   25682 A    6421 TIP4 H1   HW0      0.679100        1.0080           
   25683 A    6421 TIP4 H2   HW0      0.679100        1.0080           
   25684 A    6421 TIP4 BD1  LP0     -1.358200        0.0000           
   25685 A    6422 TIP4 O1   OW0      0.000000       15.9990           
   25686 A    6422 TIP4 H1   HW0      0.679100        1.0080           
   25687 A    6422 TIP4 H2   HW0      0.679100        1.0080           
   25688 A    6422 TIP4 BD1  LP0     -1.358200        0.0000           
   25689 A    6423 TIP4 O1   OW0      0.000000       15.9990           
   25690 A    6423 TIP4 H1   HW0      0.679100        1.0080           
   25691 A    6423 TIP4 H2   HW0      0.679100        1.0080           
   25692 A    6423 TIP4 BD1  LP0     -1.358200        0.0000           
   25693 A    6424 TIP4 O1   OW0      0.000000       15.9990           
   25694 A    6424 TIP4 H1   HW0      0.679100        1.0080           
   25695 A    6424 TIP4 H2   HW0      0.679100        1.0080           
   25696 A    6424 TIP4 BD1  LP0     -1.358200        0.0000           
   25697 A    6425 TIP4 O1   OW0      0.000000       15.9990           
   25698 A    6425 TIP4 H1   HW0      0.679100        1.0080           
   25699 A    6425 TIP4 H2   HW0      0.679100        1.0080           
   25700 A    6425 TIP4 BD1  LP0     -1.358200        0.0000           
   25701 A    6426 TIP4 O1   OW0      0.000000       15.9990           
   25702 A    6426 TIP4 H1   HW0      0.679100        1.0080           
   25703 A    6426 TIP4 H2   HW0      0.679100        1.0080           
   25704 A    6426 TIP4 BD1  LP0     -1.358200        0.0000           
   25705 A    6427 TIP4 O1   OW0      0.000000       15.9990           
   25706 A    6427 TIP4 H1   HW0      0.679100        1.0080           
   25707 A    6427 TIP4 H2   HW0      0.679100        1.0080           
   25708 A    6427 TIP4 BD1  LP0     -1.358200        0.0000           
   25709 A    6428 TIP4 O1   OW0      0.000000       15.9990           
   25710 A    6428 TIP4 H1   HW0      0.679100        1.0080           
   25711 A    6428 TIP4 H2   HW0      0.679100        1.0080           
   25712 A    6428 TIP4 BD1  LP0     -1.358200        0.0000           
   25713 A    6429 TIP4 O1   OW0      0.000000       15.9990           
   25714 A    6429 TIP4 H1   HW0      0.679100        1.0080           
   25715 A    6429 TIP4 H2   HW0      0.679100        1.0080           
   25716 A    6429 TIP4 BD1  LP0     -1.358200        0.0000           
   25717 A    6430 TIP4 O1   OW0      0.000000       15.9990           
   25718 A    6430 TIP4 H1   HW0      0.679100        1.0080           
   25719 A    6430 TIP4 H2   HW0      0.679100        1.0080           
   25720 A    6430 TIP4 BD1  LP0     -1.358200        0.0000           
   25721 A    6431 TIP4 O1   OW0      0.000000       15.9990           
   25722 A    6431 TIP4 H1   HW0      0.679100        1.0080           
   25723 A    6431 TIP4 H2   HW0      0.679100        1.0080           
   25724 A    6431 TIP4 BD1  LP0     -1.358200        0.0000           
   25725 A    6432 TIP4 O1   OW0      0.000000       15.9990           
   25726 A    6432 TIP4 H1   HW0      0.679100        1.0080           
   25727 A    6432 TIP4 H2   HW0      0.679100        1.0080           
   25728 A    6432 TIP4 BD1  LP0     -1.358200        0.0000           
   25729 A    6433 TIP4 O1   OW0      0.000000       15.9990           
   25730 A    6433 TIP4 H1   HW0      0.679100        1.0080           
   25731 A    6433 TIP4 H2   HW0      0.679100        1.0080           
   25732 A    6433 TIP4 BD1  LP0     -1.358200        0.0000           
   25733 A    6434 TIP4 O1   OW0      0.000000       15.9990           
   25734 A    6434 TIP4 H1   HW0      0.679100        1.0080           
   25735 A    6434 TIP4 H2   HW0      0.679100        1.0080           
   25736 A    6434 TIP4 BD1  LP0     -1.358200        0.0000           
   25737 A    6435 TIP4 O1   OW0      0.000000       15.9990           
   25738 A    6435 TIP4 H1   HW0      0.679100        1.0080           
   25739 A    6435 TIP4 H2   HW0      0.679100        1.0080           
   25740 A    6435 TIP4 BD1  LP0     -1.358200        0.0000           
   25741 A    6436 TIP4 O1   OW0      0.000000       15.9990           
   25742 A    6436 TIP4 H1   HW0      0.679100        1.0080           
   25743 A    6436 TIP4 H2   HW0      0.679100        1.0080           
   25744 A    6436 TIP4 BD1  LP0     -1.358200        0.0000           
   25745 A    6437 TIP4 O1   OW0      0.000000       15.9990           
   25746 A    6437 TIP4 H1   HW0      0.679100        1.0080           
   25747 A    6437 TIP4 H2   HW0      0.679100        1.0080           
   25748 A    6437 TIP4 BD1  LP0     -1.358200        0.0000           
   25749 A    6438 TIP4 O1   OW0      0.000000       15.9990           
   25750 A    6438 TIP4 H1   HW0      0.679100        1.0080           
   25751 A    6438 TIP4 H2   HW0      0.679100        1.0080           
   25752 A    6438 TIP4 BD1  LP0     -1.358200        0.0000           
   25753 A    6439 TIP4 O1   OW0      0.000000       15.9990           
   25754 A    6439 TIP4 H1   HW0      0.679100        1.0080           
   25755 A    6439 TIP4 H2   HW0      0.679100        1.0080           
   25756 A    6439 TIP4 BD1  LP0     -1.358200        0.0000           
   25757 A    6440 TIP4 O1   OW0      0.000000       15.9990           
   25758 A    6440 TIP4 H1   HW0      0.679100        1.0080           
   25759 A    6440 TIP4 H2   HW0      0.679100        1.0080           
   25760 A    6440 TIP4 BD1  LP0     -1.358200        0.0000           
   25761 A    6441 TIP4 O1   OW0      0.000000       15.9990           
   25762 A    6441 TIP4 H1   HW0      0.679100        1.0080           
   25763 A    6441 TIP4 H2   HW0      0.679100        1.0080           
   25764 A    6441 TIP4 BD1  LP0     -1.358200        0.0000           
   25765 A    6442 TIP4 O1   OW0      0.000000       15.9990           
   25766 A    6442 TIP4 H1   HW0      0.679100        1.0080           
   25767 A    6442 TIP4 H2   HW0      0.679100        1.0080           
   25768 A    6442 TIP4 BD1  LP0     -1.358200        0.0000           
   25769 A    6443 TIP4 O1   OW0      0.000000       15.9990           
   25770 A    6443 TIP4 H1   HW0      0.679100        1.0080           
   25771 A    6443 TIP4 H2   HW0      0.679100        1.0080           
   25772 A    6443 TIP4 BD1  LP0     -1.358200        0.0000           
   25773 A    6444 TIP4 O1   OW0      0.000000       15.9990           
   25774 A    6444 TIP4 H1   HW0      0.679100        1.0080           
   25775 A    6444 TIP4 H2   HW0      0.679100        1.0080           
   25776 A    6444 TIP4 BD1  LP0     -1.358200        0.0000           
   25777 A    6445 TIP4 O1   OW0      0.000000       15.9990           
   25778 A    6445 TIP4 H1   HW0      0.679100        1.0080           
   25779 A    6445 TIP4 H2   HW0      0.679100        1.0080           
   25780 A    6445 TIP4 BD1  LP0     -1.358200        0.0000           
   25781 A    6446 TIP4 O1   OW0      0.000000       15.9990           
   25782 A    6446 TIP4 H1   HW0      0.679100        1.0080           
   25783 A    6446 TIP4 H2   HW0      0.679100        1.0080           
   25784 A    6446 TIP4 BD1  LP0     -1.358200        0.0000           
   25785 A    6447 TIP4 O1   OW0      0.000000       15.9990           
   25786 A    6447 TIP4 H1   HW0      0.679100        1.0080           
   25787 A    6447 TIP4 H2   HW0      0.679100        1.0080           
   25788 A    6447 TIP4 BD1  LP0     -1.358200        0.0000           
   25789 A    6448 TIP4 O1   OW0      0.000000       15.9990           
   25790 A    6448 TIP4 H1   HW0      0.679100        1.0080           
   25791 A    6448 TIP4 H2   HW0      0.679100        1.0080           
   25792 A    6448 TIP4 BD1  LP0     -1.358200        0.0000           
   25793 A    6449 TIP4 O1   OW0      0.000000       15.9990           
   25794 A    6449 TIP4 H1   HW0      0.679100        1.0080           
   25795 A    6449 TIP4 H2   HW0      0.679100        1.0080           
   25796 A    6449 TIP4 BD1  LP0     -1.358200        0.0000           
   25797 A    6450 TIP4 O1   OW0      0.000000       15.9990           
   25798 A    6450 TIP4 H1   HW0      0.679100        1.0080           
   25799 A    6450 TIP4 H2   HW0      0.679100        1.0080           
   25800 A    6450 TIP4 BD1  LP0     -1.358200        0.0000           
   25801 A    6451 TIP4 O1   OW0      0.000000       15.9990           
   25802 A    6451 TIP4 H1   HW0      0.679100        1.0080           
   25803 A    6451 TIP4 H2   HW0      0.679100        1.0080           
   25804 A    6451 TIP4 BD1  LP0     -1.358200        0.0000           
   25805 A    6452 TIP4 O1   OW0      0.000000       15.9990           
   25806 A    6452 TIP4 H1   HW0      0.679100        1.0080           
   25807 A    6452 TIP4 H2   HW0      0.679100        1.0080           
   25808 A    6452 TIP4 BD1  LP0     -1.358200        0.0000           
   25809 A    6453 TIP4 O1   OW0      0.000000       15.9990           
   25810 A    6453 TIP4 H1   HW0      0.679100        1.0080           
   25811 A    6453 TIP4 H2   HW0      0.679100        1.0080           
   25812 A    6453 TIP4 BD1  LP0     -1.358200        0.0000           
   25813 A    6454 TIP4 O1   OW0      0.000000       15.9990           
   25814 A    6454 TIP4 H1   HW0      0.679100        1.0080           
   25815 A    6454 TIP4 H2   HW0      0.679100        1.0080           
   25816 A    6454 TIP4 BD1  LP0     -1.358200        0.0000           
   25817 A    6455 TIP4 O1   OW0      0.000000       15.9990           
   25818 A    6455 TIP4 H1   HW0      0.679100        1.0080           
   25819 A    6455 TIP4 H2   HW0      0.679100        1.0080           
   25820 A    6455 TIP4 BD1  LP0     -1.358200        0.0000           
   25821 A    6456 TIP4 O1   OW0      0.000000       15.9990           
   25822 A    6456 TIP4 H1   HW0      0.679100        1.0080           
   25823 A    6456 TIP4 H2   HW0      0.679100        1.0080           
   25824 A    6456 TIP4 BD1  LP0     -1.358200        0.0000           
   25825 A    6457 TIP4 O1   OW0      0.000000       15.9990           
   25826 A    6457 TIP4 H1   HW0      0.679100        1.0080           
   25827 A    6457 TIP4 H2   HW0      0.679100        1.0080           
   25828 A    6457 TIP4 BD1  LP0     -1.358200        0.0000           
   25829 A    6458 TIP4 O1   OW0      0.000000       15.9990           
   25830 A    6458 TIP4 H1   HW0      0.679100        1.0080           
   25831 A    6458 TIP4 H2   HW0      0.679100        1.0080           
   25832 A    6458 TIP4 BD1  LP0     -1.358200        0.0000           
   25833 A    6459 TIP4 O1   OW0      0.000000       15.9990           
   25834 A    6459 TIP4 H1   HW0      0.679100        1.0080           
   25835 A    6459 TIP4 H2   HW0      0.679100        1.0080           
   25836 A    6459 TIP4 BD1  LP0     -1.358200        0.0000           
   25837 A    6460 TIP4 O1   OW0      0.000000       15.9990           
   25838 A    6460 TIP4 H1   HW0      0.679100        1.0080           
   25839 A    6460 TIP4 H2   HW0      0.679100        1.0080           
   25840 A    6460 TIP4 BD1  LP0     -1.358200        0.0000           
   25841 A    6461 TIP4 O1   OW0      0.000000       15.9990           
   25842 A    6461 TIP4 H1   HW0      0.679100        1.0080           
   25843 A    6461 TIP4 H2   HW0      0.679100        1.0080           
   25844 A    6461 TIP4 BD1  LP0     -1.358200        0.0000           
   25845 A    6462 TIP4 O1   OW0      0.000000       15.9990           
   25846 A    6462 TIP4 H1   HW0      0.679100        1.0080           
   25847 A    6462 TIP4 H2   HW0      0.679100        1.0080           
   25848 A    6462 TIP4 BD1  LP0     -1.358200        0.0000           
   25849 A    6463 TIP4 O1   OW0      0.000000       15.9990           
   25850 A    6463 TIP4 H1   HW0      0.679100        1.0080           
   25851 A    6463 TIP4 H2   HW0      0.679100        1.0080           
   25852 A    6463 TIP4 BD1  LP0     -1.358200        0.0000           
   25853 A    6464 TIP4 O1   OW0      0.000000       15.9990           
   25854 A    6464 TIP4 H1   HW0      0.679100        1.0080           
   25855 A    6464 TIP4 H2   HW0      0.679100        1.0080           
   25856 A    6464 TIP4 BD1  LP0     -1.358200        0.0000           
   25857 A    6465 TIP4 O1   OW0      0.000000       15.9990           
   25858 A    6465 TIP4 H1   HW0      0.679100        1.0080           
   25859 A    6465 TIP4 H2   HW0      0.679100        1.0080           
   25860 A    6465 TIP4 BD1  LP0     -1.358200        0.0000           
   25861 A    6466 TIP4 O1   OW0      0.000000       15.9990           
   25862 A    6466 TIP4 H1   HW0      0.679100        1.0080           
   25863 A    6466 TIP4 H2   HW0      0.679100        1.0080           
   25864 A    6466 TIP4 BD1  LP0     -1.358200        0.0000           
   25865 A    6467 TIP4 O1   OW0      0.000000       15.9990           
   25866 A    6467 TIP4 H1   HW0      0.679100        1.0080           
   25867 A    6467 TIP4 H2   HW0      0.679100        1.0080           
   25868 A    6467 TIP4 BD1  LP0     -1.358200        0.0000           
   25869 A    6468 TIP4 O1   OW0      0.000000       15.9990           
   25870 A    6468 TIP4 H1   HW0      0.679100        1.0080           
   25871 A    6468 TIP4 H2   HW0      0.679100        1.0080           
   25872 A    6468 TIP4 BD1  LP0     -1.358200        0.0000           
   25873 A    6469 TIP4 O1   OW0      0.000000       15.9990           
   25874 A    6469 TIP4 H1   HW0      0.679100        1.0080           
   25875 A    6469 TIP4 H2   HW0      0.679100        1.0080           
   25876 A    6469 TIP4 BD1  LP0     -1.358200        0.0000           
   25877 A    6470 TIP4 O1   OW0      0.000000       15.9990           
   25878 A    6470 TIP4 H1   HW0      0.679100        1.0080           
   25879 A    6470 TIP4 H2   HW0      0.679100        1.0080           
   25880 A    6470 TIP4 BD1  LP0     -1.358200        0.0000           
   25881 A    6471 TIP4 O1   OW0      0.000000       15.9990           
   25882 A    6471 TIP4 H1   HW0      0.679100        1.0080           
   25883 A    6471 TIP4 H2   HW0      0.679100        1.0080           
   25884 A    6471 TIP4 BD1  LP0     -1.358200        0.0000           
   25885 A    6472 TIP4 O1   OW0      0.000000       15.9990           
   25886 A    6472 TIP4 H1   HW0      0.679100        1.0080           
   25887 A    6472 TIP4 H2   HW0      0.679100        1.0080           
   25888 A    6472 TIP4 BD1  LP0     -1.358200        0.0000           
   25889 A    6473 TIP4 O1   OW0      0.000000       15.9990           
   25890 A    6473 TIP4 H1   HW0      0.679100        1.0080           
   25891 A    6473 TIP4 H2   HW0      0.679100        1.0080           
   25892 A    6473 TIP4 BD1  LP0     -1.358200        0.0000           
   25893 A    6474 TIP4 O1   OW0      0.000000       15.9990           
   25894 A    6474 TIP4 H1   HW0      0.679100        1.0080           
   25895 A    6474 TIP4 H2   HW0      0.679100        1.0080           
   25896 A    6474 TIP4 BD1  LP0     -1.358200        0.0000           
   25897 A    6475 TIP4 O1   OW0      0.000000       15.9990           
   25898 A    6475 TIP4 H1   HW0      0.679100        1.0080           
   25899 A    6475 TIP4 H2   HW0      0.679100        1.0080           
   25900 A    6475 TIP4 BD1  LP0     -1.358200        0.0000           
   25901 A    6476 TIP4 O1   OW0      0.000000       15.9990           
   25902 A    6476 TIP4 H1   HW0      0.679100        1.0080           
   25903 A    6476 TIP4 H2   HW0      0.679100        1.0080           
   25904 A    6476 TIP4 BD1  LP0     -1.358200        0.0000           
   25905 A    6477 TIP4 O1   OW0      0.000000       15.9990           
   25906 A    6477 TIP4 H1   HW0      0.679100        1.0080           
   25907 A    6477 TIP4 H2   HW0      0.679100        1.0080           
   25908 A    6477 TIP4 BD1  LP0     -1.358200        0.0000           
   25909 A    6478 TIP4 O1   OW0      0.000000       15.9990           
   25910 A    6478 TIP4 H1   HW0      0.679100        1.0080           
   25911 A    6478 TIP4 H2   HW0      0.679100        1.0080           
   25912 A    6478 TIP4 BD1  LP0     -1.358200        0.0000           
   25913 A    6479 TIP4 O1   OW0      0.000000       15.9990           
   25914 A    6479 TIP4 H1   HW0      0.679100        1.0080           
   25915 A    6479 TIP4 H2   HW0      0.679100        1.0080           
   25916 A    6479 TIP4 BD1  LP0     -1.358200        0.0000           
   25917 A    6480 TIP4 O1   OW0      0.000000       15.9990           
   25918 A    6480 TIP4 H1   HW0      0.679100        1.0080           
   25919 A    6480 TIP4 H2   HW0      0.679100        1.0080           
   25920 A    6480 TIP4 BD1  LP0     -1.358200        0.0000           
   25921 A    6481 TIP4 O1   OW0      0.000000       15.9990           
   25922 A    6481 TIP4 H1   HW0      0.679100        1.0080           
   25923 A    6481 TIP4 H2   HW0      0.679100        1.0080           
   25924 A    6481 TIP4 BD1  LP0     -1.358200        0.0000           
   25925 A    6482 TIP4 O1   OW0      0.000000       15.9990           
   25926 A    6482 TIP4 H1   HW0      0.679100        1.0080           
   25927 A    6482 TIP4 H2   HW0      0.679100        1.0080           
   25928 A    6482 TIP4 BD1  LP0     -1.358200        0.0000           
   25929 A    6483 TIP4 O1   OW0      0.000000       15.9990           
   25930 A    6483 TIP4 H1   HW0      0.679100        1.0080           
   25931 A    6483 TIP4 H2   HW0      0.679100        1.0080           
   25932 A    6483 TIP4 BD1  LP0     -1.358200        0.0000           
   25933 A    6484 TIP4 O1   OW0      0.000000       15.9990           
   25934 A    6484 TIP4 H1   HW0      0.679100        1.0080           
   25935 A    6484 TIP4 H2   HW0      0.679100        1.0080           
   25936 A    6484 TIP4 BD1  LP0     -1.358200        0.0000           
   25937 A    6485 TIP4 O1   OW0      0.000000       15.9990           
   25938 A    6485 TIP4 H1   HW0      0.679100        1.0080           
   25939 A    6485 TIP4 H2   HW0      0.679100        1.0080           
   25940 A    6485 TIP4 BD1  LP0     -1.358200        0.0000           
   25941 A    6486 TIP4 O1   OW0      0.000000       15.9990           
   25942 A    6486 TIP4 H1   HW0      0.679100        1.0080           
   25943 A    6486 TIP4 H2   HW0      0.679100        1.0080           
   25944 A    6486 TIP4 BD1  LP0     -1.358200        0.0000           
   25945 A    6487 TIP4 O1   OW0      0.000000       15.9990           
   25946 A    6487 TIP4 H1   HW0      0.679100        1.0080           
   25947 A    6487 TIP4 H2   HW0      0.679100        1.0080           
   25948 A    6487 TIP4 BD1  LP0     -1.358200        0.0000           
   25949 A    6488 TIP4 O1   OW0      0.000000       15.9990           
   25950 A    6488 TIP4 H1   HW0      0.679100        1.0080           
   25951 A    6488 TIP4 H2   HW0      0.679100        1.0080           
   25952 A    6488 TIP4 BD1  LP0     -1.358200        0.0000           
   25953 A    6489 TIP4 O1   OW0      0.000000       15.9990           
   25954 A    6489 TIP4 H1   HW0      0.679100        1.0080           
   25955 A    6489 TIP4 H2   HW0      0.679100        1.0080           
   25956 A    6489 TIP4 BD1  LP0     -1.358200        0.0000           
   25957 A    6490 TIP4 O1   OW0      0.000000       15.9990           
   25958 A    6490 TIP4 H1   HW0      0.679100        1.0080           
   25959 A    6490 TIP4 H2   HW0      0.679100        1.0080           
   25960 A    6490 TIP4 BD1  LP0     -1.358200        0.0000           
   25961 A    6491 TIP4 O1   OW0      0.000000       15.9990           
   25962 A    6491 TIP4 H1   HW0      0.679100        1.0080           
   25963 A    6491 TIP4 H2   HW0      0.679100        1.0080           
   25964 A    6491 TIP4 BD1  LP0     -1.358200        0.0000           
   25965 A    6492 TIP4 O1   OW0      0.000000       15.9990           
   25966 A    6492 TIP4 H1   HW0      0.679100        1.0080           
   25967 A    6492 TIP4 H2   HW0      0.679100        1.0080           
   25968 A    6492 TIP4 BD1  LP0     -1.358200        0.0000           
   25969 A    6493 TIP4 O1   OW0      0.000000       15.9990           
   25970 A    6493 TIP4 H1   HW0      0.679100        1.0080           
   25971 A    6493 TIP4 H2   HW0      0.679100        1.0080           
   25972 A    6493 TIP4 BD1  LP0     -1.358200        0.0000           
   25973 A    6494 TIP4 O1   OW0      0.000000       15.9990           
   25974 A    6494 TIP4 H1   HW0      0.679100        1.0080           
   25975 A    6494 TIP4 H2   HW0      0.679100        1.0080           
   25976 A    6494 TIP4 BD1  LP0     -1.358200        0.0000           
   25977 A    6495 TIP4 O1   OW0      0.000000       15.9990           
   25978 A    6495 TIP4 H1   HW0      0.679100        1.0080           
   25979 A    6495 TIP4 H2   HW0      0.679100        1.0080           
   25980 A    6495 TIP4 BD1  LP0     -1.358200        0.0000           
   25981 A    6496 TIP4 O1   OW0      0.000000       15.9990           
   25982 A    6496 TIP4 H1   HW0      0.679100        1.0080           
   25983 A    6496 TIP4 H2   HW0      0.679100        1.0080           
   25984 A    6496 TIP4 BD1  LP0     -1.358200        0.0000           
   25985 A    6497 TIP4 O1   OW0      0.000000       15.9990           
   25986 A    6497 TIP4 H1   HW0      0.679100        1.0080           
   25987 A    6497 TIP4 H2   HW0      0.679100        1.0080           
   25988 A    6497 TIP4 BD1  LP0     -1.358200        0.0000           
   25989 A    6498 TIP4 O1   OW0      0.000000       15.9990           
   25990 A    6498 TIP4 H1   HW0      0.679100        1.0080           
   25991 A    6498 TIP4 H2   HW0      0.679100        1.0080           
   25992 A    6498 TIP4 BD1  LP0     -1.358200        0.0000           
   25993 A    6499 TIP4 O1   OW0      0.000000       15.9990           
   25994 A    6499 TIP4 H1   HW0      0.679100        1.0080           
   25995 A    6499 TIP4 H2   HW0      0.679100        1.0080           
   25996 A    6499 TIP4 BD1  LP0     -1.358200        0.0000           
   25997 A    6500 TIP4 O1   OW0      0.000000       15.9990           
   25998 A    6500 TIP4 H1   HW0      0.679100        1.0080           
   25999 A    6500 TIP4 H2   HW0      0.679100        1.0080           
   26000 A    6500 TIP4 BD1  LP0     -1.358200        0.0000           
   26001 A    6501 TIP4 O1   OW0      0.000000       15.9990           
   26002 A    6501 TIP4 H1   HW0      0.679100        1.0080           
   26003 A    6501 TIP4 H2   HW0      0.679100        1.0080           
   26004 A    6501 TIP4 BD1  LP0     -1.358200        0.0000           
   26005 A    6502 TIP4 O1   OW0      0.000000       15.9990           
   26006 A    6502 TIP4 H1   HW0      0.679100        1.0080           
   26007 A    6502 TIP4 H2   HW0      0.679100        1.0080           
   26008 A    6502 TIP4 BD1  LP0     -1.358200        0.0000           
   26009 A    6503 TIP4 O1   OW0      0.000000       15.9990           
   26010 A    6503 TIP4 H1   HW0      0.679100        1.0080           
   26011 A    6503 TIP4 H2   HW0      0.679100        1.0080           
   26012 A    6503 TIP4 BD1  LP0     -1.358200        0.0000           
   26013 A    6504 TIP4 O1   OW0      0.000000       15.9990           
   26014 A    6504 TIP4 H1   HW0      0.679100        1.0080           
   26015 A    6504 TIP4 H2   HW0      0.679100        1.0080           
   26016 A    6504 TIP4 BD1  LP0     -1.358200        0.0000           
   26017 A    6505 TIP4 O1   OW0      0.000000       15.9990           
   26018 A    6505 TIP4 H1   HW0      0.679100        1.0080           
   26019 A    6505 TIP4 H2   HW0      0.679100        1.0080           
   26020 A    6505 TIP4 BD1  LP0     -1.358200        0.0000           
   26021 A    6506 TIP4 O1   OW0      0.000000       15.9990           
   26022 A    6506 TIP4 H1   HW0      0.679100        1.0080           
   26023 A    6506 TIP4 H2   HW0      0.679100        1.0080           
   26024 A    6506 TIP4 BD1  LP0     -1.358200        0.0000           
   26025 A    6507 TIP4 O1   OW0      0.000000       15.9990           
   26026 A    6507 TIP4 H1   HW0      0.679100        1.0080           
   26027 A    6507 TIP4 H2   HW0      0.679100        1.0080           
   26028 A    6507 TIP4 BD1  LP0     -1.358200        0.0000           
   26029 A    6508 TIP4 O1   OW0      0.000000       15.9990           
   26030 A    6508 TIP4 H1   HW0      0.679100        1.0080           
   26031 A    6508 TIP4 H2   HW0      0.679100        1.0080           
   26032 A    6508 TIP4 BD1  LP0     -1.358200        0.0000           
   26033 A    6509 TIP4 O1   OW0      0.000000       15.9990           
   26034 A    6509 TIP4 H1   HW0      0.679100        1.0080           
   26035 A    6509 TIP4 H2   HW0      0.679100        1.0080           
   26036 A    6509 TIP4 BD1  LP0     -1.358200        0.0000           
   26037 A    6510 TIP4 O1   OW0      0.000000       15.9990           
   26038 A    6510 TIP4 H1   HW0      0.679100        1.0080           
   26039 A    6510 TIP4 H2   HW0      0.679100        1.0080           
   26040 A    6510 TIP4 BD1  LP0     -1.358200        0.0000           
   26041 A    6511 TIP4 O1   OW0      0.000000       15.9990           
   26042 A    6511 TIP4 H1   HW0      0.679100        1.0080           
   26043 A    6511 TIP4 H2   HW0      0.679100        1.0080           
   26044 A    6511 TIP4 BD1  LP0     -1.358200        0.0000           
   26045 A    6512 TIP4 O1   OW0      0.000000       15.9990           
   26046 A    6512 TIP4 H1   HW0      0.679100        1.0080           
   26047 A    6512 TIP4 H2   HW0      0.679100        1.0080           
   26048 A    6512 TIP4 BD1  LP0     -1.358200        0.0000           
   26049 A    6513 TIP4 O1   OW0      0.000000       15.9990           
   26050 A    6513 TIP4 H1   HW0      0.679100        1.0080           
   26051 A    6513 TIP4 H2   HW0      0.679100        1.0080           
   26052 A    6513 TIP4 BD1  LP0     -1.358200        0.0000           
   26053 A    6514 TIP4 O1   OW0      0.000000       15.9990           
   26054 A    6514 TIP4 H1   HW0      0.679100        1.0080           
   26055 A    6514 TIP4 H2   HW0      0.679100        1.0080           
   26056 A    6514 TIP4 BD1  LP0     -1.358200        0.0000           
   26057 A    6515 TIP4 O1   OW0      0.000000       15.9990           
   26058 A    6515 TIP4 H1   HW0      0.679100        1.0080           
   26059 A    6515 TIP4 H2   HW0      0.679100        1.0080           
   26060 A    6515 TIP4 BD1  LP0     -1.358200        0.0000           
   26061 A    6516 TIP4 O1   OW0      0.000000       15.9990           
   26062 A    6516 TIP4 H1   HW0      0.679100        1.0080           
   26063 A    6516 TIP4 H2   HW0      0.679100        1.0080           
   26064 A    6516 TIP4 BD1  LP0     -1.358200        0.0000           
   26065 A    6517 TIP4 O1   OW0      0.000000       15.9990           
   26066 A    6517 TIP4 H1   HW0      0.679100        1.0080           
   26067 A    6517 TIP4 H2   HW0      0.679100        1.0080           
   26068 A    6517 TIP4 BD1  LP0     -1.358200        0.0000           
   26069 A    6518 TIP4 O1   OW0      0.000000       15.9990           
   26070 A    6518 TIP4 H1   HW0      0.679100        1.0080           
   26071 A    6518 TIP4 H2   HW0      0.679100        1.0080           
   26072 A    6518 TIP4 BD1  LP0     -1.358200        0.0000           
   26073 A    6519 TIP4 O1   OW0      0.000000       15.9990           
   26074 A    6519 TIP4 H1   HW0      0.679100        1.0080           
   26075 A    6519 TIP4 H2   HW0      0.679100        1.0080           
   26076 A    6519 TIP4 BD1  LP0     -1.358200        0.0000           
   26077 A    6520 TIP4 O1   OW0      0.000000       15.9990           
   26078 A    6520 TIP4 H1   HW0      0.679100        1.0080           
   26079 A    6520 TIP4 H2   HW0      0.679100        1.0080           
   26080 A    6520 TIP4 BD1  LP0     -1.358200        0.0000           
   26081 A    6521 TIP4 O1   OW0      0.000000       15.9990           
   26082 A    6521 TIP4 H1   HW0      0.679100        1.0080           
   26083 A    6521 TIP4 H2   HW0      0.679100        1.0080           
   26084 A    6521 TIP4 BD1  LP0     -1.358200        0.0000           
   26085 A    6522 TIP4 O1   OW0      0.000000       15.9990           
   26086 A    6522 TIP4 H1   HW0      0.679100        1.0080           
   26087 A    6522 TIP4 H2   HW0      0.679100        1.0080           
   26088 A    6522 TIP4 BD1  LP0     -1.358200        0.0000           
   26089 A    6523 TIP4 O1   OW0      0.000000       15.9990           
   26090 A    6523 TIP4 H1   HW0      0.679100        1.0080           
   26091 A    6523 TIP4 H2   HW0      0.679100        1.0080           
   26092 A    6523 TIP4 BD1  LP0     -1.358200        0.0000           
   26093 A    6524 TIP4 O1   OW0      0.000000       15.9990           
   26094 A    6524 TIP4 H1   HW0      0.679100        1.0080           
   26095 A    6524 TIP4 H2   HW0      0.679100        1.0080           
   26096 A    6524 TIP4 BD1  LP0     -1.358200        0.0000           
   26097 A    6525 TIP4 O1   OW0      0.000000       15.9990           
   26098 A    6525 TIP4 H1   HW0      0.679100        1.0080           
   26099 A    6525 TIP4 H2   HW0      0.679100        1.0080           
   26100 A    6525 TIP4 BD1  LP0     -1.358200        0.0000           
   26101 A    6526 TIP4 O1   OW0      0.000000       15.9990           
   26102 A    6526 TIP4 H1   HW0      0.679100        1.0080           
   26103 A    6526 TIP4 H2   HW0      0.679100        1.0080           
   26104 A    6526 TIP4 BD1  LP0     -1.358200        0.0000           
   26105 A    6527 TIP4 O1   OW0      0.000000       15.9990           
   26106 A    6527 TIP4 H1   HW0      0.679100        1.0080           
   26107 A    6527 TIP4 H2   HW0      0.679100        1.0080           
   26108 A    6527 TIP4 BD1  LP0     -1.358200        0.0000           
   26109 A    6528 TIP4 O1   OW0      0.000000       15.9990           
   26110 A    6528 TIP4 H1   HW0      0.679100        1.0080           
   26111 A    6528 TIP4 H2   HW0      0.679100        1.0080           
   26112 A    6528 TIP4 BD1  LP0     -1.358200        0.0000           
   26113 A    6529 TIP4 O1   OW0      0.000000       15.9990           
   26114 A    6529 TIP4 H1   HW0      0.679100        1.0080           
   26115 A    6529 TIP4 H2   HW0      0.679100        1.0080           
   26116 A    6529 TIP4 BD1  LP0     -1.358200        0.0000           
   26117 A    6530 TIP4 O1   OW0      0.000000       15.9990           
   26118 A    6530 TIP4 H1   HW0      0.679100        1.0080           
   26119 A    6530 TIP4 H2   HW0      0.679100        1.0080           
   26120 A    6530 TIP4 BD1  LP0     -1.358200        0.0000           
   26121 A    6531 TIP4 O1   OW0      0.000000       15.9990           
   26122 A    6531 TIP4 H1   HW0      0.679100        1.0080           
   26123 A    6531 TIP4 H2   HW0      0.679100        1.0080           
   26124 A    6531 TIP4 BD1  LP0     -1.358200        0.0000           
   26125 A    6532 TIP4 O1   OW0      0.000000       15.9990           
   26126 A    6532 TIP4 H1   HW0      0.679100        1.0080           
   26127 A    6532 TIP4 H2   HW0      0.679100        1.0080           
   26128 A    6532 TIP4 BD1  LP0     -1.358200        0.0000           
   26129 A    6533 TIP4 O1   OW0      0.000000       15.9990           
   26130 A    6533 TIP4 H1   HW0      0.679100        1.0080           
   26131 A    6533 TIP4 H2   HW0      0.679100        1.0080           
   26132 A    6533 TIP4 BD1  LP0     -1.358200        0.0000           
   26133 A    6534 TIP4 O1   OW0      0.000000       15.9990           
   26134 A    6534 TIP4 H1   HW0      0.679100        1.0080           
   26135 A    6534 TIP4 H2   HW0      0.679100        1.0080           
   26136 A    6534 TIP4 BD1  LP0     -1.358200        0.0000           
   26137 A    6535 TIP4 O1   OW0      0.000000       15.9990           
   26138 A    6535 TIP4 H1   HW0      0.679100        1.0080           
   26139 A    6535 TIP4 H2   HW0      0.679100        1.0080           
   26140 A    6535 TIP4 BD1  LP0     -1.358200        0.0000           
   26141 A    6536 TIP4 O1   OW0      0.000000       15.9990           
   26142 A    6536 TIP4 H1   HW0      0.679100        1.0080           
   26143 A    6536 TIP4 H2   HW0      0.679100        1.0080           
   26144 A    6536 TIP4 BD1  LP0     -1.358200        0.0000           
   26145 A    6537 TIP4 O1   OW0      0.000000       15.9990           
   26146 A    6537 TIP4 H1   HW0      0.679100        1.0080           
   26147 A    6537 TIP4 H2   HW0      0.679100        1.0080           
   26148 A    6537 TIP4 BD1  LP0     -1.358200        0.0000           
   26149 A    6538 TIP4 O1   OW0      0.000000       15.9990           
   26150 A    6538 TIP4 H1   HW0      0.679100        1.0080           
   26151 A    6538 TIP4 H2   HW0      0.679100        1.0080           
   26152 A    6538 TIP4 BD1  LP0     -1.358200        0.0000           
   26153 A    6539 TIP4 O1   OW0      0.000000       15.9990           
   26154 A    6539 TIP4 H1   HW0      0.679100        1.0080           
   26155 A    6539 TIP4 H2   HW0      0.679100        1.0080           
   26156 A    6539 TIP4 BD1  LP0     -1.358200        0.0000           
   26157 A    6540 TIP4 O1   OW0      0.000000       15.9990           
   26158 A    6540 TIP4 H1   HW0      0.679100        1.0080           
   26159 A    6540 TIP4 H2   HW0      0.679100        1.0080           
   26160 A    6540 TIP4 BD1  LP0     -1.358200        0.0000           
   26161 A    6541 TIP4 O1   OW0      0.000000       15.9990           
   26162 A    6541 TIP4 H1   HW0      0.679100        1.0080           
   26163 A    6541 TIP4 H2   HW0      0.679100        1.0080           
   26164 A    6541 TIP4 BD1  LP0     -1.358200        0.0000           
   26165 A    6542 TIP4 O1   OW0      0.000000       15.9990           
   26166 A    6542 TIP4 H1   HW0      0.679100        1.0080           
   26167 A    6542 TIP4 H2   HW0      0.679100        1.0080           
   26168 A    6542 TIP4 BD1  LP0     -1.358200        0.0000           
   26169 A    6543 TIP4 O1   OW0      0.000000       15.9990           
   26170 A    6543 TIP4 H1   HW0      0.679100        1.0080           
   26171 A    6543 TIP4 H2   HW0      0.679100        1.0080           
   26172 A    6543 TIP4 BD1  LP0     -1.358200        0.0000           
   26173 A    6544 TIP4 O1   OW0      0.000000       15.9990           
   26174 A    6544 TIP4 H1   HW0      0.679100        1.0080           
   26175 A    6544 TIP4 H2   HW0      0.679100        1.0080           
   26176 A    6544 TIP4 BD1  LP0     -1.358200        0.0000           
   26177 A    6545 TIP4 O1   OW0      0.000000       15.9990           
   26178 A    6545 TIP4 H1   HW0      0.679100        1.0080           
   26179 A    6545 TIP4 H2   HW0      0.679100        1.0080           
   26180 A    6545 TIP4 BD1  LP0     -1.358200        0.0000           
   26181 A    6546 TIP4 O1   OW0      0.000000       15.9990           
   26182 A    6546 TIP4 H1   HW0      0.679100        1.0080           
   26183 A    6546 TIP4 H2   HW0      0.679100        1.0080           
   26184 A    6546 TIP4 BD1  LP0     -1.358200        0.0000           
   26185 A    6547 TIP4 O1   OW0      0.000000       15.9990           
   26186 A    6547 TIP4 H1   HW0      0.679100        1.0080           
   26187 A    6547 TIP4 H2   HW0      0.679100        1.0080           
   26188 A    6547 TIP4 BD1  LP0     -1.358200        0.0000           
   26189 A    6548 TIP4 O1   OW0      0.000000       15.9990           
   26190 A    6548 TIP4 H1   HW0      0.679100        1.0080           
   26191 A    6548 TIP4 H2   HW0      0.679100        1.0080           
   26192 A    6548 TIP4 BD1  LP0     -1.358200        0.0000           
   26193 A    6549 TIP4 O1   OW0      0.000000       15.9990           
   26194 A    6549 TIP4 H1   HW0      0.679100        1.0080           
   26195 A    6549 TIP4 H2   HW0      0.679100        1.0080           
   26196 A    6549 TIP4 BD1  LP0     -1.358200        0.0000           
   26197 A    6550 TIP4 O1   OW0      0.000000       15.9990           
   26198 A    6550 TIP4 H1   HW0      0.679100        1.0080           
   26199 A    6550 TIP4 H2   HW0      0.679100        1.0080           
   26200 A    6550 TIP4 BD1  LP0     -1.358200        0.0000           
   26201 A    6551 TIP4 O1   OW0      0.000000       15.9990           
   26202 A    6551 TIP4 H1   HW0      0.679100        1.0080           
   26203 A    6551 TIP4 H2   HW0      0.679100        1.0080           
   26204 A    6551 TIP4 BD1  LP0     -1.358200        0.0000           
   26205 A    6552 TIP4 O1   OW0      0.000000       15.9990           
   26206 A    6552 TIP4 H1   HW0      0.679100        1.0080           
   26207 A    6552 TIP4 H2   HW0      0.679100        1.0080           
   26208 A    6552 TIP4 BD1  LP0     -1.358200        0.0000           
   26209 A    6553 TIP4 O1   OW0      0.000000       15.9990           
   26210 A    6553 TIP4 H1   HW0      0.679100        1.0080           
   26211 A    6553 TIP4 H2   HW0      0.679100        1.0080           
   26212 A    6553 TIP4 BD1  LP0     -1.358200        0.0000           
   26213 A    6554 TIP4 O1   OW0      0.000000       15.9990           
   26214 A    6554 TIP4 H1   HW0      0.679100        1.0080           
   26215 A    6554 TIP4 H2   HW0      0.679100        1.0080           
   26216 A    6554 TIP4 BD1  LP0     -1.358200        0.0000           
   26217 A    6555 TIP4 O1   OW0      0.000000       15.9990           
   26218 A    6555 TIP4 H1   HW0      0.679100        1.0080           
   26219 A    6555 TIP4 H2   HW0      0.679100        1.0080           
   26220 A    6555 TIP4 BD1  LP0     -1.358200        0.0000           
   26221 A    6556 TIP4 O1   OW0      0.000000       15.9990           
   26222 A    6556 TIP4 H1   HW0      0.679100        1.0080           
   26223 A    6556 TIP4 H2   HW0      0.679100        1.0080           
   26224 A    6556 TIP4 BD1  LP0     -1.358200        0.0000           
   26225 A    6557 TIP4 O1   OW0      0.000000       15.9990           
   26226 A    6557 TIP4 H1   HW0      0.679100        1.0080           
   26227 A    6557 TIP4 H2   HW0      0.679100        1.0080           
   26228 A    6557 TIP4 BD1  LP0     -1.358200        0.0000           
   26229 A    6558 TIP4 O1   OW0      0.000000       15.9990           
   26230 A    6558 TIP4 H1   HW0      0.679100        1.0080           
   26231 A    6558 TIP4 H2   HW0      0.679100        1.0080           
   26232 A    6558 TIP4 BD1  LP0     -1.358200        0.0000           
   26233 A    6559 TIP4 O1   OW0      0.000000       15.9990           
   26234 A    6559 TIP4 H1   HW0      0.679100        1.0080           
   26235 A    6559 TIP4 H2   HW0      0.679100        1.0080           
   26236 A    6559 TIP4 BD1  LP0     -1.358200        0.0000           
   26237 A    6560 TIP4 O1   OW0      0.000000       15.9990           
   26238 A    6560 TIP4 H1   HW0      0.679100        1.0080           
   26239 A    6560 TIP4 H2   HW0      0.679100        1.0080           
   26240 A    6560 TIP4 BD1  LP0     -1.358200        0.0000           
   26241 A    6561 TIP4 O1   OW0      0.000000       15.9990           
   26242 A    6561 TIP4 H1   HW0      0.679100        1.0080           
   26243 A    6561 TIP4 H2   HW0      0.679100        1.0080           
   26244 A    6561 TIP4 BD1  LP0     -1.358200        0.0000           
   26245 A    6562 TIP4 O1   OW0      0.000000       15.9990           
   26246 A    6562 TIP4 H1   HW0      0.679100        1.0080           
   26247 A    6562 TIP4 H2   HW0      0.679100        1.0080           
   26248 A    6562 TIP4 BD1  LP0     -1.358200        0.0000           
   26249 A    6563 TIP4 O1   OW0      0.000000       15.9990           
   26250 A    6563 TIP4 H1   HW0      0.679100        1.0080           
   26251 A    6563 TIP4 H2   HW0      0.679100        1.0080           
   26252 A    6563 TIP4 BD1  LP0     -1.358200        0.0000           
   26253 A    6564 TIP4 O1   OW0      0.000000       15.9990           
   26254 A    6564 TIP4 H1   HW0      0.679100        1.0080           
   26255 A    6564 TIP4 H2   HW0      0.679100        1.0080           
   26256 A    6564 TIP4 BD1  LP0     -1.358200        0.0000           
   26257 A    6565 TIP4 O1   OW0      0.000000       15.9990           
   26258 A    6565 TIP4 H1   HW0      0.679100        1.0080           
   26259 A    6565 TIP4 H2   HW0      0.679100        1.0080           
   26260 A    6565 TIP4 BD1  LP0     -1.358200        0.0000           
   26261 A    6566 TIP4 O1   OW0      0.000000       15.9990           
   26262 A    6566 TIP4 H1   HW0      0.679100        1.0080           
   26263 A    6566 TIP4 H2   HW0      0.679100        1.0080           
   26264 A    6566 TIP4 BD1  LP0     -1.358200        0.0000           
   26265 A    6567 TIP4 O1   OW0      0.000000       15.9990           
   26266 A    6567 TIP4 H1   HW0      0.679100        1.0080           
   26267 A    6567 TIP4 H2   HW0      0.679100        1.0080           
   26268 A    6567 TIP4 BD1  LP0     -1.358200        0.0000           
   26269 A    6568 TIP4 O1   OW0      0.000000       15.9990           
   26270 A    6568 TIP4 H1   HW0      0.679100        1.0080           
   26271 A    6568 TIP4 H2   HW0      0.679100        1.0080           
   26272 A    6568 TIP4 BD1  LP0     -1.358200        0.0000           
   26273 A    6569 TIP4 O1   OW0      0.000000       15.9990           
   26274 A    6569 TIP4 H1   HW0      0.679100        1.0080           
   26275 A    6569 TIP4 H2   HW0      0.679100        1.0080           
   26276 A    6569 TIP4 BD1  LP0     -1.358200        0.0000           
   26277 A    6570 TIP4 O1   OW0      0.000000       15.9990           
   26278 A    6570 TIP4 H1   HW0      0.679100        1.0080           
   26279 A    6570 TIP4 H2   HW0      0.679100        1.0080           
   26280 A    6570 TIP4 BD1  LP0     -1.358200        0.0000           
   26281 A    6571 TIP4 O1   OW0      0.000000       15.9990           
   26282 A    6571 TIP4 H1   HW0      0.679100        1.0080           
   26283 A    6571 TIP4 H2   HW0      0.679100        1.0080           
   26284 A    6571 TIP4 BD1  LP0     -1.358200        0.0000           
   26285 A    6572 TIP4 O1   OW0      0.000000       15.9990           
   26286 A    6572 TIP4 H1   HW0      0.679100        1.0080           
   26287 A    6572 TIP4 H2   HW0      0.679100        1.0080           
   26288 A    6572 TIP4 BD1  LP0     -1.358200        0.0000           
   26289 A    6573 TIP4 O1   OW0      0.000000       15.9990           
   26290 A    6573 TIP4 H1   HW0      0.679100        1.0080           
   26291 A    6573 TIP4 H2   HW0      0.679100        1.0080           
   26292 A    6573 TIP4 BD1  LP0     -1.358200        0.0000           
   26293 A    6574 TIP4 O1   OW0      0.000000       15.9990           
   26294 A    6574 TIP4 H1   HW0      0.679100        1.0080           
   26295 A    6574 TIP4 H2   HW0      0.679100        1.0080           
   26296 A    6574 TIP4 BD1  LP0     -1.358200        0.0000           
   26297 A    6575 TIP4 O1   OW0      0.000000       15.9990           
   26298 A    6575 TIP4 H1   HW0      0.679100        1.0080           
   26299 A    6575 TIP4 H2   HW0      0.679100        1.0080           
   26300 A    6575 TIP4 BD1  LP0     -1.358200        0.0000           
   26301 A    6576 TIP4 O1   OW0      0.000000       15.9990           
   26302 A    6576 TIP4 H1   HW0      0.679100        1.0080           
   26303 A    6576 TIP4 H2   HW0      0.679100        1.0080           
   26304 A    6576 TIP4 BD1  LP0     -1.358200        0.0000           
   26305 A    6577 TIP4 O1   OW0      0.000000       15.9990           
   26306 A    6577 TIP4 H1   HW0      0.679100        1.0080           
   26307 A    6577 TIP4 H2   HW0      0.679100        1.0080           
   26308 A    6577 TIP4 BD1  LP0     -1.358200        0.0000           
   26309 A    6578 TIP4 O1   OW0      0.000000       15.9990           
   26310 A    6578 TIP4 H1   HW0      0.679100        1.0080           
   26311 A    6578 TIP4 H2   HW0      0.679100        1.0080           
   26312 A    6578 TIP4 BD1  LP0     -1.358200        0.0000           
   26313 A    6579 TIP4 O1   OW0      0.000000       15.9990           
   26314 A    6579 TIP4 H1   HW0      0.679100        1.0080           
   26315 A    6579 TIP4 H2   HW0      0.679100        1.0080           
   26316 A    6579 TIP4 BD1  LP0     -1.358200        0.0000           
   26317 A    6580 TIP4 O1   OW0      0.000000       15.9990           
   26318 A    6580 TIP4 H1   HW0      0.679100        1.0080           
   26319 A    6580 TIP4 H2   HW0      0.679100        1.0080           
   26320 A    6580 TIP4 BD1  LP0     -1.358200        0.0000           
   26321 A    6581 TIP4 O1   OW0      0.000000       15.9990           
   26322 A    6581 TIP4 H1   HW0      0.679100        1.0080           
   26323 A    6581 TIP4 H2   HW0      0.679100        1.0080           
   26324 A    6581 TIP4 BD1  LP0     -1.358200        0.0000           
   26325 A    6582 TIP4 O1   OW0      0.000000       15.9990           
   26326 A    6582 TIP4 H1   HW0      0.679100        1.0080           
   26327 A    6582 TIP4 H2   HW0      0.679100        1.0080           
   26328 A    6582 TIP4 BD1  LP0     -1.358200        0.0000           
   26329 A    6583 TIP4 O1   OW0      0.000000       15.9990           
   26330 A    6583 TIP4 H1   HW0      0.679100        1.0080           
   26331 A    6583 TIP4 H2   HW0      0.679100        1.0080           
   26332 A    6583 TIP4 BD1  LP0     -1.358200        0.0000           
   26333 A    6584 TIP4 O1   OW0      0.000000       15.9990           
   26334 A    6584 TIP4 H1   HW0      0.679100        1.0080           
   26335 A    6584 TIP4 H2   HW0      0.679100        1.0080           
   26336 A    6584 TIP4 BD1  LP0     -1.358200        0.0000           
   26337 A    6585 TIP4 O1   OW0      0.000000       15.9990           
   26338 A    6585 TIP4 H1   HW0      0.679100        1.0080           
   26339 A    6585 TIP4 H2   HW0      0.679100        1.0080           
   26340 A    6585 TIP4 BD1  LP0     -1.358200        0.0000           
   26341 A    6586 TIP4 O1   OW0      0.000000       15.9990           
   26342 A    6586 TIP4 H1   HW0      0.679100        1.0080           
   26343 A    6586 TIP4 H2   HW0      0.679100        1.0080           
   26344 A    6586 TIP4 BD1  LP0     -1.358200        0.0000           
   26345 A    6587 TIP4 O1   OW0      0.000000       15.9990           
   26346 A    6587 TIP4 H1   HW0      0.679100        1.0080           
   26347 A    6587 TIP4 H2   HW0      0.679100        1.0080           
   26348 A    6587 TIP4 BD1  LP0     -1.358200        0.0000           
   26349 A    6588 TIP4 O1   OW0      0.000000       15.9990           
   26350 A    6588 TIP4 H1   HW0      0.679100        1.0080           
   26351 A    6588 TIP4 H2   HW0      0.679100        1.0080           
   26352 A    6588 TIP4 BD1  LP0     -1.358200        0.0000           
   26353 A    6589 TIP4 O1   OW0      0.000000       15.9990           
   26354 A    6589 TIP4 H1   HW0      0.679100        1.0080           
   26355 A    6589 TIP4 H2   HW0      0.679100        1.0080           
   26356 A    6589 TIP4 BD1  LP0     -1.358200        0.0000           
   26357 A    6590 TIP4 O1   OW0      0.000000       15.9990           
   26358 A    6590 TIP4 H1   HW0      0.679100        1.0080           
   26359 A    6590 TIP4 H2   HW0      0.679100        1.0080           
   26360 A    6590 TIP4 BD1  LP0     -1.358200        0.0000           
   26361 A    6591 TIP4 O1   OW0      0.000000       15.9990           
   26362 A    6591 TIP4 H1   HW0      0.679100        1.0080           
   26363 A    6591 TIP4 H2   HW0      0.679100        1.0080           
   26364 A    6591 TIP4 BD1  LP0     -1.358200        0.0000           
   26365 A    6592 TIP4 O1   OW0      0.000000       15.9990           
   26366 A    6592 TIP4 H1   HW0      0.679100        1.0080           
   26367 A    6592 TIP4 H2   HW0      0.679100        1.0080           
   26368 A    6592 TIP4 BD1  LP0     -1.358200        0.0000           
   26369 A    6593 TIP4 O1   OW0      0.000000       15.9990           
   26370 A    6593 TIP4 H1   HW0      0.679100        1.0080           
   26371 A    6593 TIP4 H2   HW0      0.679100        1.0080           
   26372 A    6593 TIP4 BD1  LP0     -1.358200        0.0000           
   26373 A    6594 TIP4 O1   OW0      0.000000       15.9990           
   26374 A    6594 TIP4 H1   HW0      0.679100        1.0080           
   26375 A    6594 TIP4 H2   HW0      0.679100        1.0080           
   26376 A    6594 TIP4 BD1  LP0     -1.358200        0.0000           
   26377 A    6595 TIP4 O1   OW0      0.000000       15.9990           
   26378 A    6595 TIP4 H1   HW0      0.679100        1.0080           
   26379 A    6595 TIP4 H2   HW0      0.679100        1.0080           
   26380 A    6595 TIP4 BD1  LP0     -1.358200        0.0000           
   26381 A    6596 TIP4 O1   OW0      0.000000       15.9990           
   26382 A    6596 TIP4 H1   HW0      0.679100        1.0080           
   26383 A    6596 TIP4 H2   HW0      0.679100        1.0080           
   26384 A    6596 TIP4 BD1  LP0     -1.358200        0.0000           
   26385 A    6597 TIP4 O1   OW0      0.000000       15.9990           
   26386 A    6597 TIP4 H1   HW0      0.679100        1.0080           
   26387 A    6597 TIP4 H2   HW0      0.679100        1.0080           
   26388 A    6597 TIP4 BD1  LP0     -1.358200        0.0000           
   26389 A    6598 TIP4 O1   OW0      0.000000       15.9990           
   26390 A    6598 TIP4 H1   HW0      0.679100        1.0080           
   26391 A    6598 TIP4 H2   HW0      0.679100        1.0080           
   26392 A    6598 TIP4 BD1  LP0     -1.358200        0.0000           
   26393 A    6599 TIP4 O1   OW0      0.000000       15.9990           
   26394 A    6599 TIP4 H1   HW0      0.679100        1.0080           
   26395 A    6599 TIP4 H2   HW0      0.679100        1.0080           
   26396 A    6599 TIP4 BD1  LP0     -1.358200        0.0000           
   26397 A    6600 TIP4 O1   OW0      0.000000       15.9990           
   26398 A    6600 TIP4 H1   HW0      0.679100        1.0080           
   26399 A    6600 TIP4 H2   HW0      0.679100        1.0080           
   26400 A    6600 TIP4 BD1  LP0     -1.358200        0.0000           
   26401 A    6601 TIP4 O1   OW0      0.000000       15.9990           
   26402 A    6601 TIP4 H1   HW0      0.679100        1.0080           
   26403 A    6601 TIP4 H2   HW0      0.679100        1.0080           
   26404 A    6601 TIP4 BD1  LP0     -1.358200        0.0000           
   26405 A    6602 TIP4 O1   OW0      0.000000       15.9990           
   26406 A    6602 TIP4 H1   HW0      0.679100        1.0080           
   26407 A    6602 TIP4 H2   HW0      0.679100        1.0080           
   26408 A    6602 TIP4 BD1  LP0     -1.358200        0.0000           
   26409 A    6603 TIP4 O1   OW0      0.000000       15.9990           
   26410 A    6603 TIP4 H1   HW0      0.679100        1.0080           
   26411 A    6603 TIP4 H2   HW0      0.679100        1.0080           
   26412 A    6603 TIP4 BD1  LP0     -1.358200        0.0000           
   26413 A    6604 TIP4 O1   OW0      0.000000       15.9990           
   26414 A    6604 TIP4 H1   HW0      0.679100        1.0080           
   26415 A    6604 TIP4 H2   HW0      0.679100        1.0080           
   26416 A    6604 TIP4 BD1  LP0     -1.358200        0.0000           
   26417 A    6605 TIP4 O1   OW0      0.000000       15.9990           
   26418 A    6605 TIP4 H1   HW0      0.679100        1.0080           
   26419 A    6605 TIP4 H2   HW0      0.679100        1.0080           
   26420 A    6605 TIP4 BD1  LP0     -1.358200        0.0000           
   26421 A    6606 TIP4 O1   OW0      0.000000       15.9990           
   26422 A    6606 TIP4 H1   HW0      0.679100        1.0080           
   26423 A    6606 TIP4 H2   HW0      0.679100        1.0080           
   26424 A    6606 TIP4 BD1  LP0     -1.358200        0.0000           
   26425 A    6607 TIP4 O1   OW0      0.000000       15.9990           
   26426 A    6607 TIP4 H1   HW0      0.679100        1.0080           
   26427 A    6607 TIP4 H2   HW0      0.679100        1.0080           
   26428 A    6607 TIP4 BD1  LP0     -1.358200        0.0000           
   26429 A    6608 TIP4 O1   OW0      0.000000       15.9990           
   26430 A    6608 TIP4 H1   HW0      0.679100        1.0080           
   26431 A    6608 TIP4 H2   HW0      0.679100        1.0080           
   26432 A    6608 TIP4 BD1  LP0     -1.358200        0.0000           
   26433 A    6609 TIP4 O1   OW0      0.000000       15.9990           
   26434 A    6609 TIP4 H1   HW0      0.679100        1.0080           
   26435 A    6609 TIP4 H2   HW0      0.679100        1.0080           
   26436 A    6609 TIP4 BD1  LP0     -1.358200        0.0000           
   26437 A    6610 TIP4 O1   OW0      0.000000       15.9990           
   26438 A    6610 TIP4 H1   HW0      0.679100        1.0080           
   26439 A    6610 TIP4 H2   HW0      0.679100        1.0080           
   26440 A    6610 TIP4 BD1  LP0     -1.358200        0.0000           
   26441 A    6611 TIP4 O1   OW0      0.000000       15.9990           
   26442 A    6611 TIP4 H1   HW0      0.679100        1.0080           
   26443 A    6611 TIP4 H2   HW0      0.679100        1.0080           
   26444 A    6611 TIP4 BD1  LP0     -1.358200        0.0000           
   26445 A    6612 TIP4 O1   OW0      0.000000       15.9990           
   26446 A    6612 TIP4 H1   HW0      0.679100        1.0080           
   26447 A    6612 TIP4 H2   HW0      0.679100        1.0080           
   26448 A    6612 TIP4 BD1  LP0     -1.358200        0.0000           
   26449 A    6613 TIP4 O1   OW0      0.000000       15.9990           
   26450 A    6613 TIP4 H1   HW0      0.679100        1.0080           
   26451 A    6613 TIP4 H2   HW0      0.679100        1.0080           
   26452 A    6613 TIP4 BD1  LP0     -1.358200        0.0000           
   26453 A    6614 TIP4 O1   OW0      0.000000       15.9990           
   26454 A    6614 TIP4 H1   HW0      0.679100        1.0080           
   26455 A    6614 TIP4 H2   HW0      0.679100        1.0080           
   26456 A    6614 TIP4 BD1  LP0     -1.358200        0.0000           
   26457 A    6615 TIP4 O1   OW0      0.000000       15.9990           
   26458 A    6615 TIP4 H1   HW0      0.679100        1.0080           
   26459 A    6615 TIP4 H2   HW0      0.679100        1.0080           
   26460 A    6615 TIP4 BD1  LP0     -1.358200        0.0000           
   26461 A    6616 TIP4 O1   OW0      0.000000       15.9990           
   26462 A    6616 TIP4 H1   HW0      0.679100        1.0080           
   26463 A    6616 TIP4 H2   HW0      0.679100        1.0080           
   26464 A    6616 TIP4 BD1  LP0     -1.358200        0.0000           
   26465 A    6617 TIP4 O1   OW0      0.000000       15.9990           
   26466 A    6617 TIP4 H1   HW0      0.679100        1.0080           
   26467 A    6617 TIP4 H2   HW0      0.679100        1.0080           
   26468 A    6617 TIP4 BD1  LP0     -1.358200        0.0000           
   26469 A    6618 TIP4 O1   OW0      0.000000       15.9990           
   26470 A    6618 TIP4 H1   HW0      0.679100        1.0080           
   26471 A    6618 TIP4 H2   HW0      0.679100        1.0080           
   26472 A    6618 TIP4 BD1  LP0     -1.358200        0.0000           
   26473 A    6619 TIP4 O1   OW0      0.000000       15.9990           
   26474 A    6619 TIP4 H1   HW0      0.679100        1.0080           
   26475 A    6619 TIP4 H2   HW0      0.679100        1.0080           
   26476 A    6619 TIP4 BD1  LP0     -1.358200        0.0000           
   26477 A    6620 TIP4 O1   OW0      0.000000       15.9990           
   26478 A    6620 TIP4 H1   HW0      0.679100        1.0080           
   26479 A    6620 TIP4 H2   HW0      0.679100        1.0080           
   26480 A    6620 TIP4 BD1  LP0     -1.358200        0.0000           
   26481 A    6621 TIP4 O1   OW0      0.000000       15.9990           
   26482 A    6621 TIP4 H1   HW0      0.679100        1.0080           
   26483 A    6621 TIP4 H2   HW0      0.679100        1.0080           
   26484 A    6621 TIP4 BD1  LP0     -1.358200        0.0000           
   26485 A    6622 TIP4 O1   OW0      0.000000       15.9990           
   26486 A    6622 TIP4 H1   HW0      0.679100        1.0080           
   26487 A    6622 TIP4 H2   HW0      0.679100        1.0080           
   26488 A    6622 TIP4 BD1  LP0     -1.358200        0.0000           
   26489 A    6623 TIP4 O1   OW0      0.000000       15.9990           
   26490 A    6623 TIP4 H1   HW0      0.679100        1.0080           
   26491 A    6623 TIP4 H2   HW0      0.679100        1.0080           
   26492 A    6623 TIP4 BD1  LP0     -1.358200        0.0000           
   26493 A    6624 TIP4 O1   OW0      0.000000       15.9990           
   26494 A    6624 TIP4 H1   HW0      0.679100        1.0080           
   26495 A    6624 TIP4 H2   HW0      0.679100        1.0080           
   26496 A    6624 TIP4 BD1  LP0     -1.358200        0.0000           
   26497 A    6625 TIP4 O1   OW0      0.000000       15.9990           
   26498 A    6625 TIP4 H1   HW0      0.679100        1.0080           
   26499 A    6625 TIP4 H2   HW0      0.679100        1.0080           
   26500 A    6625 TIP4 BD1  LP0     -1.358200        0.0000           
   26501 A    6626 TIP4 O1   OW0      0.000000       15.9990           
   26502 A    6626 TIP4 H1   HW0      0.679100        1.0080           
   26503 A    6626 TIP4 H2   HW0      0.679100        1.0080           
   26504 A    6626 TIP4 BD1  LP0     -1.358200        0.0000           
   26505 A    6627 TIP4 O1   OW0      0.000000       15.9990           
   26506 A    6627 TIP4 H1   HW0      0.679100        1.0080           
   26507 A    6627 TIP4 H2   HW0      0.679100        1.0080           
   26508 A    6627 TIP4 BD1  LP0     -1.358200        0.0000           
   26509 A    6628 TIP4 O1   OW0      0.000000       15.9990           
   26510 A    6628 TIP4 H1   HW0      0.679100        1.0080           
   26511 A    6628 TIP4 H2   HW0      0.679100        1.0080           
   26512 A    6628 TIP4 BD1  LP0     -1.358200        0.0000           
   26513 A    6629 TIP4 O1   OW0      0.000000       15.9990           
   26514 A    6629 TIP4 H1   HW0      0.679100        1.0080           
   26515 A    6629 TIP4 H2   HW0      0.679100        1.0080           
   26516 A    6629 TIP4 BD1  LP0     -1.358200        0.0000           
   26517 A    6630 TIP4 O1   OW0      0.000000       15.9990           
   26518 A    6630 TIP4 H1   HW0      0.679100        1.0080           
   26519 A    6630 TIP4 H2   HW0      0.679100        1.0080           
   26520 A    6630 TIP4 BD1  LP0     -1.358200        0.0000           
   26521 A    6631 TIP4 O1   OW0      0.000000       15.9990           
   26522 A    6631 TIP4 H1   HW0      0.679100        1.0080           
   26523 A    6631 TIP4 H2   HW0      0.679100        1.0080           
   26524 A    6631 TIP4 BD1  LP0     -1.358200        0.0000           
   26525 A    6632 TIP4 O1   OW0      0.000000       15.9990           
   26526 A    6632 TIP4 H1   HW0      0.679100        1.0080           
   26527 A    6632 TIP4 H2   HW0      0.679100        1.0080           
   26528 A    6632 TIP4 BD1  LP0     -1.358200        0.0000           
   26529 A    6633 TIP4 O1   OW0      0.000000       15.9990           
   26530 A    6633 TIP4 H1   HW0      0.679100        1.0080           
   26531 A    6633 TIP4 H2   HW0      0.679100        1.0080           
   26532 A    6633 TIP4 BD1  LP0     -1.358200        0.0000           
   26533 A    6634 TIP4 O1   OW0      0.000000       15.9990           
   26534 A    6634 TIP4 H1   HW0      0.679100        1.0080           
   26535 A    6634 TIP4 H2   HW0      0.679100        1.0080           
   26536 A    6634 TIP4 BD1  LP0     -1.358200        0.0000           
   26537 A    6635 TIP4 O1   OW0      0.000000       15.9990           
   26538 A    6635 TIP4 H1   HW0      0.679100        1.0080           
   26539 A    6635 TIP4 H2   HW0      0.679100        1.0080           
   26540 A    6635 TIP4 BD1  LP0     -1.358200        0.0000           
   26541 A    6636 TIP4 O1   OW0      0.000000       15.9990           
   26542 A    6636 TIP4 H1   HW0      0.679100        1.0080           
   26543 A    6636 TIP4 H2   HW0      0.679100        1.0080           
   26544 A    6636 TIP4 BD1  LP0     -1.358200        0.0000           
   26545 A    6637 TIP4 O1   OW0      0.000000       15.9990           
   26546 A    6637 TIP4 H1   HW0      0.679100        1.0080           
   26547 A    6637 TIP4 H2   HW0      0.679100        1.0080           
   26548 A    6637 TIP4 BD1  LP0     -1.358200        0.0000           
   26549 A    6638 TIP4 O1   OW0      0.000000       15.9990           
   26550 A    6638 TIP4 H1   HW0      0.679100        1.0080           
   26551 A    6638 TIP4 H2   HW0      0.679100        1.0080           
   26552 A    6638 TIP4 BD1  LP0     -1.358200        0.0000           
   26553 A    6639 TIP4 O1   OW0      0.000000       15.9990           
   26554 A    6639 TIP4 H1   HW0      0.679100        1.0080           
   26555 A    6639 TIP4 H2   HW0      0.679100        1.0080           
   26556 A    6639 TIP4 BD1  LP0     -1.358200        0.0000           
   26557 A    6640 TIP4 O1   OW0      0.000000       15.9990           
   26558 A    6640 TIP4 H1   HW0      0.679100        1.0080           
   26559 A    6640 TIP4 H2   HW0      0.679100        1.0080           
   26560 A    6640 TIP4 BD1  LP0     -1.358200        0.0000           
   26561 A    6641 TIP4 O1   OW0      0.000000       15.9990           
   26562 A    6641 TIP4 H1   HW0      0.679100        1.0080           
   26563 A    6641 TIP4 H2   HW0      0.679100        1.0080           
   26564 A    6641 TIP4 BD1  LP0     -1.358200        0.0000           
   26565 A    6642 TIP4 O1   OW0      0.000000       15.9990           
   26566 A    6642 TIP4 H1   HW0      0.679100        1.0080           
   26567 A    6642 TIP4 H2   HW0      0.679100        1.0080           
   26568 A    6642 TIP4 BD1  LP0     -1.358200        0.0000           
   26569 A    6643 TIP4 O1   OW0      0.000000       15.9990           
   26570 A    6643 TIP4 H1   HW0      0.679100        1.0080           
   26571 A    6643 TIP4 H2   HW0      0.679100        1.0080           
   26572 A    6643 TIP4 BD1  LP0     -1.358200        0.0000           
   26573 A    6644 TIP4 O1   OW0      0.000000       15.9990           
   26574 A    6644 TIP4 H1   HW0      0.679100        1.0080           
   26575 A    6644 TIP4 H2   HW0      0.679100        1.0080           
   26576 A    6644 TIP4 BD1  LP0     -1.358200        0.0000           
   26577 A    6645 TIP4 O1   OW0      0.000000       15.9990           
   26578 A    6645 TIP4 H1   HW0      0.679100        1.0080           
   26579 A    6645 TIP4 H2   HW0      0.679100        1.0080           
   26580 A    6645 TIP4 BD1  LP0     -1.358200        0.0000           
   26581 A    6646 TIP4 O1   OW0      0.000000       15.9990           
   26582 A    6646 TIP4 H1   HW0      0.679100        1.0080           
   26583 A    6646 TIP4 H2   HW0      0.679100        1.0080           
   26584 A    6646 TIP4 BD1  LP0     -1.358200        0.0000           
   26585 A    6647 TIP4 O1   OW0      0.000000       15.9990           
   26586 A    6647 TIP4 H1   HW0      0.679100        1.0080           
   26587 A    6647 TIP4 H2   HW0      0.679100        1.0080           
   26588 A    6647 TIP4 BD1  LP0     -1.358200        0.0000           
   26589 A    6648 TIP4 O1   OW0      0.000000       15.9990           
   26590 A    6648 TIP4 H1   HW0      0.679100        1.0080           
   26591 A    6648 TIP4 H2   HW0      0.679100        1.0080           
   26592 A    6648 TIP4 BD1  LP0     -1.358200        0.0000           
   26593 A    6649 TIP4 O1   OW0      0.000000       15.9990           
   26594 A    6649 TIP4 H1   HW0      0.679100        1.0080           
   26595 A    6649 TIP4 H2   HW0      0.679100        1.0080           
   26596 A    6649 TIP4 BD1  LP0     -1.358200        0.0000           
   26597 A    6650 TIP4 O1   OW0      0.000000       15.9990           
   26598 A    6650 TIP4 H1   HW0      0.679100        1.0080           
   26599 A    6650 TIP4 H2   HW0      0.679100        1.0080           
   26600 A    6650 TIP4 BD1  LP0     -1.358200        0.0000           
   26601 A    6651 TIP4 O1   OW0      0.000000       15.9990           
   26602 A    6651 TIP4 H1   HW0      0.679100        1.0080           
   26603 A    6651 TIP4 H2   HW0      0.679100        1.0080           
   26604 A    6651 TIP4 BD1  LP0     -1.358200        0.0000           
   26605 A    6652 TIP4 O1   OW0      0.000000       15.9990           
   26606 A    6652 TIP4 H1   HW0      0.679100        1.0080           
   26607 A    6652 TIP4 H2   HW0      0.679100        1.0080           
   26608 A    6652 TIP4 BD1  LP0     -1.358200        0.0000           
   26609 A    6653 TIP4 O1   OW0      0.000000       15.9990           
   26610 A    6653 TIP4 H1   HW0      0.679100        1.0080           
   26611 A    6653 TIP4 H2   HW0      0.679100        1.0080           
   26612 A    6653 TIP4 BD1  LP0     -1.358200        0.0000           
   26613 A    6654 TIP4 O1   OW0      0.000000       15.9990           
   26614 A    6654 TIP4 H1   HW0      0.679100        1.0080           
   26615 A    6654 TIP4 H2   HW0      0.679100        1.0080           
   26616 A    6654 TIP4 BD1  LP0     -1.358200        0.0000           
   26617 A    6655 TIP4 O1   OW0      0.000000       15.9990           
   26618 A    6655 TIP4 H1   HW0      0.679100        1.0080           
   26619 A    6655 TIP4 H2   HW0      0.679100        1.0080           
   26620 A    6655 TIP4 BD1  LP0     -1.358200        0.0000           
   26621 A    6656 TIP4 O1   OW0      0.000000       15.9990           
   26622 A    6656 TIP4 H1   HW0      0.679100        1.0080           
   26623 A    6656 TIP4 H2   HW0      0.679100        1.0080           
   26624 A    6656 TIP4 BD1  LP0     -1.358200        0.0000           
   26625 A    6657 TIP4 O1   OW0      0.000000       15.9990           
   26626 A    6657 TIP4 H1   HW0      0.679100        1.0080           
   26627 A    6657 TIP4 H2   HW0      0.679100        1.0080           
   26628 A    6657 TIP4 BD1  LP0     -1.358200        0.0000           
   26629 A    6658 TIP4 O1   OW0      0.000000       15.9990           
   26630 A    6658 TIP4 H1   HW0      0.679100        1.0080           
   26631 A    6658 TIP4 H2   HW0      0.679100        1.0080           
   26632 A    6658 TIP4 BD1  LP0     -1.358200        0.0000           
   26633 A    6659 TIP4 O1   OW0      0.000000       15.9990           
   26634 A    6659 TIP4 H1   HW0      0.679100        1.0080           
   26635 A    6659 TIP4 H2   HW0      0.679100        1.0080           
   26636 A    6659 TIP4 BD1  LP0     -1.358200        0.0000           
   26637 A    6660 TIP4 O1   OW0      0.000000       15.9990           
   26638 A    6660 TIP4 H1   HW0      0.679100        1.0080           
   26639 A    6660 TIP4 H2   HW0      0.679100        1.0080           
   26640 A    6660 TIP4 BD1  LP0     -1.358200        0.0000           
   26641 A    6661 TIP4 O1   OW0      0.000000       15.9990           
   26642 A    6661 TIP4 H1   HW0      0.679100        1.0080           
   26643 A    6661 TIP4 H2   HW0      0.679100        1.0080           
   26644 A    6661 TIP4 BD1  LP0     -1.358200        0.0000           
   26645 A    6662 TIP4 O1   OW0      0.000000       15.9990           
   26646 A    6662 TIP4 H1   HW0      0.679100        1.0080           
   26647 A    6662 TIP4 H2   HW0      0.679100        1.0080           
   26648 A    6662 TIP4 BD1  LP0     -1.358200        0.0000           
   26649 A    6663 TIP4 O1   OW0      0.000000       15.9990           
   26650 A    6663 TIP4 H1   HW0      0.679100        1.0080           
   26651 A    6663 TIP4 H2   HW0      0.679100        1.0080           
   26652 A    6663 TIP4 BD1  LP0     -1.358200        0.0000           
   26653 A    6664 TIP4 O1   OW0      0.000000       15.9990           
   26654 A    6664 TIP4 H1   HW0      0.679100        1.0080           
   26655 A    6664 TIP4 H2   HW0      0.679100        1.0080           
   26656 A    6664 TIP4 BD1  LP0     -1.358200        0.0000           
   26657 A    6665 TIP4 O1   OW0      0.000000       15.9990           
   26658 A    6665 TIP4 H1   HW0      0.679100        1.0080           
   26659 A    6665 TIP4 H2   HW0      0.679100        1.0080           
   26660 A    6665 TIP4 BD1  LP0     -1.358200        0.0000           
   26661 A    6666 TIP4 O1   OW0      0.000000       15.9990           
   26662 A    6666 TIP4 H1   HW0      0.679100        1.0080           
   26663 A    6666 TIP4 H2   HW0      0.679100        1.0080           
   26664 A    6666 TIP4 BD1  LP0     -1.358200        0.0000           
   26665 A    6667 TIP4 O1   OW0      0.000000       15.9990           
   26666 A    6667 TIP4 H1   HW0      0.679100        1.0080           
   26667 A    6667 TIP4 H2   HW0      0.679100        1.0080           
   26668 A    6667 TIP4 BD1  LP0     -1.358200        0.0000           
   26669 A    6668 TIP4 O1   OW0      0.000000       15.9990           
   26670 A    6668 TIP4 H1   HW0      0.679100        1.0080           
   26671 A    6668 TIP4 H2   HW0      0.679100        1.0080           
   26672 A    6668 TIP4 BD1  LP0     -1.358200        0.0000           
   26673 A    6669 TIP4 O1   OW0      0.000000       15.9990           
   26674 A    6669 TIP4 H1   HW0      0.679100        1.0080           
   26675 A    6669 TIP4 H2   HW0      0.679100        1.0080           
   26676 A    6669 TIP4 BD1  LP0     -1.358200        0.0000           
   26677 A    6670 TIP4 O1   OW0      0.000000       15.9990           
   26678 A    6670 TIP4 H1   HW0      0.679100        1.0080           
   26679 A    6670 TIP4 H2   HW0      0.679100        1.0080           
   26680 A    6670 TIP4 BD1  LP0     -1.358200        0.0000           
   26681 A    6671 TIP4 O1   OW0      0.000000       15.9990           
   26682 A    6671 TIP4 H1   HW0      0.679100        1.0080           
   26683 A    6671 TIP4 H2   HW0      0.679100        1.0080           
   26684 A    6671 TIP4 BD1  LP0     -1.358200        0.0000           
   26685 A    6672 TIP4 O1   OW0      0.000000       15.9990           
   26686 A    6672 TIP4 H1   HW0      0.679100        1.0080           
   26687 A    6672 TIP4 H2   HW0      0.679100        1.0080           
   26688 A    6672 TIP4 BD1  LP0     -1.358200        0.0000           
   26689 A    6673 TIP4 O1   OW0      0.000000       15.9990           
   26690 A    6673 TIP4 H1   HW0      0.679100        1.0080           
   26691 A    6673 TIP4 H2   HW0      0.679100        1.0080           
   26692 A    6673 TIP4 BD1  LP0     -1.358200        0.0000           
   26693 A    6674 TIP4 O1   OW0      0.000000       15.9990           
   26694 A    6674 TIP4 H1   HW0      0.679100        1.0080           
   26695 A    6674 TIP4 H2   HW0      0.679100        1.0080           
   26696 A    6674 TIP4 BD1  LP0     -1.358200        0.0000           
   26697 A    6675 TIP4 O1   OW0      0.000000       15.9990           
   26698 A    6675 TIP4 H1   HW0      0.679100        1.0080           
   26699 A    6675 TIP4 H2   HW0      0.679100        1.0080           
   26700 A    6675 TIP4 BD1  LP0     -1.358200        0.0000           
   26701 A    6676 TIP4 O1   OW0      0.000000       15.9990           
   26702 A    6676 TIP4 H1   HW0      0.679100        1.0080           
   26703 A    6676 TIP4 H2   HW0      0.679100        1.0080           
   26704 A    6676 TIP4 BD1  LP0     -1.358200        0.0000           
   26705 A    6677 TIP4 O1   OW0      0.000000       15.9990           
   26706 A    6677 TIP4 H1   HW0      0.679100        1.0080           
   26707 A    6677 TIP4 H2   HW0      0.679100        1.0080           
   26708 A    6677 TIP4 BD1  LP0     -1.358200        0.0000           
   26709 A    6678 TIP4 O1   OW0      0.000000       15.9990           
   26710 A    6678 TIP4 H1   HW0      0.679100        1.0080           
   26711 A    6678 TIP4 H2   HW0      0.679100        1.0080           
   26712 A    6678 TIP4 BD1  LP0     -1.358200        0.0000           
   26713 A    6679 TIP4 O1   OW0      0.000000       15.9990           
   26714 A    6679 TIP4 H1   HW0      0.679100        1.0080           
   26715 A    6679 TIP4 H2   HW0      0.679100        1.0080           
   26716 A    6679 TIP4 BD1  LP0     -1.358200        0.0000           
   26717 A    6680 TIP4 O1   OW0      0.000000       15.9990           
   26718 A    6680 TIP4 H1   HW0      0.679100        1.0080           
   26719 A    6680 TIP4 H2   HW0      0.679100        1.0080           
   26720 A    6680 TIP4 BD1  LP0     -1.358200        0.0000           
   26721 A    6681 TIP4 O1   OW0      0.000000       15.9990           
   26722 A    6681 TIP4 H1   HW0      0.679100        1.0080           
   26723 A    6681 TIP4 H2   HW0      0.679100        1.0080           
   26724 A    6681 TIP4 BD1  LP0     -1.358200        0.0000           
   26725 A    6682 TIP4 O1   OW0      0.000000       15.9990           
   26726 A    6682 TIP4 H1   HW0      0.679100        1.0080           
   26727 A    6682 TIP4 H2   HW0      0.679100        1.0080           
   26728 A    6682 TIP4 BD1  LP0     -1.358200        0.0000           
   26729 A    6683 TIP4 O1   OW0      0.000000       15.9990           
   26730 A    6683 TIP4 H1   HW0      0.679100        1.0080           
   26731 A    6683 TIP4 H2   HW0      0.679100        1.0080           
   26732 A    6683 TIP4 BD1  LP0     -1.358200        0.0000           
   26733 A    6684 TIP4 O1   OW0      0.000000       15.9990           
   26734 A    6684 TIP4 H1   HW0      0.679100        1.0080           
   26735 A    6684 TIP4 H2   HW0      0.679100        1.0080           
   26736 A    6684 TIP4 BD1  LP0     -1.358200        0.0000           
   26737 A    6685 TIP4 O1   OW0      0.000000       15.9990           
   26738 A    6685 TIP4 H1   HW0      0.679100        1.0080           
   26739 A    6685 TIP4 H2   HW0      0.679100        1.0080           
   26740 A    6685 TIP4 BD1  LP0     -1.358200        0.0000           
   26741 A    6686 TIP4 O1   OW0      0.000000       15.9990           
   26742 A    6686 TIP4 H1   HW0      0.679100        1.0080           
   26743 A    6686 TIP4 H2   HW0      0.679100        1.0080           
   26744 A    6686 TIP4 BD1  LP0     -1.358200        0.0000           
   26745 A    6687 TIP4 O1   OW0      0.000000       15.9990           
   26746 A    6687 TIP4 H1   HW0      0.679100        1.0080           
   26747 A    6687 TIP4 H2   HW0      0.679100        1.0080           
   26748 A    6687 TIP4 BD1  LP0     -1.358200        0.0000           
   26749 A    6688 TIP4 O1   OW0      0.000000       15.9990           
   26750 A    6688 TIP4 H1   HW0      0.679100        1.0080           
   26751 A    6688 TIP4 H2   HW0      0.679100        1.0080           
   26752 A    6688 TIP4 BD1  LP0     -1.358200        0.0000           
   26753 A    6689 TIP4 O1   OW0      0.000000       15.9990           
   26754 A    6689 TIP4 H1   HW0      0.679100        1.0080           
   26755 A    6689 TIP4 H2   HW0      0.679100        1.0080           
   26756 A    6689 TIP4 BD1  LP0     -1.358200        0.0000           
   26757 A    6690 TIP4 O1   OW0      0.000000       15.9990           
   26758 A    6690 TIP4 H1   HW0      0.679100        1.0080           
   26759 A    6690 TIP4 H2   HW0      0.679100        1.0080           
   26760 A    6690 TIP4 BD1  LP0     -1.358200        0.0000           
   26761 A    6691 TIP4 O1   OW0      0.000000       15.9990           
   26762 A    6691 TIP4 H1   HW0      0.679100        1.0080           
   26763 A    6691 TIP4 H2   HW0      0.679100        1.0080           
   26764 A    6691 TIP4 BD1  LP0     -1.358200        0.0000           
   26765 A    6692 TIP4 O1   OW0      0.000000       15.9990           
   26766 A    6692 TIP4 H1   HW0      0.679100        1.0080           
   26767 A    6692 TIP4 H2   HW0      0.679100        1.0080           
   26768 A    6692 TIP4 BD1  LP0     -1.358200        0.0000           
   26769 A    6693 TIP4 O1   OW0      0.000000       15.9990           
   26770 A    6693 TIP4 H1   HW0      0.679100        1.0080           
   26771 A    6693 TIP4 H2   HW0      0.679100        1.0080           
   26772 A    6693 TIP4 BD1  LP0     -1.358200        0.0000           
   26773 A    6694 TIP4 O1   OW0      0.000000       15.9990           
   26774 A    6694 TIP4 H1   HW0      0.679100        1.0080           
   26775 A    6694 TIP4 H2   HW0      0.679100        1.0080           
   26776 A    6694 TIP4 BD1  LP0     -1.358200        0.0000           
   26777 A    6695 TIP4 O1   OW0      0.000000       15.9990           
   26778 A    6695 TIP4 H1   HW0      0.679100        1.0080           
   26779 A    6695 TIP4 H2   HW0      0.679100        1.0080           
   26780 A    6695 TIP4 BD1  LP0     -1.358200        0.0000           
   26781 A    6696 TIP4 O1   OW0      0.000000       15.9990           
   26782 A    6696 TIP4 H1   HW0      0.679100        1.0080           
   26783 A    6696 TIP4 H2   HW0      0.679100        1.0080           
   26784 A    6696 TIP4 BD1  LP0     -1.358200        0.0000           
   26785 A    6697 TIP4 O1   OW0      0.000000       15.9990           
   26786 A    6697 TIP4 H1   HW0      0.679100        1.0080           
   26787 A    6697 TIP4 H2   HW0      0.679100        1.0080           
   26788 A    6697 TIP4 BD1  LP0     -1.358200        0.0000           
   26789 A    6698 TIP4 O1   OW0      0.000000       15.9990           
   26790 A    6698 TIP4 H1   HW0      0.679100        1.0080           
   26791 A    6698 TIP4 H2   HW0      0.679100        1.0080           
   26792 A    6698 TIP4 BD1  LP0     -1.358200        0.0000           
   26793 A    6699 TIP4 O1   OW0      0.000000       15.9990           
   26794 A    6699 TIP4 H1   HW0      0.679100        1.0080           
   26795 A    6699 TIP4 H2   HW0      0.679100        1.0080           
   26796 A    6699 TIP4 BD1  LP0     -1.358200        0.0000           
   26797 A    6700 TIP4 O1   OW0      0.000000       15.9990           
   26798 A    6700 TIP4 H1   HW0      0.679100        1.0080           
   26799 A    6700 TIP4 H2   HW0      0.679100        1.0080           
   26800 A    6700 TIP4 BD1  LP0     -1.358200        0.0000           
   26801 A    6701 TIP4 O1   OW0      0.000000       15.9990           
   26802 A    6701 TIP4 H1   HW0      0.679100        1.0080           
   26803 A    6701 TIP4 H2   HW0      0.679100        1.0080           
   26804 A    6701 TIP4 BD1  LP0     -1.358200        0.0000           
   26805 A    6702 TIP4 O1   OW0      0.000000       15.9990           
   26806 A    6702 TIP4 H1   HW0      0.679100        1.0080           
   26807 A    6702 TIP4 H2   HW0      0.679100        1.0080           
   26808 A    6702 TIP4 BD1  LP0     -1.358200        0.0000           
   26809 A    6703 TIP4 O1   OW0      0.000000       15.9990           
   26810 A    6703 TIP4 H1   HW0      0.679100        1.0080           
   26811 A    6703 TIP4 H2   HW0      0.679100        1.0080           
   26812 A    6703 TIP4 BD1  LP0     -1.358200        0.0000           
   26813 A    6704 TIP4 O1   OW0      0.000000       15.9990           
   26814 A    6704 TIP4 H1   HW0      0.679100        1.0080           
   26815 A    6704 TIP4 H2   HW0      0.679100        1.0080           
   26816 A    6704 TIP4 BD1  LP0     -1.358200        0.0000           
   26817 A    6705 TIP4 O1   OW0      0.000000       15.9990           
   26818 A    6705 TIP4 H1   HW0      0.679100        1.0080           
   26819 A    6705 TIP4 H2   HW0      0.679100        1.0080           
   26820 A    6705 TIP4 BD1  LP0     -1.358200        0.0000           
   26821 A    6706 TIP4 O1   OW0      0.000000       15.9990           
   26822 A    6706 TIP4 H1   HW0      0.679100        1.0080           
   26823 A    6706 TIP4 H2   HW0      0.679100        1.0080           
   26824 A    6706 TIP4 BD1  LP0     -1.358200        0.0000           
   26825 A    6707 TIP4 O1   OW0      0.000000       15.9990           
   26826 A    6707 TIP4 H1   HW0      0.679100        1.0080           
   26827 A    6707 TIP4 H2   HW0      0.679100        1.0080           
   26828 A    6707 TIP4 BD1  LP0     -1.358200        0.0000           
   26829 A    6708 TIP4 O1   OW0      0.000000       15.9990           
   26830 A    6708 TIP4 H1   HW0      0.679100        1.0080           
   26831 A    6708 TIP4 H2   HW0      0.679100        1.0080           
   26832 A    6708 TIP4 BD1  LP0     -1.358200        0.0000           
   26833 A    6709 TIP4 O1   OW0      0.000000       15.9990           
   26834 A    6709 TIP4 H1   HW0      0.679100        1.0080           
   26835 A    6709 TIP4 H2   HW0      0.679100        1.0080           
   26836 A    6709 TIP4 BD1  LP0     -1.358200        0.0000           
   26837 A    6710 TIP4 O1   OW0      0.000000       15.9990           
   26838 A    6710 TIP4 H1   HW0      0.679100        1.0080           
   26839 A    6710 TIP4 H2   HW0      0.679100        1.0080           
   26840 A    6710 TIP4 BD1  LP0     -1.358200        0.0000           
   26841 A    6711 TIP4 O1   OW0      0.000000       15.9990           
   26842 A    6711 TIP4 H1   HW0      0.679100        1.0080           
   26843 A    6711 TIP4 H2   HW0      0.679100        1.0080           
   26844 A    6711 TIP4 BD1  LP0     -1.358200        0.0000           
   26845 A    6712 TIP4 O1   OW0      0.000000       15.9990           
   26846 A    6712 TIP4 H1   HW0      0.679100        1.0080           
   26847 A    6712 TIP4 H2   HW0      0.679100        1.0080           
   26848 A    6712 TIP4 BD1  LP0     -1.358200        0.0000           
   26849 A    6713 TIP4 O1   OW0      0.000000       15.9990           
   26850 A    6713 TIP4 H1   HW0      0.679100        1.0080           
   26851 A    6713 TIP4 H2   HW0      0.679100        1.0080           
   26852 A    6713 TIP4 BD1  LP0     -1.358200        0.0000           
   26853 A    6714 TIP4 O1   OW0      0.000000       15.9990           
   26854 A    6714 TIP4 H1   HW0      0.679100        1.0080           
   26855 A    6714 TIP4 H2   HW0      0.679100        1.0080           
   26856 A    6714 TIP4 BD1  LP0     -1.358200        0.0000           
   26857 A    6715 TIP4 O1   OW0      0.000000       15.9990           
   26858 A    6715 TIP4 H1   HW0      0.679100        1.0080           
   26859 A    6715 TIP4 H2   HW0      0.679100        1.0080           
   26860 A    6715 TIP4 BD1  LP0     -1.358200        0.0000           
   26861 A    6716 TIP4 O1   OW0      0.000000       15.9990           
   26862 A    6716 TIP4 H1   HW0      0.679100        1.0080           
   26863 A    6716 TIP4 H2   HW0      0.679100        1.0080           
   26864 A    6716 TIP4 BD1  LP0     -1.358200        0.0000           
   26865 A    6717 TIP4 O1   OW0      0.000000       15.9990           
   26866 A    6717 TIP4 H1   HW0      0.679100        1.0080           
   26867 A    6717 TIP4 H2   HW0      0.679100        1.0080           
   26868 A    6717 TIP4 BD1  LP0     -1.358200        0.0000           
   26869 A    6718 TIP4 O1   OW0      0.000000       15.9990           
   26870 A    6718 TIP4 H1   HW0      0.679100        1.0080           
   26871 A    6718 TIP4 H2   HW0      0.679100        1.0080           
   26872 A    6718 TIP4 BD1  LP0     -1.358200        0.0000           
   26873 A    6719 TIP4 O1   OW0      0.000000       15.9990           
   26874 A    6719 TIP4 H1   HW0      0.679100        1.0080           
   26875 A    6719 TIP4 H2   HW0      0.679100        1.0080           
   26876 A    6719 TIP4 BD1  LP0     -1.358200        0.0000           
   26877 A    6720 TIP4 O1   OW0      0.000000       15.9990           
   26878 A    6720 TIP4 H1   HW0      0.679100        1.0080           
   26879 A    6720 TIP4 H2   HW0      0.679100        1.0080           
   26880 A    6720 TIP4 BD1  LP0     -1.358200        0.0000           
   26881 A    6721 TIP4 O1   OW0      0.000000       15.9990           
   26882 A    6721 TIP4 H1   HW0      0.679100        1.0080           
   26883 A    6721 TIP4 H2   HW0      0.679100        1.0080           
   26884 A    6721 TIP4 BD1  LP0     -1.358200        0.0000           
   26885 A    6722 TIP4 O1   OW0      0.000000       15.9990           
   26886 A    6722 TIP4 H1   HW0      0.679100        1.0080           
   26887 A    6722 TIP4 H2   HW0      0.679100        1.0080           
   26888 A    6722 TIP4 BD1  LP0     -1.358200        0.0000           
   26889 A    6723 TIP4 O1   OW0      0.000000       15.9990           
   26890 A    6723 TIP4 H1   HW0      0.679100        1.0080           
   26891 A    6723 TIP4 H2   HW0      0.679100        1.0080           
   26892 A    6723 TIP4 BD1  LP0     -1.358200        0.0000           
   26893 A    6724 TIP4 O1   OW0      0.000000       15.9990           
   26894 A    6724 TIP4 H1   HW0      0.679100        1.0080           
   26895 A    6724 TIP4 H2   HW0      0.679100        1.0080           
   26896 A    6724 TIP4 BD1  LP0     -1.358200        0.0000           
   26897 A    6725 TIP4 O1   OW0      0.000000       15.9990           
   26898 A    6725 TIP4 H1   HW0      0.679100        1.0080           
   26899 A    6725 TIP4 H2   HW0      0.679100        1.0080           
   26900 A    6725 TIP4 BD1  LP0     -1.358200        0.0000           
   26901 A    6726 TIP4 O1   OW0      0.000000       15.9990           
   26902 A    6726 TIP4 H1   HW0      0.679100        1.0080           
   26903 A    6726 TIP4 H2   HW0      0.679100        1.0080           
   26904 A    6726 TIP4 BD1  LP0     -1.358200        0.0000           
   26905 A    6727 TIP4 O1   OW0      0.000000       15.9990           
   26906 A    6727 TIP4 H1   HW0      0.679100        1.0080           
   26907 A    6727 TIP4 H2   HW0      0.679100        1.0080           
   26908 A    6727 TIP4 BD1  LP0     -1.358200        0.0000           
   26909 A    6728 TIP4 O1   OW0      0.000000       15.9990           
   26910 A    6728 TIP4 H1   HW0      0.679100        1.0080           
   26911 A    6728 TIP4 H2   HW0      0.679100        1.0080           
   26912 A    6728 TIP4 BD1  LP0     -1.358200        0.0000           
   26913 A    6729 TIP4 O1   OW0      0.000000       15.9990           
   26914 A    6729 TIP4 H1   HW0      0.679100        1.0080           
   26915 A    6729 TIP4 H2   HW0      0.679100        1.0080           
   26916 A    6729 TIP4 BD1  LP0     -1.358200        0.0000           
   26917 A    6730 TIP4 O1   OW0      0.000000       15.9990           
   26918 A    6730 TIP4 H1   HW0      0.679100        1.0080           
   26919 A    6730 TIP4 H2   HW0      0.679100        1.0080           
   26920 A    6730 TIP4 BD1  LP0     -1.358200        0.0000           
   26921 A    6731 TIP4 O1   OW0      0.000000       15.9990           
   26922 A    6731 TIP4 H1   HW0      0.679100        1.0080           
   26923 A    6731 TIP4 H2   HW0      0.679100        1.0080           
   26924 A    6731 TIP4 BD1  LP0     -1.358200        0.0000           
   26925 A    6732 TIP4 O1   OW0      0.000000       15.9990           
   26926 A    6732 TIP4 H1   HW0      0.679100        1.0080           
   26927 A    6732 TIP4 H2   HW0      0.679100        1.0080           
   26928 A    6732 TIP4 BD1  LP0     -1.358200        0.0000           
   26929 A    6733 TIP4 O1   OW0      0.000000       15.9990           
   26930 A    6733 TIP4 H1   HW0      0.679100        1.0080           
   26931 A    6733 TIP4 H2   HW0      0.679100        1.0080           
   26932 A    6733 TIP4 BD1  LP0     -1.358200        0.0000           
   26933 A    6734 TIP4 O1   OW0      0.000000       15.9990           
   26934 A    6734 TIP4 H1   HW0      0.679100        1.0080           
   26935 A    6734 TIP4 H2   HW0      0.679100        1.0080           
   26936 A    6734 TIP4 BD1  LP0     -1.358200        0.0000           
   26937 A    6735 TIP4 O1   OW0      0.000000       15.9990           
   26938 A    6735 TIP4 H1   HW0      0.679100        1.0080           
   26939 A    6735 TIP4 H2   HW0      0.679100        1.0080           
   26940 A    6735 TIP4 BD1  LP0     -1.358200        0.0000           
   26941 A    6736 TIP4 O1   OW0      0.000000       15.9990           
   26942 A    6736 TIP4 H1   HW0      0.679100        1.0080           
   26943 A    6736 TIP4 H2   HW0      0.679100        1.0080           
   26944 A    6736 TIP4 BD1  LP0     -1.358200        0.0000           
   26945 A    6737 TIP4 O1   OW0      0.000000       15.9990           
   26946 A    6737 TIP4 H1   HW0      0.679100        1.0080           
   26947 A    6737 TIP4 H2   HW0      0.679100        1.0080           
   26948 A    6737 TIP4 BD1  LP0     -1.358200        0.0000           
   26949 A    6738 TIP4 O1   OW0      0.000000       15.9990           
   26950 A    6738 TIP4 H1   HW0      0.679100        1.0080           
   26951 A    6738 TIP4 H2   HW0      0.679100        1.0080           
   26952 A    6738 TIP4 BD1  LP0     -1.358200        0.0000           
   26953 A    6739 TIP4 O1   OW0      0.000000       15.9990           
   26954 A    6739 TIP4 H1   HW0      0.679100        1.0080           
   26955 A    6739 TIP4 H2   HW0      0.679100        1.0080           
   26956 A    6739 TIP4 BD1  LP0     -1.358200        0.0000           
   26957 A    6740 TIP4 O1   OW0      0.000000       15.9990           
   26958 A    6740 TIP4 H1   HW0      0.679100        1.0080           
   26959 A    6740 TIP4 H2   HW0      0.679100        1.0080           
   26960 A    6740 TIP4 BD1  LP0     -1.358200        0.0000           
   26961 A    6741 TIP4 O1   OW0      0.000000       15.9990           
   26962 A    6741 TIP4 H1   HW0      0.679100        1.0080           
   26963 A    6741 TIP4 H2   HW0      0.679100        1.0080           
   26964 A    6741 TIP4 BD1  LP0     -1.358200        0.0000           
   26965 A    6742 TIP4 O1   OW0      0.000000       15.9990           
   26966 A    6742 TIP4 H1   HW0      0.679100        1.0080           
   26967 A    6742 TIP4 H2   HW0      0.679100        1.0080           
   26968 A    6742 TIP4 BD1  LP0     -1.358200        0.0000           
   26969 A    6743 TIP4 O1   OW0      0.000000       15.9990           
   26970 A    6743 TIP4 H1   HW0      0.679100        1.0080           
   26971 A    6743 TIP4 H2   HW0      0.679100        1.0080           
   26972 A    6743 TIP4 BD1  LP0     -1.358200        0.0000           
   26973 A    6744 TIP4 O1   OW0      0.000000       15.9990           
   26974 A    6744 TIP4 H1   HW0      0.679100        1.0080           
   26975 A    6744 TIP4 H2   HW0      0.679100        1.0080           
   26976 A    6744 TIP4 BD1  LP0     -1.358200        0.0000           
   26977 A    6745 TIP4 O1   OW0      0.000000       15.9990           
   26978 A    6745 TIP4 H1   HW0      0.679100        1.0080           
   26979 A    6745 TIP4 H2   HW0      0.679100        1.0080           
   26980 A    6745 TIP4 BD1  LP0     -1.358200        0.0000           
   26981 A    6746 TIP4 O1   OW0      0.000000       15.9990           
   26982 A    6746 TIP4 H1   HW0      0.679100        1.0080           
   26983 A    6746 TIP4 H2   HW0      0.679100        1.0080           
   26984 A    6746 TIP4 BD1  LP0     -1.358200        0.0000           
   26985 A    6747 TIP4 O1   OW0      0.000000       15.9990           
   26986 A    6747 TIP4 H1   HW0      0.679100        1.0080           
   26987 A    6747 TIP4 H2   HW0      0.679100        1.0080           
   26988 A    6747 TIP4 BD1  LP0     -1.358200        0.0000           
   26989 A    6748 TIP4 O1   OW0      0.000000       15.9990           
   26990 A    6748 TIP4 H1   HW0      0.679100        1.0080           
   26991 A    6748 TIP4 H2   HW0      0.679100        1.0080           
   26992 A    6748 TIP4 BD1  LP0     -1.358200        0.0000           
   26993 A    6749 TIP4 O1   OW0      0.000000       15.9990           
   26994 A    6749 TIP4 H1   HW0      0.679100        1.0080           
   26995 A    6749 TIP4 H2   HW0      0.679100        1.0080           
   26996 A    6749 TIP4 BD1  LP0     -1.358200        0.0000           
   26997 A    6750 TIP4 O1   OW0      0.000000       15.9990           
   26998 A    6750 TIP4 H1   HW0      0.679100        1.0080           
   26999 A    6750 TIP4 H2   HW0      0.679100        1.0080           
   27000 A    6750 TIP4 BD1  LP0     -1.358200        0.0000           
   27001 A    6751 TIP4 O1   OW0      0.000000       15.9990           
   27002 A    6751 TIP4 H1   HW0      0.679100        1.0080           
   27003 A    6751 TIP4 H2   HW0      0.679100        1.0080           
   27004 A    6751 TIP4 BD1  LP0     -1.358200        0.0000           
   27005 A    6752 TIP4 O1   OW0      0.000000       15.9990           
   27006 A    6752 TIP4 H1   HW0      0.679100        1.0080           
   27007 A    6752 TIP4 H2   HW0      0.679100        1.0080           
   27008 A    6752 TIP4 BD1  LP0     -1.358200        0.0000           
   27009 A    6753 TIP4 O1   OW0      0.000000       15.9990           
   27010 A    6753 TIP4 H1   HW0      0.679100        1.0080           
   27011 A    6753 TIP4 H2   HW0      0.679100        1.0080           
   27012 A    6753 TIP4 BD1  LP0     -1.358200        0.0000           
   27013 A    6754 TIP4 O1   OW0      0.000000       15.9990           
   27014 A    6754 TIP4 H1   HW0      0.679100        1.0080           
   27015 A    6754 TIP4 H2   HW0      0.679100        1.0080           
   27016 A    6754 TIP4 BD1  LP0     -1.358200        0.0000           
   27017 A    6755 TIP4 O1   OW0      0.000000       15.9990           
   27018 A    6755 TIP4 H1   HW0      0.679100        1.0080           
   27019 A    6755 TIP4 H2   HW0      0.679100        1.0080           
   27020 A    6755 TIP4 BD1  LP0     -1.358200        0.0000           
   27021 A    6756 TIP4 O1   OW0      0.000000       15.9990           
   27022 A    6756 TIP4 H1   HW0      0.679100        1.0080           
   27023 A    6756 TIP4 H2   HW0      0.679100        1.0080           
   27024 A    6756 TIP4 BD1  LP0     -1.358200        0.0000           
   27025 A    6757 TIP4 O1   OW0      0.000000       15.9990           
   27026 A    6757 TIP4 H1   HW0      0.679100        1.0080           
   27027 A    6757 TIP4 H2   HW0      0.679100        1.0080           
   27028 A    6757 TIP4 BD1  LP0     -1.358200        0.0000           
   27029 A    6758 TIP4 O1   OW0      0.000000       15.9990           
   27030 A    6758 TIP4 H1   HW0      0.679100        1.0080           
   27031 A    6758 TIP4 H2   HW0      0.679100        1.0080           
   27032 A    6758 TIP4 BD1  LP0     -1.358200        0.0000           
   27033 A    6759 TIP4 O1   OW0      0.000000       15.9990           
   27034 A    6759 TIP4 H1   HW0      0.679100        1.0080           
   27035 A    6759 TIP4 H2   HW0      0.679100        1.0080           
   27036 A    6759 TIP4 BD1  LP0     -1.358200        0.0000           
   27037 A    6760 TIP4 O1   OW0      0.000000       15.9990           
   27038 A    6760 TIP4 H1   HW0      0.679100        1.0080           
   27039 A    6760 TIP4 H2   HW0      0.679100        1.0080           
   27040 A    6760 TIP4 BD1  LP0     -1.358200        0.0000           
   27041 A    6761 TIP4 O1   OW0      0.000000       15.9990           
   27042 A    6761 TIP4 H1   HW0      0.679100        1.0080           
   27043 A    6761 TIP4 H2   HW0      0.679100        1.0080           
   27044 A    6761 TIP4 BD1  LP0     -1.358200        0.0000           
   27045 A    6762 TIP4 O1   OW0      0.000000       15.9990           
   27046 A    6762 TIP4 H1   HW0      0.679100        1.0080           
   27047 A    6762 TIP4 H2   HW0      0.679100        1.0080           
   27048 A    6762 TIP4 BD1  LP0     -1.358200        0.0000           
   27049 A    6763 TIP4 O1   OW0      0.000000       15.9990           
   27050 A    6763 TIP4 H1   HW0      0.679100        1.0080           
   27051 A    6763 TIP4 H2   HW0      0.679100        1.0080           
   27052 A    6763 TIP4 BD1  LP0     -1.358200        0.0000           
   27053 A    6764 TIP4 O1   OW0      0.000000       15.9990           
   27054 A    6764 TIP4 H1   HW0      0.679100        1.0080           
   27055 A    6764 TIP4 H2   HW0      0.679100        1.0080           
   27056 A    6764 TIP4 BD1  LP0     -1.358200        0.0000           
   27057 A    6765 TIP4 O1   OW0      0.000000       15.9990           
   27058 A    6765 TIP4 H1   HW0      0.679100        1.0080           
   27059 A    6765 TIP4 H2   HW0      0.679100        1.0080           
   27060 A    6765 TIP4 BD1  LP0     -1.358200        0.0000           
   27061 A    6766 TIP4 O1   OW0      0.000000       15.9990           
   27062 A    6766 TIP4 H1   HW0      0.679100        1.0080           
   27063 A    6766 TIP4 H2   HW0      0.679100        1.0080           
   27064 A    6766 TIP4 BD1  LP0     -1.358200        0.0000           
   27065 A    6767 TIP4 O1   OW0      0.000000       15.9990           
   27066 A    6767 TIP4 H1   HW0      0.679100        1.0080           
   27067 A    6767 TIP4 H2   HW0      0.679100        1.0080           
   27068 A    6767 TIP4 BD1  LP0     -1.358200        0.0000           
   27069 A    6768 TIP4 O1   OW0      0.000000       15.9990           
   27070 A    6768 TIP4 H1   HW0      0.679100        1.0080           
   27071 A    6768 TIP4 H2   HW0      0.679100        1.0080           
   27072 A    6768 TIP4 BD1  LP0     -1.358200        0.0000           
   27073 A    6769 TIP4 O1   OW0      0.000000       15.9990           
   27074 A    6769 TIP4 H1   HW0      0.679100        1.0080           
   27075 A    6769 TIP4 H2   HW0      0.679100        1.0080           
   27076 A    6769 TIP4 BD1  LP0     -1.358200        0.0000           
   27077 A    6770 TIP4 O1   OW0      0.000000       15.9990           
   27078 A    6770 TIP4 H1   HW0      0.679100        1.0080           
   27079 A    6770 TIP4 H2   HW0      0.679100        1.0080           
   27080 A    6770 TIP4 BD1  LP0     -1.358200        0.0000           
   27081 A    6771 TIP4 O1   OW0      0.000000       15.9990           
   27082 A    6771 TIP4 H1   HW0      0.679100        1.0080           
   27083 A    6771 TIP4 H2   HW0      0.679100        1.0080           
   27084 A    6771 TIP4 BD1  LP0     -1.358200        0.0000           
   27085 A    6772 TIP4 O1   OW0      0.000000       15.9990           
   27086 A    6772 TIP4 H1   HW0      0.679100        1.0080           
   27087 A    6772 TIP4 H2   HW0      0.679100        1.0080           
   27088 A    6772 TIP4 BD1  LP0     -1.358200        0.0000           
   27089 A    6773 TIP4 O1   OW0      0.000000       15.9990           
   27090 A    6773 TIP4 H1   HW0      0.679100        1.0080           
   27091 A    6773 TIP4 H2   HW0      0.679100        1.0080           
   27092 A    6773 TIP4 BD1  LP0     -1.358200        0.0000           
   27093 A    6774 TIP4 O1   OW0      0.000000       15.9990           
   27094 A    6774 TIP4 H1   HW0      0.679100        1.0080           
   27095 A    6774 TIP4 H2   HW0      0.679100        1.0080           
   27096 A    6774 TIP4 BD1  LP0     -1.358200        0.0000           
   27097 A    6775 TIP4 O1   OW0      0.000000       15.9990           
   27098 A    6775 TIP4 H1   HW0      0.679100        1.0080           
   27099 A    6775 TIP4 H2   HW0      0.679100        1.0080           
   27100 A    6775 TIP4 BD1  LP0     -1.358200        0.0000           
   27101 A    6776 TIP4 O1   OW0      0.000000       15.9990           
   27102 A    6776 TIP4 H1   HW0      0.679100        1.0080           
   27103 A    6776 TIP4 H2   HW0      0.679100        1.0080           
   27104 A    6776 TIP4 BD1  LP0     -1.358200        0.0000           
   27105 A    6777 TIP4 O1   OW0      0.000000       15.9990           
   27106 A    6777 TIP4 H1   HW0      0.679100        1.0080           
   27107 A    6777 TIP4 H2   HW0      0.679100        1.0080           
   27108 A    6777 TIP4 BD1  LP0     -1.358200        0.0000           
   27109 A    6778 TIP4 O1   OW0      0.000000       15.9990           
   27110 A    6778 TIP4 H1   HW0      0.679100        1.0080           
   27111 A    6778 TIP4 H2   HW0      0.679100        1.0080           
   27112 A    6778 TIP4 BD1  LP0     -1.358200        0.0000           
   27113 A    6779 TIP4 O1   OW0      0.000000       15.9990           
   27114 A    6779 TIP4 H1   HW0      0.679100        1.0080           
   27115 A    6779 TIP4 H2   HW0      0.679100        1.0080           
   27116 A    6779 TIP4 BD1  LP0     -1.358200        0.0000           
   27117 A    6780 TIP4 O1   OW0      0.000000       15.9990           
   27118 A    6780 TIP4 H1   HW0      0.679100        1.0080           
   27119 A    6780 TIP4 H2   HW0      0.679100        1.0080           
   27120 A    6780 TIP4 BD1  LP0     -1.358200        0.0000           
   27121 A    6781 TIP4 O1   OW0      0.000000       15.9990           
   27122 A    6781 TIP4 H1   HW0      0.679100        1.0080           
   27123 A    6781 TIP4 H2   HW0      0.679100        1.0080           
   27124 A    6781 TIP4 BD1  LP0     -1.358200        0.0000           
   27125 A    6782 TIP4 O1   OW0      0.000000       15.9990           
   27126 A    6782 TIP4 H1   HW0      0.679100        1.0080           
   27127 A    6782 TIP4 H2   HW0      0.679100        1.0080           
   27128 A    6782 TIP4 BD1  LP0     -1.358200        0.0000           
   27129 A    6783 TIP4 O1   OW0      0.000000       15.9990           
   27130 A    6783 TIP4 H1   HW0      0.679100        1.0080           
   27131 A    6783 TIP4 H2   HW0      0.679100        1.0080           
   27132 A    6783 TIP4 BD1  LP0     -1.358200        0.0000           
   27133 A    6784 TIP4 O1   OW0      0.000000       15.9990           
   27134 A    6784 TIP4 H1   HW0      0.679100        1.0080           
   27135 A    6784 TIP4 H2   HW0      0.679100        1.0080           
   27136 A    6784 TIP4 BD1  LP0     -1.358200        0.0000           
   27137 A    6785 TIP4 O1   OW0      0.000000       15.9990           
   27138 A    6785 TIP4 H1   HW0      0.679100        1.0080           
   27139 A    6785 TIP4 H2   HW0      0.679100        1.0080           
   27140 A    6785 TIP4 BD1  LP0     -1.358200        0.0000           
   27141 A    6786 TIP4 O1   OW0      0.000000       15.9990           
   27142 A    6786 TIP4 H1   HW0      0.679100        1.0080           
   27143 A    6786 TIP4 H2   HW0      0.679100        1.0080           
   27144 A    6786 TIP4 BD1  LP0     -1.358200        0.0000           
   27145 A    6787 TIP4 O1   OW0      0.000000       15.9990           
   27146 A    6787 TIP4 H1   HW0      0.679100        1.0080           
   27147 A    6787 TIP4 H2   HW0      0.679100        1.0080           
   27148 A    6787 TIP4 BD1  LP0     -1.358200        0.0000           
   27149 A    6788 TIP4 O1   OW0      0.000000       15.9990           
   27150 A    6788 TIP4 H1   HW0      0.679100        1.0080           
   27151 A    6788 TIP4 H2   HW0      0.679100        1.0080           
   27152 A    6788 TIP4 BD1  LP0     -1.358200        0.0000           
   27153 A    6789 TIP4 O1   OW0      0.000000       15.9990           
   27154 A    6789 TIP4 H1   HW0      0.679100        1.0080           
   27155 A    6789 TIP4 H2   HW0      0.679100        1.0080           
   27156 A    6789 TIP4 BD1  LP0     -1.358200        0.0000           
   27157 A    6790 TIP4 O1   OW0      0.000000       15.9990           
   27158 A    6790 TIP4 H1   HW0      0.679100        1.0080           
   27159 A    6790 TIP4 H2   HW0      0.679100        1.0080           
   27160 A    6790 TIP4 BD1  LP0     -1.358200        0.0000           
   27161 A    6791 TIP4 O1   OW0      0.000000       15.9990           
   27162 A    6791 TIP4 H1   HW0      0.679100        1.0080           
   27163 A    6791 TIP4 H2   HW0      0.679100        1.0080           
   27164 A    6791 TIP4 BD1  LP0     -1.358200        0.0000           
   27165 A    6792 TIP4 O1   OW0      0.000000       15.9990           
   27166 A    6792 TIP4 H1   HW0      0.679100        1.0080           
   27167 A    6792 TIP4 H2   HW0      0.679100        1.0080           
   27168 A    6792 TIP4 BD1  LP0     -1.358200        0.0000           
   27169 A    6793 TIP4 O1   OW0      0.000000       15.9990           
   27170 A    6793 TIP4 H1   HW0      0.679100        1.0080           
   27171 A    6793 TIP4 H2   HW0      0.679100        1.0080           
   27172 A    6793 TIP4 BD1  LP0     -1.358200        0.0000           
   27173 A    6794 TIP4 O1   OW0      0.000000       15.9990           
   27174 A    6794 TIP4 H1   HW0      0.679100        1.0080           
   27175 A    6794 TIP4 H2   HW0      0.679100        1.0080           
   27176 A    6794 TIP4 BD1  LP0     -1.358200        0.0000           
   27177 A    6795 TIP4 O1   OW0      0.000000       15.9990           
   27178 A    6795 TIP4 H1   HW0      0.679100        1.0080           
   27179 A    6795 TIP4 H2   HW0      0.679100        1.0080           
   27180 A    6795 TIP4 BD1  LP0     -1.358200        0.0000           
   27181 A    6796 TIP4 O1   OW0      0.000000       15.9990           
   27182 A    6796 TIP4 H1   HW0      0.679100        1.0080           
   27183 A    6796 TIP4 H2   HW0      0.679100        1.0080           
   27184 A    6796 TIP4 BD1  LP0     -1.358200        0.0000           
   27185 A    6797 TIP4 O1   OW0      0.000000       15.9990           
   27186 A    6797 TIP4 H1   HW0      0.679100        1.0080           
   27187 A    6797 TIP4 H2   HW0      0.679100        1.0080           
   27188 A    6797 TIP4 BD1  LP0     -1.358200        0.0000           
   27189 A    6798 TIP4 O1   OW0      0.000000       15.9990           
   27190 A    6798 TIP4 H1   HW0      0.679100        1.0080           
   27191 A    6798 TIP4 H2   HW0      0.679100        1.0080           
   27192 A    6798 TIP4 BD1  LP0     -1.358200        0.0000           
   27193 A    6799 TIP4 O1   OW0      0.000000       15.9990           
   27194 A    6799 TIP4 H1   HW0      0.679100        1.0080           
   27195 A    6799 TIP4 H2   HW0      0.679100        1.0080           
   27196 A    6799 TIP4 BD1  LP0     -1.358200        0.0000           
   27197 A    6800 TIP4 O1   OW0      0.000000       15.9990           
   27198 A    6800 TIP4 H1   HW0      0.679100        1.0080           
   27199 A    6800 TIP4 H2   HW0      0.679100        1.0080           
   27200 A    6800 TIP4 BD1  LP0     -1.358200        0.0000           
   27201 A    6801 TIP4 O1   OW0      0.000000       15.9990           
   27202 A    6801 TIP4 H1   HW0      0.679100        1.0080           
   27203 A    6801 TIP4 H2   HW0      0.679100        1.0080           
   27204 A    6801 TIP4 BD1  LP0     -1.358200        0.0000           
   27205 A    6802 TIP4 O1   OW0      0.000000       15.9990           
   27206 A    6802 TIP4 H1   HW0      0.679100        1.0080           
   27207 A    6802 TIP4 H2   HW0      0.679100        1.0080           
   27208 A    6802 TIP4 BD1  LP0     -1.358200        0.0000           
   27209 A    6803 TIP4 O1   OW0      0.000000       15.9990           
   27210 A    6803 TIP4 H1   HW0      0.679100        1.0080           
   27211 A    6803 TIP4 H2   HW0      0.679100        1.0080           
   27212 A    6803 TIP4 BD1  LP0     -1.358200        0.0000           
   27213 A    6804 TIP4 O1   OW0      0.000000       15.9990           
   27214 A    6804 TIP4 H1   HW0      0.679100        1.0080           
   27215 A    6804 TIP4 H2   HW0      0.679100        1.0080           
   27216 A    6804 TIP4 BD1  LP0     -1.358200        0.0000           
   27217 A    6805 TIP4 O1   OW0      0.000000       15.9990           
   27218 A    6805 TIP4 H1   HW0      0.679100        1.0080           
   27219 A    6805 TIP4 H2   HW0      0.679100        1.0080           
   27220 A    6805 TIP4 BD1  LP0     -1.358200        0.0000           
   27221 A    6806 TIP4 O1   OW0      0.000000       15.9990           
   27222 A    6806 TIP4 H1   HW0      0.679100        1.0080           
   27223 A    6806 TIP4 H2   HW0      0.679100        1.0080           
   27224 A    6806 TIP4 BD1  LP0     -1.358200        0.0000           
   27225 A    6807 TIP4 O1   OW0      0.000000       15.9990           
   27226 A    6807 TIP4 H1   HW0      0.679100        1.0080           
   27227 A    6807 TIP4 H2   HW0      0.679100        1.0080           
   27228 A    6807 TIP4 BD1  LP0     -1.358200        0.0000           
   27229 A    6808 TIP4 O1   OW0      0.000000       15.9990           
   27230 A    6808 TIP4 H1   HW0      0.679100        1.0080           
   27231 A    6808 TIP4 H2   HW0      0.679100        1.0080           
   27232 A    6808 TIP4 BD1  LP0     -1.358200        0.0000           
   27233 A    6809 TIP4 O1   OW0      0.000000       15.9990           
   27234 A    6809 TIP4 H1   HW0      0.679100        1.0080           
   27235 A    6809 TIP4 H2   HW0      0.679100        1.0080           
   27236 A    6809 TIP4 BD1  LP0     -1.358200        0.0000           
   27237 A    6810 TIP4 O1   OW0      0.000000       15.9990           
   27238 A    6810 TIP4 H1   HW0      0.679100        1.0080           
   27239 A    6810 TIP4 H2   HW0      0.679100        1.0080           
   27240 A    6810 TIP4 BD1  LP0     -1.358200        0.0000           
   27241 A    6811 TIP4 O1   OW0      0.000000       15.9990           
   27242 A    6811 TIP4 H1   HW0      0.679100        1.0080           
   27243 A    6811 TIP4 H2   HW0      0.679100        1.0080           
   27244 A    6811 TIP4 BD1  LP0     -1.358200        0.0000           
   27245 A    6812 TIP4 O1   OW0      0.000000       15.9990           
   27246 A    6812 TIP4 H1   HW0      0.679100        1.0080           
   27247 A    6812 TIP4 H2   HW0      0.679100        1.0080           
   27248 A    6812 TIP4 BD1  LP0     -1.358200        0.0000           
   27249 A    6813 TIP4 O1   OW0      0.000000       15.9990           
   27250 A    6813 TIP4 H1   HW0      0.679100        1.0080           
   27251 A    6813 TIP4 H2   HW0      0.679100        1.0080           
   27252 A    6813 TIP4 BD1  LP0     -1.358200        0.0000           
   27253 A    6814 TIP4 O1   OW0      0.000000       15.9990           
   27254 A    6814 TIP4 H1   HW0      0.679100        1.0080           
   27255 A    6814 TIP4 H2   HW0      0.679100        1.0080           
   27256 A    6814 TIP4 BD1  LP0     -1.358200        0.0000           
   27257 A    6815 TIP4 O1   OW0      0.000000       15.9990           
   27258 A    6815 TIP4 H1   HW0      0.679100        1.0080           
   27259 A    6815 TIP4 H2   HW0      0.679100        1.0080           
   27260 A    6815 TIP4 BD1  LP0     -1.358200        0.0000           
   27261 A    6816 TIP4 O1   OW0      0.000000       15.9990           
   27262 A    6816 TIP4 H1   HW0      0.679100        1.0080           
   27263 A    6816 TIP4 H2   HW0      0.679100        1.0080           
   27264 A    6816 TIP4 BD1  LP0     -1.358200        0.0000           
   27265 A    6817 TIP4 O1   OW0      0.000000       15.9990           
   27266 A    6817 TIP4 H1   HW0      0.679100        1.0080           
   27267 A    6817 TIP4 H2   HW0      0.679100        1.0080           
   27268 A    6817 TIP4 BD1  LP0     -1.358200        0.0000           
   27269 A    6818 TIP4 O1   OW0      0.000000       15.9990           
   27270 A    6818 TIP4 H1   HW0      0.679100        1.0080           
   27271 A    6818 TIP4 H2   HW0      0.679100        1.0080           
   27272 A    6818 TIP4 BD1  LP0     -1.358200        0.0000           
   27273 A    6819 TIP4 O1   OW0      0.000000       15.9990           
   27274 A    6819 TIP4 H1   HW0      0.679100        1.0080           
   27275 A    6819 TIP4 H2   HW0      0.679100        1.0080           
   27276 A    6819 TIP4 BD1  LP0     -1.358200        0.0000           
   27277 A    6820 TIP4 O1   OW0      0.000000       15.9990           
   27278 A    6820 TIP4 H1   HW0      0.679100        1.0080           
   27279 A    6820 TIP4 H2   HW0      0.679100        1.0080           
   27280 A    6820 TIP4 BD1  LP0     -1.358200        0.0000           
   27281 A    6821 TIP4 O1   OW0      0.000000       15.9990           
   27282 A    6821 TIP4 H1   HW0      0.679100        1.0080           
   27283 A    6821 TIP4 H2   HW0      0.679100        1.0080           
   27284 A    6821 TIP4 BD1  LP0     -1.358200        0.0000           
   27285 A    6822 TIP4 O1   OW0      0.000000       15.9990           
   27286 A    6822 TIP4 H1   HW0      0.679100        1.0080           
   27287 A    6822 TIP4 H2   HW0      0.679100        1.0080           
   27288 A    6822 TIP4 BD1  LP0     -1.358200        0.0000           
   27289 A    6823 TIP4 O1   OW0      0.000000       15.9990           
   27290 A    6823 TIP4 H1   HW0      0.679100        1.0080           
   27291 A    6823 TIP4 H2   HW0      0.679100        1.0080           
   27292 A    6823 TIP4 BD1  LP0     -1.358200        0.0000           
   27293 A    6824 TIP4 O1   OW0      0.000000       15.9990           
   27294 A    6824 TIP4 H1   HW0      0.679100        1.0080           
   27295 A    6824 TIP4 H2   HW0      0.679100        1.0080           
   27296 A    6824 TIP4 BD1  LP0     -1.358200        0.0000           
   27297 A    6825 TIP4 O1   OW0      0.000000       15.9990           
   27298 A    6825 TIP4 H1   HW0      0.679100        1.0080           
   27299 A    6825 TIP4 H2   HW0      0.679100        1.0080           
   27300 A    6825 TIP4 BD1  LP0     -1.358200        0.0000           
   27301 A    6826 TIP4 O1   OW0      0.000000       15.9990           
   27302 A    6826 TIP4 H1   HW0      0.679100        1.0080           
   27303 A    6826 TIP4 H2   HW0      0.679100        1.0080           
   27304 A    6826 TIP4 BD1  LP0     -1.358200        0.0000           
   27305 A    6827 TIP4 O1   OW0      0.000000       15.9990           
   27306 A    6827 TIP4 H1   HW0      0.679100        1.0080           
   27307 A    6827 TIP4 H2   HW0      0.679100        1.0080           
   27308 A    6827 TIP4 BD1  LP0     -1.358200        0.0000           
   27309 A    6828 TIP4 O1   OW0      0.000000       15.9990           
   27310 A    6828 TIP4 H1   HW0      0.679100        1.0080           
   27311 A    6828 TIP4 H2   HW0      0.679100        1.0080           
   27312 A    6828 TIP4 BD1  LP0     -1.358200        0.0000           
   27313 A    6829 TIP4 O1   OW0      0.000000       15.9990           
   27314 A    6829 TIP4 H1   HW0      0.679100        1.0080           
   27315 A    6829 TIP4 H2   HW0      0.679100        1.0080           
   27316 A    6829 TIP4 BD1  LP0     -1.358200        0.0000           
   27317 A    6830 TIP4 O1   OW0      0.000000       15.9990           
   27318 A    6830 TIP4 H1   HW0      0.679100        1.0080           
   27319 A    6830 TIP4 H2   HW0      0.679100        1.0080           
   27320 A    6830 TIP4 BD1  LP0     -1.358200        0.0000           
   27321 A    6831 TIP4 O1   OW0      0.000000       15.9990           
   27322 A    6831 TIP4 H1   HW0      0.679100        1.0080           
   27323 A    6831 TIP4 H2   HW0      0.679100        1.0080           
   27324 A    6831 TIP4 BD1  LP0     -1.358200        0.0000           
   27325 A    6832 TIP4 O1   OW0      0.000000       15.9990           
   27326 A    6832 TIP4 H1   HW0      0.679100        1.0080           
   27327 A    6832 TIP4 H2   HW0      0.679100        1.0080           
   27328 A    6832 TIP4 BD1  LP0     -1.358200        0.0000           
   27329 A    6833 TIP4 O1   OW0      0.000000       15.9990           
   27330 A    6833 TIP4 H1   HW0      0.679100        1.0080           
   27331 A    6833 TIP4 H2   HW0      0.679100        1.0080           
   27332 A    6833 TIP4 BD1  LP0     -1.358200        0.0000           
   27333 A    6834 TIP4 O1   OW0      0.000000       15.9990           
   27334 A    6834 TIP4 H1   HW0      0.679100        1.0080           
   27335 A    6834 TIP4 H2   HW0      0.679100        1.0080           
   27336 A    6834 TIP4 BD1  LP0     -1.358200        0.0000           
   27337 A    6835 TIP4 O1   OW0      0.000000       15.9990           
   27338 A    6835 TIP4 H1   HW0      0.679100        1.0080           
   27339 A    6835 TIP4 H2   HW0      0.679100        1.0080           
   27340 A    6835 TIP4 BD1  LP0     -1.358200        0.0000           
   27341 A    6836 TIP4 O1   OW0      0.000000       15.9990           
   27342 A    6836 TIP4 H1   HW0      0.679100        1.0080           
   27343 A    6836 TIP4 H2   HW0      0.679100        1.0080           
   27344 A    6836 TIP4 BD1  LP0     -1.358200        0.0000           
   27345 A    6837 TIP4 O1   OW0      0.000000       15.9990           
   27346 A    6837 TIP4 H1   HW0      0.679100        1.0080           
   27347 A    6837 TIP4 H2   HW0      0.679100        1.0080           
   27348 A    6837 TIP4 BD1  LP0     -1.358200        0.0000           
   27349 A    6838 TIP4 O1   OW0      0.000000       15.9990           
   27350 A    6838 TIP4 H1   HW0      0.679100        1.0080           
   27351 A    6838 TIP4 H2   HW0      0.679100        1.0080           
   27352 A    6838 TIP4 BD1  LP0     -1.358200        0.0000           
   27353 A    6839 TIP4 O1   OW0      0.000000       15.9990           
   27354 A    6839 TIP4 H1   HW0      0.679100        1.0080           
   27355 A    6839 TIP4 H2   HW0      0.679100        1.0080           
   27356 A    6839 TIP4 BD1  LP0     -1.358200        0.0000           
   27357 A    6840 TIP4 O1   OW0      0.000000       15.9990           
   27358 A    6840 TIP4 H1   HW0      0.679100        1.0080           
   27359 A    6840 TIP4 H2   HW0      0.679100        1.0080           
   27360 A    6840 TIP4 BD1  LP0     -1.358200        0.0000           
   27361 A    6841 TIP4 O1   OW0      0.000000       15.9990           
   27362 A    6841 TIP4 H1   HW0      0.679100        1.0080           
   27363 A    6841 TIP4 H2   HW0      0.679100        1.0080           
   27364 A    6841 TIP4 BD1  LP0     -1.358200        0.0000           
   27365 A    6842 TIP4 O1   OW0      0.000000       15.9990           
   27366 A    6842 TIP4 H1   HW0      0.679100        1.0080           
   27367 A    6842 TIP4 H2   HW0      0.679100        1.0080           
   27368 A    6842 TIP4 BD1  LP0     -1.358200        0.0000           
   27369 A    6843 TIP4 O1   OW0      0.000000       15.9990           
   27370 A    6843 TIP4 H1   HW0      0.679100        1.0080           
   27371 A    6843 TIP4 H2   HW0      0.679100        1.0080           
   27372 A    6843 TIP4 BD1  LP0     -1.358200        0.0000           
   27373 A    6844 TIP4 O1   OW0      0.000000       15.9990           
   27374 A    6844 TIP4 H1   HW0      0.679100        1.0080           
   27375 A    6844 TIP4 H2   HW0      0.679100        1.0080           
   27376 A    6844 TIP4 BD1  LP0     -1.358200        0.0000           
   27377 A    6845 TIP4 O1   OW0      0.000000       15.9990           
   27378 A    6845 TIP4 H1   HW0      0.679100        1.0080           
   27379 A    6845 TIP4 H2   HW0      0.679100        1.0080           
   27380 A    6845 TIP4 BD1  LP0     -1.358200        0.0000           
   27381 A    6846 TIP4 O1   OW0      0.000000       15.9990           
   27382 A    6846 TIP4 H1   HW0      0.679100        1.0080           
   27383 A    6846 TIP4 H2   HW0      0.679100        1.0080           
   27384 A    6846 TIP4 BD1  LP0     -1.358200        0.0000           
   27385 A    6847 TIP4 O1   OW0      0.000000       15.9990           
   27386 A    6847 TIP4 H1   HW0      0.679100        1.0080           
   27387 A    6847 TIP4 H2   HW0      0.679100        1.0080           
   27388 A    6847 TIP4 BD1  LP0     -1.358200        0.0000           
   27389 A    6848 TIP4 O1   OW0      0.000000       15.9990           
   27390 A    6848 TIP4 H1   HW0      0.679100        1.0080           
   27391 A    6848 TIP4 H2   HW0      0.679100        1.0080           
   27392 A    6848 TIP4 BD1  LP0     -1.358200        0.0000           
   27393 A    6849 TIP4 O1   OW0      0.000000       15.9990           
   27394 A    6849 TIP4 H1   HW0      0.679100        1.0080           
   27395 A    6849 TIP4 H2   HW0      0.679100        1.0080           
   27396 A    6849 TIP4 BD1  LP0     -1.358200        0.0000           
   27397 A    6850 TIP4 O1   OW0      0.000000       15.9990           
   27398 A    6850 TIP4 H1   HW0      0.679100        1.0080           
   27399 A    6850 TIP4 H2   HW0      0.679100        1.0080           
   27400 A    6850 TIP4 BD1  LP0     -1.358200        0.0000           
   27401 A    6851 TIP4 O1   OW0      0.000000       15.9990           
   27402 A    6851 TIP4 H1   HW0      0.679100        1.0080           
   27403 A    6851 TIP4 H2   HW0      0.679100        1.0080           
   27404 A    6851 TIP4 BD1  LP0     -1.358200        0.0000           
   27405 A    6852 TIP4 O1   OW0      0.000000       15.9990           
   27406 A    6852 TIP4 H1   HW0      0.679100        1.0080           
   27407 A    6852 TIP4 H2   HW0      0.679100        1.0080           
   27408 A    6852 TIP4 BD1  LP0     -1.358200        0.0000           
   27409 A    6853 TIP4 O1   OW0      0.000000       15.9990           
   27410 A    6853 TIP4 H1   HW0      0.679100        1.0080           
   27411 A    6853 TIP4 H2   HW0      0.679100        1.0080           
   27412 A    6853 TIP4 BD1  LP0     -1.358200        0.0000           
   27413 A    6854 TIP4 O1   OW0      0.000000       15.9990           
   27414 A    6854 TIP4 H1   HW0      0.679100        1.0080           
   27415 A    6854 TIP4 H2   HW0      0.679100        1.0080           
   27416 A    6854 TIP4 BD1  LP0     -1.358200        0.0000           
   27417 A    6855 TIP4 O1   OW0      0.000000       15.9990           
   27418 A    6855 TIP4 H1   HW0      0.679100        1.0080           
   27419 A    6855 TIP4 H2   HW0      0.679100        1.0080           
   27420 A    6855 TIP4 BD1  LP0     -1.358200        0.0000           
   27421 A    6856 TIP4 O1   OW0      0.000000       15.9990           
   27422 A    6856 TIP4 H1   HW0      0.679100        1.0080           
   27423 A    6856 TIP4 H2   HW0      0.679100        1.0080           
   27424 A    6856 TIP4 BD1  LP0     -1.358200        0.0000           
   27425 A    6857 TIP4 O1   OW0      0.000000       15.9990           
   27426 A    6857 TIP4 H1   HW0      0.679100        1.0080           
   27427 A    6857 TIP4 H2   HW0      0.679100        1.0080           
   27428 A    6857 TIP4 BD1  LP0     -1.358200        0.0000           
   27429 A    6858 TIP4 O1   OW0      0.000000       15.9990           
   27430 A    6858 TIP4 H1   HW0      0.679100        1.0080           
   27431 A    6858 TIP4 H2   HW0      0.679100        1.0080           
   27432 A    6858 TIP4 BD1  LP0     -1.358200        0.0000           
   27433 A    6859 TIP4 O1   OW0      0.000000       15.9990           
   27434 A    6859 TIP4 H1   HW0      0.679100        1.0080           
   27435 A    6859 TIP4 H2   HW0      0.679100        1.0080           
   27436 A    6859 TIP4 BD1  LP0     -1.358200        0.0000           
   27437 A    6860 TIP4 O1   OW0      0.000000       15.9990           
   27438 A    6860 TIP4 H1   HW0      0.679100        1.0080           
   27439 A    6860 TIP4 H2   HW0      0.679100        1.0080           
   27440 A    6860 TIP4 BD1  LP0     -1.358200        0.0000           
   27441 A    6861 TIP4 O1   OW0      0.000000       15.9990           
   27442 A    6861 TIP4 H1   HW0      0.679100        1.0080           
   27443 A    6861 TIP4 H2   HW0      0.679100        1.0080           
   27444 A    6861 TIP4 BD1  LP0     -1.358200        0.0000           
   27445 A    6862 TIP4 O1   OW0      0.000000       15.9990           
   27446 A    6862 TIP4 H1   HW0      0.679100        1.0080           
   27447 A    6862 TIP4 H2   HW0      0.679100        1.0080           
   27448 A    6862 TIP4 BD1  LP0     -1.358200        0.0000           
   27449 A    6863 TIP4 O1   OW0      0.000000       15.9990           
   27450 A    6863 TIP4 H1   HW0      0.679100        1.0080           
   27451 A    6863 TIP4 H2   HW0      0.679100        1.0080           
   27452 A    6863 TIP4 BD1  LP0     -1.358200        0.0000           
   27453 A    6864 TIP4 O1   OW0      0.000000       15.9990           
   27454 A    6864 TIP4 H1   HW0      0.679100        1.0080           
   27455 A    6864 TIP4 H2   HW0      0.679100        1.0080           
   27456 A    6864 TIP4 BD1  LP0     -1.358200        0.0000           
   27457 A    6865 TIP4 O1   OW0      0.000000       15.9990           
   27458 A    6865 TIP4 H1   HW0      0.679100        1.0080           
   27459 A    6865 TIP4 H2   HW0      0.679100        1.0080           
   27460 A    6865 TIP4 BD1  LP0     -1.358200        0.0000           
   27461 A    6866 TIP4 O1   OW0      0.000000       15.9990           
   27462 A    6866 TIP4 H1   HW0      0.679100        1.0080           
   27463 A    6866 TIP4 H2   HW0      0.679100        1.0080           
   27464 A    6866 TIP4 BD1  LP0     -1.358200        0.0000           
   27465 A    6867 TIP4 O1   OW0      0.000000       15.9990           
   27466 A    6867 TIP4 H1   HW0      0.679100        1.0080           
   27467 A    6867 TIP4 H2   HW0      0.679100        1.0080           
   27468 A    6867 TIP4 BD1  LP0     -1.358200        0.0000           
   27469 A    6868 TIP4 O1   OW0      0.000000       15.9990           
   27470 A    6868 TIP4 H1   HW0      0.679100        1.0080           
   27471 A    6868 TIP4 H2   HW0      0.679100        1.0080           
   27472 A    6868 TIP4 BD1  LP0     -1.358200        0.0000           
   27473 A    6869 TIP4 O1   OW0      0.000000       15.9990           
   27474 A    6869 TIP4 H1   HW0      0.679100        1.0080           
   27475 A    6869 TIP4 H2   HW0      0.679100        1.0080           
   27476 A    6869 TIP4 BD1  LP0     -1.358200        0.0000           
   27477 A    6870 TIP4 O1   OW0      0.000000       15.9990           
   27478 A    6870 TIP4 H1   HW0      0.679100        1.0080           
   27479 A    6870 TIP4 H2   HW0      0.679100        1.0080           
   27480 A    6870 TIP4 BD1  LP0     -1.358200        0.0000           
   27481 A    6871 TIP4 O1   OW0      0.000000       15.9990           
   27482 A    6871 TIP4 H1   HW0      0.679100        1.0080           
   27483 A    6871 TIP4 H2   HW0      0.679100        1.0080           
   27484 A    6871 TIP4 BD1  LP0     -1.358200        0.0000           
   27485 A    6872 TIP4 O1   OW0      0.000000       15.9990           
   27486 A    6872 TIP4 H1   HW0      0.679100        1.0080           
   27487 A    6872 TIP4 H2   HW0      0.679100        1.0080           
   27488 A    6872 TIP4 BD1  LP0     -1.358200        0.0000           
   27489 A    6873 TIP4 O1   OW0      0.000000       15.9990           
   27490 A    6873 TIP4 H1   HW0      0.679100        1.0080           
   27491 A    6873 TIP4 H2   HW0      0.679100        1.0080           
   27492 A    6873 TIP4 BD1  LP0     -1.358200        0.0000           
   27493 A    6874 TIP4 O1   OW0      0.000000       15.9990           
   27494 A    6874 TIP4 H1   HW0      0.679100        1.0080           
   27495 A    6874 TIP4 H2   HW0      0.679100        1.0080           
   27496 A    6874 TIP4 BD1  LP0     -1.358200        0.0000           
   27497 A    6875 TIP4 O1   OW0      0.000000       15.9990           
   27498 A    6875 TIP4 H1   HW0      0.679100        1.0080           
   27499 A    6875 TIP4 H2   HW0      0.679100        1.0080           
   27500 A    6875 TIP4 BD1  LP0     -1.358200        0.0000           
   27501 A    6876 TIP4 O1   OW0      0.000000       15.9990           
   27502 A    6876 TIP4 H1   HW0      0.679100        1.0080           
   27503 A    6876 TIP4 H2   HW0      0.679100        1.0080           
   27504 A    6876 TIP4 BD1  LP0     -1.358200        0.0000           
   27505 A    6877 TIP4 O1   OW0      0.000000       15.9990           
   27506 A    6877 TIP4 H1   HW0      0.679100        1.0080           
   27507 A    6877 TIP4 H2   HW0      0.679100        1.0080           
   27508 A    6877 TIP4 BD1  LP0     -1.358200        0.0000           
   27509 A    6878 TIP4 O1   OW0      0.000000       15.9990           
   27510 A    6878 TIP4 H1   HW0      0.679100        1.0080           
   27511 A    6878 TIP4 H2   HW0      0.679100        1.0080           
   27512 A    6878 TIP4 BD1  LP0     -1.358200        0.0000           
   27513 A    6879 TIP4 O1   OW0      0.000000       15.9990           
   27514 A    6879 TIP4 H1   HW0      0.679100        1.0080           
   27515 A    6879 TIP4 H2   HW0      0.679100        1.0080           
   27516 A    6879 TIP4 BD1  LP0     -1.358200        0.0000           
   27517 A    6880 TIP4 O1   OW0      0.000000       15.9990           
   27518 A    6880 TIP4 H1   HW0      0.679100        1.0080           
   27519 A    6880 TIP4 H2   HW0      0.679100        1.0080           
   27520 A    6880 TIP4 BD1  LP0     -1.358200        0.0000           
   27521 A    6881 TIP4 O1   OW0      0.000000       15.9990           
   27522 A    6881 TIP4 H1   HW0      0.679100        1.0080           
   27523 A    6881 TIP4 H2   HW0      0.679100        1.0080           
   27524 A    6881 TIP4 BD1  LP0     -1.358200        0.0000           
   27525 A    6882 TIP4 O1   OW0      0.000000       15.9990           
   27526 A    6882 TIP4 H1   HW0      0.679100        1.0080           
   27527 A    6882 TIP4 H2   HW0      0.679100        1.0080           
   27528 A    6882 TIP4 BD1  LP0     -1.358200        0.0000           
   27529 A    6883 TIP4 O1   OW0      0.000000       15.9990           
   27530 A    6883 TIP4 H1   HW0      0.679100        1.0080           
   27531 A    6883 TIP4 H2   HW0      0.679100        1.0080           
   27532 A    6883 TIP4 BD1  LP0     -1.358200        0.0000           
   27533 A    6884 TIP4 O1   OW0      0.000000       15.9990           
   27534 A    6884 TIP4 H1   HW0      0.679100        1.0080           
   27535 A    6884 TIP4 H2   HW0      0.679100        1.0080           
   27536 A    6884 TIP4 BD1  LP0     -1.358200        0.0000           
   27537 A    6885 TIP4 O1   OW0      0.000000       15.9990           
   27538 A    6885 TIP4 H1   HW0      0.679100        1.0080           
   27539 A    6885 TIP4 H2   HW0      0.679100        1.0080           
   27540 A    6885 TIP4 BD1  LP0     -1.358200        0.0000           
   27541 A    6886 TIP4 O1   OW0      0.000000       15.9990           
   27542 A    6886 TIP4 H1   HW0      0.679100        1.0080           
   27543 A    6886 TIP4 H2   HW0      0.679100        1.0080           
   27544 A    6886 TIP4 BD1  LP0     -1.358200        0.0000           
   27545 A    6887 TIP4 O1   OW0      0.000000       15.9990           
   27546 A    6887 TIP4 H1   HW0      0.679100        1.0080           
   27547 A    6887 TIP4 H2   HW0      0.679100        1.0080           
   27548 A    6887 TIP4 BD1  LP0     -1.358200        0.0000           
   27549 A    6888 TIP4 O1   OW0      0.000000       15.9990           
   27550 A    6888 TIP4 H1   HW0      0.679100        1.0080           
   27551 A    6888 TIP4 H2   HW0      0.679100        1.0080           
   27552 A    6888 TIP4 BD1  LP0     -1.358200        0.0000           
   27553 A    6889 TIP4 O1   OW0      0.000000       15.9990           
   27554 A    6889 TIP4 H1   HW0      0.679100        1.0080           
   27555 A    6889 TIP4 H2   HW0      0.679100        1.0080           
   27556 A    6889 TIP4 BD1  LP0     -1.358200        0.0000           
   27557 A    6890 TIP4 O1   OW0      0.000000       15.9990           
   27558 A    6890 TIP4 H1   HW0      0.679100        1.0080           
   27559 A    6890 TIP4 H2   HW0      0.679100        1.0080           
   27560 A    6890 TIP4 BD1  LP0     -1.358200        0.0000           
   27561 A    6891 TIP4 O1   OW0      0.000000       15.9990           
   27562 A    6891 TIP4 H1   HW0      0.679100        1.0080           
   27563 A    6891 TIP4 H2   HW0      0.679100        1.0080           
   27564 A    6891 TIP4 BD1  LP0     -1.358200        0.0000           
   27565 A    6892 TIP4 O1   OW0      0.000000       15.9990           
   27566 A    6892 TIP4 H1   HW0      0.679100        1.0080           
   27567 A    6892 TIP4 H2   HW0      0.679100        1.0080           
   27568 A    6892 TIP4 BD1  LP0     -1.358200        0.0000           
   27569 A    6893 TIP4 O1   OW0      0.000000       15.9990           
   27570 A    6893 TIP4 H1   HW0      0.679100        1.0080           
   27571 A    6893 TIP4 H2   HW0      0.679100        1.0080           
   27572 A    6893 TIP4 BD1  LP0     -1.358200        0.0000           
   27573 A    6894 TIP4 O1   OW0      0.000000       15.9990           
   27574 A    6894 TIP4 H1   HW0      0.679100        1.0080           
   27575 A    6894 TIP4 H2   HW0      0.679100        1.0080           
   27576 A    6894 TIP4 BD1  LP0     -1.358200        0.0000           
   27577 A    6895 TIP4 O1   OW0      0.000000       15.9990           
   27578 A    6895 TIP4 H1   HW0      0.679100        1.0080           
   27579 A    6895 TIP4 H2   HW0      0.679100        1.0080           
   27580 A    6895 TIP4 BD1  LP0     -1.358200        0.0000           
   27581 A    6896 TIP4 O1   OW0      0.000000       15.9990           
   27582 A    6896 TIP4 H1   HW0      0.679100        1.0080           
   27583 A    6896 TIP4 H2   HW0      0.679100        1.0080           
   27584 A    6896 TIP4 BD1  LP0     -1.358200        0.0000           
   27585 A    6897 TIP4 O1   OW0      0.000000       15.9990           
   27586 A    6897 TIP4 H1   HW0      0.679100        1.0080           
   27587 A    6897 TIP4 H2   HW0      0.679100        1.0080           
   27588 A    6897 TIP4 BD1  LP0     -1.358200        0.0000           
   27589 A    6898 TIP4 O1   OW0      0.000000       15.9990           
   27590 A    6898 TIP4 H1   HW0      0.679100        1.0080           
   27591 A    6898 TIP4 H2   HW0      0.679100        1.0080           
   27592 A    6898 TIP4 BD1  LP0     -1.358200        0.0000           
   27593 A    6899 TIP4 O1   OW0      0.000000       15.9990           
   27594 A    6899 TIP4 H1   HW0      0.679100        1.0080           
   27595 A    6899 TIP4 H2   HW0      0.679100        1.0080           
   27596 A    6899 TIP4 BD1  LP0     -1.358200        0.0000           
   27597 A    6900 TIP4 O1   OW0      0.000000       15.9990           
   27598 A    6900 TIP4 H1   HW0      0.679100        1.0080           
   27599 A    6900 TIP4 H2   HW0      0.679100        1.0080           
   27600 A    6900 TIP4 BD1  LP0     -1.358200        0.0000           
   27601 A    6901 TIP4 O1   OW0      0.000000       15.9990           
   27602 A    6901 TIP4 H1   HW0      0.679100        1.0080           
   27603 A    6901 TIP4 H2   HW0      0.679100        1.0080           
   27604 A    6901 TIP4 BD1  LP0     -1.358200        0.0000           
   27605 A    6902 TIP4 O1   OW0      0.000000       15.9990           
   27606 A    6902 TIP4 H1   HW0      0.679100        1.0080           
   27607 A    6902 TIP4 H2   HW0      0.679100        1.0080           
   27608 A    6902 TIP4 BD1  LP0     -1.358200        0.0000           
   27609 A    6903 TIP4 O1   OW0      0.000000       15.9990           
   27610 A    6903 TIP4 H1   HW0      0.679100        1.0080           
   27611 A    6903 TIP4 H2   HW0      0.679100        1.0080           
   27612 A    6903 TIP4 BD1  LP0     -1.358200        0.0000           
   27613 A    6904 TIP4 O1   OW0      0.000000       15.9990           
   27614 A    6904 TIP4 H1   HW0      0.679100        1.0080           
   27615 A    6904 TIP4 H2   HW0      0.679100        1.0080           
   27616 A    6904 TIP4 BD1  LP0     -1.358200        0.0000           
   27617 A    6905 TIP4 O1   OW0      0.000000       15.9990           
   27618 A    6905 TIP4 H1   HW0      0.679100        1.0080           
   27619 A    6905 TIP4 H2   HW0      0.679100        1.0080           
   27620 A    6905 TIP4 BD1  LP0     -1.358200        0.0000           
   27621 A    6906 TIP4 O1   OW0      0.000000       15.9990           
   27622 A    6906 TIP4 H1   HW0      0.679100        1.0080           
   27623 A    6906 TIP4 H2   HW0      0.679100        1.0080           
   27624 A    6906 TIP4 BD1  LP0     -1.358200        0.0000           
   27625 A    6907 TIP4 O1   OW0      0.000000       15.9990           
   27626 A    6907 TIP4 H1   HW0      0.679100        1.0080           
   27627 A    6907 TIP4 H2   HW0      0.679100        1.0080           
   27628 A    6907 TIP4 BD1  LP0     -1.358200        0.0000           
   27629 A    6908 TIP4 O1   OW0      0.000000       15.9990           
   27630 A    6908 TIP4 H1   HW0      0.679100        1.0080           
   27631 A    6908 TIP4 H2   HW0      0.679100        1.0080           
   27632 A    6908 TIP4 BD1  LP0     -1.358200        0.0000           
   27633 A    6909 TIP4 O1   OW0      0.000000       15.9990           
   27634 A    6909 TIP4 H1   HW0      0.679100        1.0080           
   27635 A    6909 TIP4 H2   HW0      0.679100        1.0080           
   27636 A    6909 TIP4 BD1  LP0     -1.358200        0.0000           
   27637 A    6910 TIP4 O1   OW0      0.000000       15.9990           
   27638 A    6910 TIP4 H1   HW0      0.679100        1.0080           
   27639 A    6910 TIP4 H2   HW0      0.679100        1.0080           
   27640 A    6910 TIP4 BD1  LP0     -1.358200        0.0000           
   27641 A    6911 TIP4 O1   OW0      0.000000       15.9990           
   27642 A    6911 TIP4 H1   HW0      0.679100        1.0080           
   27643 A    6911 TIP4 H2   HW0      0.679100        1.0080           
   27644 A    6911 TIP4 BD1  LP0     -1.358200        0.0000           
   27645 A    6912 TIP4 O1   OW0      0.000000       15.9990           
   27646 A    6912 TIP4 H1   HW0      0.679100        1.0080           
   27647 A    6912 TIP4 H2   HW0      0.679100        1.0080           
   27648 A    6912 TIP4 BD1  LP0     -1.358200        0.0000           
   27649 A    6913 TIP4 O1   OW0      0.000000       15.9990           
   27650 A    6913 TIP4 H1   HW0      0.679100        1.0080           
   27651 A    6913 TIP4 H2   HW0      0.679100        1.0080           
   27652 A    6913 TIP4 BD1  LP0     -1.358200        0.0000           
   27653 A    6914 TIP4 O1   OW0      0.000000       15.9990           
   27654 A    6914 TIP4 H1   HW0      0.679100        1.0080           
   27655 A    6914 TIP4 H2   HW0      0.679100        1.0080           
   27656 A    6914 TIP4 BD1  LP0     -1.358200        0.0000           
   27657 A    6915 TIP4 O1   OW0      0.000000       15.9990           
   27658 A    6915 TIP4 H1   HW0      0.679100        1.0080           
   27659 A    6915 TIP4 H2   HW0      0.679100        1.0080           
   27660 A    6915 TIP4 BD1  LP0     -1.358200        0.0000           
   27661 A    6916 TIP4 O1   OW0      0.000000       15.9990           
   27662 A    6916 TIP4 H1   HW0      0.679100        1.0080           
   27663 A    6916 TIP4 H2   HW0      0.679100        1.0080           
   27664 A    6916 TIP4 BD1  LP0     -1.358200        0.0000           
   27665 A    6917 TIP4 O1   OW0      0.000000       15.9990           
   27666 A    6917 TIP4 H1   HW0      0.679100        1.0080           
   27667 A    6917 TIP4 H2   HW0      0.679100        1.0080           
   27668 A    6917 TIP4 BD1  LP0     -1.358200        0.0000           
   27669 A    6918 TIP4 O1   OW0      0.000000       15.9990           
   27670 A    6918 TIP4 H1   HW0      0.679100        1.0080           
   27671 A    6918 TIP4 H2   HW0      0.679100        1.0080           
   27672 A    6918 TIP4 BD1  LP0     -1.358200        0.0000           
   27673 A    6919 TIP4 O1   OW0      0.000000       15.9990           
   27674 A    6919 TIP4 H1   HW0      0.679100        1.0080           
   27675 A    6919 TIP4 H2   HW0      0.679100        1.0080           
   27676 A    6919 TIP4 BD1  LP0     -1.358200        0.0000           
   27677 A    6920 TIP4 O1   OW0      0.000000       15.9990           
   27678 A    6920 TIP4 H1   HW0      0.679100        1.0080           
   27679 A    6920 TIP4 H2   HW0      0.679100        1.0080           
   27680 A    6920 TIP4 BD1  LP0     -1.358200        0.0000           
   27681 A    6921 TIP4 O1   OW0      0.000000       15.9990           
   27682 A    6921 TIP4 H1   HW0      0.679100        1.0080           
   27683 A    6921 TIP4 H2   HW0      0.679100        1.0080           
   27684 A    6921 TIP4 BD1  LP0     -1.358200        0.0000           
   27685 A    6922 TIP4 O1   OW0      0.000000       15.9990           
   27686 A    6922 TIP4 H1   HW0      0.679100        1.0080           
   27687 A    6922 TIP4 H2   HW0      0.679100        1.0080           
   27688 A    6922 TIP4 BD1  LP0     -1.358200        0.0000           
   27689 A    6923 TIP4 O1   OW0      0.000000       15.9990           
   27690 A    6923 TIP4 H1   HW0      0.679100        1.0080           
   27691 A    6923 TIP4 H2   HW0      0.679100        1.0080           
   27692 A    6923 TIP4 BD1  LP0     -1.358200        0.0000           
   27693 A    6924 TIP4 O1   OW0      0.000000       15.9990           
   27694 A    6924 TIP4 H1   HW0      0.679100        1.0080           
   27695 A    6924 TIP4 H2   HW0      0.679100        1.0080           
   27696 A    6924 TIP4 BD1  LP0     -1.358200        0.0000           
   27697 A    6925 TIP4 O1   OW0      0.000000       15.9990           
   27698 A    6925 TIP4 H1   HW0      0.679100        1.0080           
   27699 A    6925 TIP4 H2   HW0      0.679100        1.0080           
   27700 A    6925 TIP4 BD1  LP0     -1.358200        0.0000           
   27701 A    6926 TIP4 O1   OW0      0.000000       15.9990           
   27702 A    6926 TIP4 H1   HW0      0.679100        1.0080           
   27703 A    6926 TIP4 H2   HW0      0.679100        1.0080           
   27704 A    6926 TIP4 BD1  LP0     -1.358200        0.0000           
   27705 A    6927 TIP4 O1   OW0      0.000000       15.9990           
   27706 A    6927 TIP4 H1   HW0      0.679100        1.0080           
   27707 A    6927 TIP4 H2   HW0      0.679100        1.0080           
   27708 A    6927 TIP4 BD1  LP0     -1.358200        0.0000           
   27709 A    6928 TIP4 O1   OW0      0.000000       15.9990           
   27710 A    6928 TIP4 H1   HW0      0.679100        1.0080           
   27711 A    6928 TIP4 H2   HW0      0.679100        1.0080           
   27712 A    6928 TIP4 BD1  LP0     -1.358200        0.0000           
   27713 A    6929 TIP4 O1   OW0      0.000000       15.9990           
   27714 A    6929 TIP4 H1   HW0      0.679100        1.0080           
   27715 A    6929 TIP4 H2   HW0      0.679100        1.0080           
   27716 A    6929 TIP4 BD1  LP0     -1.358200        0.0000           
   27717 A    6930 TIP4 O1   OW0      0.000000       15.9990           
   27718 A    6930 TIP4 H1   HW0      0.679100        1.0080           
   27719 A    6930 TIP4 H2   HW0      0.679100        1.0080           
   27720 A    6930 TIP4 BD1  LP0     -1.358200        0.0000           
   27721 A    6931 TIP4 O1   OW0      0.000000       15.9990           
   27722 A    6931 TIP4 H1   HW0      0.679100        1.0080           
   27723 A    6931 TIP4 H2   HW0      0.679100        1.0080           
   27724 A    6931 TIP4 BD1  LP0     -1.358200        0.0000           
   27725 A    6932 TIP4 O1   OW0      0.000000       15.9990           
   27726 A    6932 TIP4 H1   HW0      0.679100        1.0080           
   27727 A    6932 TIP4 H2   HW0      0.679100        1.0080           
   27728 A    6932 TIP4 BD1  LP0     -1.358200        0.0000           
   27729 A    6933 TIP4 O1   OW0      0.000000       15.9990           
   27730 A    6933 TIP4 H1   HW0      0.679100        1.0080           
   27731 A    6933 TIP4 H2   HW0      0.679100        1.0080           
   27732 A    6933 TIP4 BD1  LP0     -1.358200        0.0000           
   27733 A    6934 TIP4 O1   OW0      0.000000       15.9990           
   27734 A    6934 TIP4 H1   HW0      0.679100        1.0080           
   27735 A    6934 TIP4 H2   HW0      0.679100        1.0080           
   27736 A    6934 TIP4 BD1  LP0     -1.358200        0.0000           
   27737 A    6935 TIP4 O1   OW0      0.000000       15.9990           
   27738 A    6935 TIP4 H1   HW0      0.679100        1.0080           
   27739 A    6935 TIP4 H2   HW0      0.679100        1.0080           
   27740 A    6935 TIP4 BD1  LP0     -1.358200        0.0000           
   27741 A    6936 TIP4 O1   OW0      0.000000       15.9990           
   27742 A    6936 TIP4 H1   HW0      0.679100        1.0080           
   27743 A    6936 TIP4 H2   HW0      0.679100        1.0080           
   27744 A    6936 TIP4 BD1  LP0     -1.358200        0.0000           
   27745 A    6937 TIP4 O1   OW0      0.000000       15.9990           
   27746 A    6937 TIP4 H1   HW0      0.679100        1.0080           
   27747 A    6937 TIP4 H2   HW0      0.679100        1.0080           
   27748 A    6937 TIP4 BD1  LP0     -1.358200        0.0000           
   27749 A    6938 TIP4 O1   OW0      0.000000       15.9990           
   27750 A    6938 TIP4 H1   HW0      0.679100        1.0080           
   27751 A    6938 TIP4 H2   HW0      0.679100        1.0080           
   27752 A    6938 TIP4 BD1  LP0     -1.358200        0.0000           
   27753 A    6939 TIP4 O1   OW0      0.000000       15.9990           
   27754 A    6939 TIP4 H1   HW0      0.679100        1.0080           
   27755 A    6939 TIP4 H2   HW0      0.679100        1.0080           
   27756 A    6939 TIP4 BD1  LP0     -1.358200        0.0000           
   27757 A    6940 TIP4 O1   OW0      0.000000       15.9990           
   27758 A    6940 TIP4 H1   HW0      0.679100        1.0080           
   27759 A    6940 TIP4 H2   HW0      0.679100        1.0080           
   27760 A    6940 TIP4 BD1  LP0     -1.358200        0.0000           
   27761 A    6941 TIP4 O1   OW0      0.000000       15.9990           
   27762 A    6941 TIP4 H1   HW0      0.679100        1.0080           
   27763 A    6941 TIP4 H2   HW0      0.679100        1.0080           
   27764 A    6941 TIP4 BD1  LP0     -1.358200        0.0000           
   27765 A    6942 TIP4 O1   OW0      0.000000       15.9990           
   27766 A    6942 TIP4 H1   HW0      0.679100        1.0080           
   27767 A    6942 TIP4 H2   HW0      0.679100        1.0080           
   27768 A    6942 TIP4 BD1  LP0     -1.358200        0.0000           
   27769 A    6943 TIP4 O1   OW0      0.000000       15.9990           
   27770 A    6943 TIP4 H1   HW0      0.679100        1.0080           
   27771 A    6943 TIP4 H2   HW0      0.679100        1.0080           
   27772 A    6943 TIP4 BD1  LP0     -1.358200        0.0000           
   27773 A    6944 TIP4 O1   OW0      0.000000       15.9990           
   27774 A    6944 TIP4 H1   HW0      0.679100        1.0080           
   27775 A    6944 TIP4 H2   HW0      0.679100        1.0080           
   27776 A    6944 TIP4 BD1  LP0     -1.358200        0.0000           
   27777 A    6945 TIP4 O1   OW0      0.000000       15.9990           
   27778 A    6945 TIP4 H1   HW0      0.679100        1.0080           
   27779 A    6945 TIP4 H2   HW0      0.679100        1.0080           
   27780 A    6945 TIP4 BD1  LP0     -1.358200        0.0000           
   27781 A    6946 TIP4 O1   OW0      0.000000       15.9990           
   27782 A    6946 TIP4 H1   HW0      0.679100        1.0080           
   27783 A    6946 TIP4 H2   HW0      0.679100        1.0080           
   27784 A    6946 TIP4 BD1  LP0     -1.358200        0.0000           
   27785 A    6947 TIP4 O1   OW0      0.000000       15.9990           
   27786 A    6947 TIP4 H1   HW0      0.679100        1.0080           
   27787 A    6947 TIP4 H2   HW0      0.679100        1.0080           
   27788 A    6947 TIP4 BD1  LP0     -1.358200        0.0000           
   27789 A    6948 TIP4 O1   OW0      0.000000       15.9990           
   27790 A    6948 TIP4 H1   HW0      0.679100        1.0080           
   27791 A    6948 TIP4 H2   HW0      0.679100        1.0080           
   27792 A    6948 TIP4 BD1  LP0     -1.358200        0.0000           
   27793 A    6949 TIP4 O1   OW0      0.000000       15.9990           
   27794 A    6949 TIP4 H1   HW0      0.679100        1.0080           
   27795 A    6949 TIP4 H2   HW0      0.679100        1.0080           
   27796 A    6949 TIP4 BD1  LP0     -1.358200        0.0000           
   27797 A    6950 TIP4 O1   OW0      0.000000       15.9990           
   27798 A    6950 TIP4 H1   HW0      0.679100        1.0080           
   27799 A    6950 TIP4 H2   HW0      0.679100        1.0080           
   27800 A    6950 TIP4 BD1  LP0     -1.358200        0.0000           
   27801 A    6951 TIP4 O1   OW0      0.000000       15.9990           
   27802 A    6951 TIP4 H1   HW0      0.679100        1.0080           
   27803 A    6951 TIP4 H2   HW0      0.679100        1.0080           
   27804 A    6951 TIP4 BD1  LP0     -1.358200        0.0000           
   27805 A    6952 TIP4 O1   OW0      0.000000       15.9990           
   27806 A    6952 TIP4 H1   HW0      0.679100        1.0080           
   27807 A    6952 TIP4 H2   HW0      0.679100        1.0080           
   27808 A    6952 TIP4 BD1  LP0     -1.358200        0.0000           
   27809 A    6953 TIP4 O1   OW0      0.000000       15.9990           
   27810 A    6953 TIP4 H1   HW0      0.679100        1.0080           
   27811 A    6953 TIP4 H2   HW0      0.679100        1.0080           
   27812 A    6953 TIP4 BD1  LP0     -1.358200        0.0000           
   27813 A    6954 TIP4 O1   OW0      0.000000       15.9990           
   27814 A    6954 TIP4 H1   HW0      0.679100        1.0080           
   27815 A    6954 TIP4 H2   HW0      0.679100        1.0080           
   27816 A    6954 TIP4 BD1  LP0     -1.358200        0.0000           
   27817 A    6955 TIP4 O1   OW0      0.000000       15.9990           
   27818 A    6955 TIP4 H1   HW0      0.679100        1.0080           
   27819 A    6955 TIP4 H2   HW0      0.679100        1.0080           
   27820 A    6955 TIP4 BD1  LP0     -1.358200        0.0000           
   27821 A    6956 TIP4 O1   OW0      0.000000       15.9990           
   27822 A    6956 TIP4 H1   HW0      0.679100        1.0080           
   27823 A    6956 TIP4 H2   HW0      0.679100        1.0080           
   27824 A    6956 TIP4 BD1  LP0     -1.358200        0.0000           
   27825 A    6957 TIP4 O1   OW0      0.000000       15.9990           
   27826 A    6957 TIP4 H1   HW0      0.679100        1.0080           
   27827 A    6957 TIP4 H2   HW0      0.679100        1.0080           
   27828 A    6957 TIP4 BD1  LP0     -1.358200        0.0000           
   27829 A    6958 TIP4 O1   OW0      0.000000       15.9990           
   27830 A    6958 TIP4 H1   HW0      0.679100        1.0080           
   27831 A    6958 TIP4 H2   HW0      0.679100        1.0080           
   27832 A    6958 TIP4 BD1  LP0     -1.358200        0.0000           
   27833 A    6959 TIP4 O1   OW0      0.000000       15.9990           
   27834 A    6959 TIP4 H1   HW0      0.679100        1.0080           
   27835 A    6959 TIP4 H2   HW0      0.679100        1.0080           
   27836 A    6959 TIP4 BD1  LP0     -1.358200        0.0000           
   27837 A    6960 TIP4 O1   OW0      0.000000       15.9990           
   27838 A    6960 TIP4 H1   HW0      0.679100        1.0080           
   27839 A    6960 TIP4 H2   HW0      0.679100        1.0080           
   27840 A    6960 TIP4 BD1  LP0     -1.358200        0.0000           
   27841 A    6961 TIP4 O1   OW0      0.000000       15.9990           
   27842 A    6961 TIP4 H1   HW0      0.679100        1.0080           
   27843 A    6961 TIP4 H2   HW0      0.679100        1.0080           
   27844 A    6961 TIP4 BD1  LP0     -1.358200        0.0000           
   27845 A    6962 TIP4 O1   OW0      0.000000       15.9990           
   27846 A    6962 TIP4 H1   HW0      0.679100        1.0080           
   27847 A    6962 TIP4 H2   HW0      0.679100        1.0080           
   27848 A    6962 TIP4 BD1  LP0     -1.358200        0.0000           
   27849 A    6963 TIP4 O1   OW0      0.000000       15.9990           
   27850 A    6963 TIP4 H1   HW0      0.679100        1.0080           
   27851 A    6963 TIP4 H2   HW0      0.679100        1.0080           
   27852 A    6963 TIP4 BD1  LP0     -1.358200        0.0000           
   27853 A    6964 TIP4 O1   OW0      0.000000       15.9990           
   27854 A    6964 TIP4 H1   HW0      0.679100        1.0080           
   27855 A    6964 TIP4 H2   HW0      0.679100        1.0080           
   27856 A    6964 TIP4 BD1  LP0     -1.358200        0.0000           
   27857 A    6965 TIP4 O1   OW0      0.000000       15.9990           
   27858 A    6965 TIP4 H1   HW0      0.679100        1.0080           
   27859 A    6965 TIP4 H2   HW0      0.679100        1.0080           
   27860 A    6965 TIP4 BD1  LP0     -1.358200        0.0000           
   27861 A    6966 TIP4 O1   OW0      0.000000       15.9990           
   27862 A    6966 TIP4 H1   HW0      0.679100        1.0080           
   27863 A    6966 TIP4 H2   HW0      0.679100        1.0080           
   27864 A    6966 TIP4 BD1  LP0     -1.358200        0.0000           
   27865 A    6967 TIP4 O1   OW0      0.000000       15.9990           
   27866 A    6967 TIP4 H1   HW0      0.679100        1.0080           
   27867 A    6967 TIP4 H2   HW0      0.679100        1.0080           
   27868 A    6967 TIP4 BD1  LP0     -1.358200        0.0000           
   27869 A    6968 TIP4 O1   OW0      0.000000       15.9990           
   27870 A    6968 TIP4 H1   HW0      0.679100        1.0080           
   27871 A    6968 TIP4 H2   HW0      0.679100        1.0080           
   27872 A    6968 TIP4 BD1  LP0     -1.358200        0.0000           
   27873 A    6969 TIP4 O1   OW0      0.000000       15.9990           
   27874 A    6969 TIP4 H1   HW0      0.679100        1.0080           
   27875 A    6969 TIP4 H2   HW0      0.679100        1.0080           
   27876 A    6969 TIP4 BD1  LP0     -1.358200        0.0000           
   27877 A    6970 TIP4 O1   OW0      0.000000       15.9990           
   27878 A    6970 TIP4 H1   HW0      0.679100        1.0080           
   27879 A    6970 TIP4 H2   HW0      0.679100        1.0080           
   27880 A    6970 TIP4 BD1  LP0     -1.358200        0.0000           
   27881 A    6971 TIP4 O1   OW0      0.000000       15.9990           
   27882 A    6971 TIP4 H1   HW0      0.679100        1.0080           
   27883 A    6971 TIP4 H2   HW0      0.679100        1.0080           
   27884 A    6971 TIP4 BD1  LP0     -1.358200        0.0000           
   27885 A    6972 TIP4 O1   OW0      0.000000       15.9990           
   27886 A    6972 TIP4 H1   HW0      0.679100        1.0080           
   27887 A    6972 TIP4 H2   HW0      0.679100        1.0080           
   27888 A    6972 TIP4 BD1  LP0     -1.358200        0.0000           
   27889 A    6973 TIP4 O1   OW0      0.000000       15.9990           
   27890 A    6973 TIP4 H1   HW0      0.679100        1.0080           
   27891 A    6973 TIP4 H2   HW0      0.679100        1.0080           
   27892 A    6973 TIP4 BD1  LP0     -1.358200        0.0000           
   27893 A    6974 TIP4 O1   OW0      0.000000       15.9990           
   27894 A    6974 TIP4 H1   HW0      0.679100        1.0080           
   27895 A    6974 TIP4 H2   HW0      0.679100        1.0080           
   27896 A    6974 TIP4 BD1  LP0     -1.358200        0.0000           
   27897 A    6975 TIP4 O1   OW0      0.000000       15.9990           
   27898 A    6975 TIP4 H1   HW0      0.679100        1.0080           
   27899 A    6975 TIP4 H2   HW0      0.679100        1.0080           
   27900 A    6975 TIP4 BD1  LP0     -1.358200        0.0000           
   27901 A    6976 TIP4 O1   OW0      0.000000       15.9990           
   27902 A    6976 TIP4 H1   HW0      0.679100        1.0080           
   27903 A    6976 TIP4 H2   HW0      0.679100        1.0080           
   27904 A    6976 TIP4 BD1  LP0     -1.358200        0.0000           
   27905 A    6977 TIP4 O1   OW0      0.000000       15.9990           
   27906 A    6977 TIP4 H1   HW0      0.679100        1.0080           
   27907 A    6977 TIP4 H2   HW0      0.679100        1.0080           
   27908 A    6977 TIP4 BD1  LP0     -1.358200        0.0000           
   27909 A    6978 TIP4 O1   OW0      0.000000       15.9990           
   27910 A    6978 TIP4 H1   HW0      0.679100        1.0080           
   27911 A    6978 TIP4 H2   HW0      0.679100        1.0080           
   27912 A    6978 TIP4 BD1  LP0     -1.358200        0.0000           
   27913 A    6979 TIP4 O1   OW0      0.000000       15.9990           
   27914 A    6979 TIP4 H1   HW0      0.679100        1.0080           
   27915 A    6979 TIP4 H2   HW0      0.679100        1.0080           
   27916 A    6979 TIP4 BD1  LP0     -1.358200        0.0000           
   27917 A    6980 TIP4 O1   OW0      0.000000       15.9990           
   27918 A    6980 TIP4 H1   HW0      0.679100        1.0080           
   27919 A    6980 TIP4 H2   HW0      0.679100        1.0080           
   27920 A    6980 TIP4 BD1  LP0     -1.358200        0.0000           
   27921 A    6981 TIP4 O1   OW0      0.000000       15.9990           
   27922 A    6981 TIP4 H1   HW0      0.679100        1.0080           
   27923 A    6981 TIP4 H2   HW0      0.679100        1.0080           
   27924 A    6981 TIP4 BD1  LP0     -1.358200        0.0000           
   27925 A    6982 TIP4 O1   OW0      0.000000       15.9990           
   27926 A    6982 TIP4 H1   HW0      0.679100        1.0080           
   27927 A    6982 TIP4 H2   HW0      0.679100        1.0080           
   27928 A    6982 TIP4 BD1  LP0     -1.358200        0.0000           
   27929 A    6983 TIP4 O1   OW0      0.000000       15.9990           
   27930 A    6983 TIP4 H1   HW0      0.679100        1.0080           
   27931 A    6983 TIP4 H2   HW0      0.679100        1.0080           
   27932 A    6983 TIP4 BD1  LP0     -1.358200        0.0000           
   27933 A    6984 TIP4 O1   OW0      0.000000       15.9990           
   27934 A    6984 TIP4 H1   HW0      0.679100        1.0080           
   27935 A    6984 TIP4 H2   HW0      0.679100        1.0080           
   27936 A    6984 TIP4 BD1  LP0     -1.358200        0.0000           
   27937 A    6985 TIP4 O1   OW0      0.000000       15.9990           
   27938 A    6985 TIP4 H1   HW0      0.679100        1.0080           
   27939 A    6985 TIP4 H2   HW0      0.679100        1.0080           
   27940 A    6985 TIP4 BD1  LP0     -1.358200        0.0000           
   27941 A    6986 TIP4 O1   OW0      0.000000       15.9990           
   27942 A    6986 TIP4 H1   HW0      0.679100        1.0080           
   27943 A    6986 TIP4 H2   HW0      0.679100        1.0080           
   27944 A    6986 TIP4 BD1  LP0     -1.358200        0.0000           
   27945 A    6987 TIP4 O1   OW0      0.000000       15.9990           
   27946 A    6987 TIP4 H1   HW0      0.679100        1.0080           
   27947 A    6987 TIP4 H2   HW0      0.679100        1.0080           
   27948 A    6987 TIP4 BD1  LP0     -1.358200        0.0000           
   27949 A    6988 TIP4 O1   OW0      0.000000       15.9990           
   27950 A    6988 TIP4 H1   HW0      0.679100        1.0080           
   27951 A    6988 TIP4 H2   HW0      0.679100        1.0080           
   27952 A    6988 TIP4 BD1  LP0     -1.358200        0.0000           
   27953 A    6989 TIP4 O1   OW0      0.000000       15.9990           
   27954 A    6989 TIP4 H1   HW0      0.679100        1.0080           
   27955 A    6989 TIP4 H2   HW0      0.679100        1.0080           
   27956 A    6989 TIP4 BD1  LP0     -1.358200        0.0000           
   27957 A    6990 TIP4 O1   OW0      0.000000       15.9990           
   27958 A    6990 TIP4 H1   HW0      0.679100        1.0080           
   27959 A    6990 TIP4 H2   HW0      0.679100        1.0080           
   27960 A    6990 TIP4 BD1  LP0     -1.358200        0.0000           
   27961 A    6991 TIP4 O1   OW0      0.000000       15.9990           
   27962 A    6991 TIP4 H1   HW0      0.679100        1.0080           
   27963 A    6991 TIP4 H2   HW0      0.679100        1.0080           
   27964 A    6991 TIP4 BD1  LP0     -1.358200        0.0000           
   27965 A    6992 TIP4 O1   OW0      0.000000       15.9990           
   27966 A    6992 TIP4 H1   HW0      0.679100        1.0080           
   27967 A    6992 TIP4 H2   HW0      0.679100        1.0080           
   27968 A    6992 TIP4 BD1  LP0     -1.358200        0.0000           
   27969 A    6993 TIP4 O1   OW0      0.000000       15.9990           
   27970 A    6993 TIP4 H1   HW0      0.679100        1.0080           
   27971 A    6993 TIP4 H2   HW0      0.679100        1.0080           
   27972 A    6993 TIP4 BD1  LP0     -1.358200        0.0000           
   27973 A    6994 TIP4 O1   OW0      0.000000       15.9990           
   27974 A    6994 TIP4 H1   HW0      0.679100        1.0080           
   27975 A    6994 TIP4 H2   HW0      0.679100        1.0080           
   27976 A    6994 TIP4 BD1  LP0     -1.358200        0.0000           
   27977 A    6995 TIP4 O1   OW0      0.000000       15.9990           
   27978 A    6995 TIP4 H1   HW0      0.679100        1.0080           
   27979 A    6995 TIP4 H2   HW0      0.679100        1.0080           
   27980 A    6995 TIP4 BD1  LP0     -1.358200        0.0000           
   27981 A    6996 TIP4 O1   OW0      0.000000       15.9990           
   27982 A    6996 TIP4 H1   HW0      0.679100        1.0080           
   27983 A    6996 TIP4 H2   HW0      0.679100        1.0080           
   27984 A    6996 TIP4 BD1  LP0     -1.358200        0.0000           
   27985 A    6997 TIP4 O1   OW0      0.000000       15.9990           
   27986 A    6997 TIP4 H1   HW0      0.679100        1.0080           
   27987 A    6997 TIP4 H2   HW0      0.679100        1.0080           
   27988 A    6997 TIP4 BD1  LP0     -1.358200        0.0000           
   27989 A    6998 TIP4 O1   OW0      0.000000       15.9990           
   27990 A    6998 TIP4 H1   HW0      0.679100        1.0080           
   27991 A    6998 TIP4 H2   HW0      0.679100        1.0080           
   27992 A    6998 TIP4 BD1  LP0     -1.358200        0.0000           
   27993 A    6999 TIP4 O1   OW0      0.000000       15.9990           
   27994 A    6999 TIP4 H1   HW0      0.679100        1.0080           
   27995 A    6999 TIP4 H2   HW0      0.679100        1.0080           
   27996 A    6999 TIP4 BD1  LP0     -1.358200        0.0000           
   27997 A    7000 TIP4 O1   OW0      0.000000       15.9990           
   27998 A    7000 TIP4 H1   HW0      0.679100        1.0080           
   27999 A    7000 TIP4 H2   HW0      0.679100        1.0080           
   28000 A    7000 TIP4 BD1  LP0     -1.358200        0.0000           
   28001 A    7001 TIP4 O1   OW0      0.000000       15.9990           
   28002 A    7001 TIP4 H1   HW0      0.679100        1.0080           
   28003 A    7001 TIP4 H2   HW0      0.679100        1.0080           
   28004 A    7001 TIP4 BD1  LP0     -1.358200        0.0000           
   28005 A    7002 TIP4 O1   OW0      0.000000       15.9990           
   28006 A    7002 TIP4 H1   HW0      0.679100        1.0080           
   28007 A    7002 TIP4 H2   HW0      0.679100        1.0080           
   28008 A    7002 TIP4 BD1  LP0     -1.358200        0.0000           
   28009 A    7003 TIP4 O1   OW0      0.000000       15.9990           
   28010 A    7003 TIP4 H1   HW0      0.679100        1.0080           
   28011 A    7003 TIP4 H2   HW0      0.679100        1.0080           
   28012 A    7003 TIP4 BD1  LP0     -1.358200        0.0000           
   28013 A    7004 TIP4 O1   OW0      0.000000       15.9990           
   28014 A    7004 TIP4 H1   HW0      0.679100        1.0080           
   28015 A    7004 TIP4 H2   HW0      0.679100        1.0080           
   28016 A    7004 TIP4 BD1  LP0     -1.358200        0.0000           
   28017 A    7005 TIP4 O1   OW0      0.000000       15.9990           
   28018 A    7005 TIP4 H1   HW0      0.679100        1.0080           
   28019 A    7005 TIP4 H2   HW0      0.679100        1.0080           
   28020 A    7005 TIP4 BD1  LP0     -1.358200        0.0000           
   28021 A    7006 TIP4 O1   OW0      0.000000       15.9990           
   28022 A    7006 TIP4 H1   HW0      0.679100        1.0080           
   28023 A    7006 TIP4 H2   HW0      0.679100        1.0080           
   28024 A    7006 TIP4 BD1  LP0     -1.358200        0.0000           
   28025 A    7007 TIP4 O1   OW0      0.000000       15.9990           
   28026 A    7007 TIP4 H1   HW0      0.679100        1.0080           
   28027 A    7007 TIP4 H2   HW0      0.679100        1.0080           
   28028 A    7007 TIP4 BD1  LP0     -1.358200        0.0000           
   28029 A    7008 TIP4 O1   OW0      0.000000       15.9990           
   28030 A    7008 TIP4 H1   HW0      0.679100        1.0080           
   28031 A    7008 TIP4 H2   HW0      0.679100        1.0080           
   28032 A    7008 TIP4 BD1  LP0     -1.358200        0.0000           
   28033 A    7009 TIP4 O1   OW0      0.000000       15.9990           
   28034 A    7009 TIP4 H1   HW0      0.679100        1.0080           
   28035 A    7009 TIP4 H2   HW0      0.679100        1.0080           
   28036 A    7009 TIP4 BD1  LP0     -1.358200        0.0000           
   28037 A    7010 TIP4 O1   OW0      0.000000       15.9990           
   28038 A    7010 TIP4 H1   HW0      0.679100        1.0080           
   28039 A    7010 TIP4 H2   HW0      0.679100        1.0080           
   28040 A    7010 TIP4 BD1  LP0     -1.358200        0.0000           
   28041 A    7011 TIP4 O1   OW0      0.000000       15.9990           
   28042 A    7011 TIP4 H1   HW0      0.679100        1.0080           
   28043 A    7011 TIP4 H2   HW0      0.679100        1.0080           
   28044 A    7011 TIP4 BD1  LP0     -1.358200        0.0000           
   28045 A    7012 TIP4 O1   OW0      0.000000       15.9990           
   28046 A    7012 TIP4 H1   HW0      0.679100        1.0080           
   28047 A    7012 TIP4 H2   HW0      0.679100        1.0080           
   28048 A    7012 TIP4 BD1  LP0     -1.358200        0.0000           
   28049 A    7013 TIP4 O1   OW0      0.000000       15.9990           
   28050 A    7013 TIP4 H1   HW0      0.679100        1.0080           
   28051 A    7013 TIP4 H2   HW0      0.679100        1.0080           
   28052 A    7013 TIP4 BD1  LP0     -1.358200        0.0000           
   28053 A    7014 TIP4 O1   OW0      0.000000       15.9990           
   28054 A    7014 TIP4 H1   HW0      0.679100        1.0080           
   28055 A    7014 TIP4 H2   HW0      0.679100        1.0080           
   28056 A    7014 TIP4 BD1  LP0     -1.358200        0.0000           
   28057 A    7015 TIP4 O1   OW0      0.000000       15.9990           
   28058 A    7015 TIP4 H1   HW0      0.679100        1.0080           
   28059 A    7015 TIP4 H2   HW0      0.679100        1.0080           
   28060 A    7015 TIP4 BD1  LP0     -1.358200        0.0000           
   28061 A    7016 TIP4 O1   OW0      0.000000       15.9990           
   28062 A    7016 TIP4 H1   HW0      0.679100        1.0080           
   28063 A    7016 TIP4 H2   HW0      0.679100        1.0080           
   28064 A    7016 TIP4 BD1  LP0     -1.358200        0.0000           
   28065 A    7017 TIP4 O1   OW0      0.000000       15.9990           
   28066 A    7017 TIP4 H1   HW0      0.679100        1.0080           
   28067 A    7017 TIP4 H2   HW0      0.679100        1.0080           
   28068 A    7017 TIP4 BD1  LP0     -1.358200        0.0000           
   28069 A    7018 TIP4 O1   OW0      0.000000       15.9990           
   28070 A    7018 TIP4 H1   HW0      0.679100        1.0080           
   28071 A    7018 TIP4 H2   HW0      0.679100        1.0080           
   28072 A    7018 TIP4 BD1  LP0     -1.358200        0.0000           
   28073 A    7019 TIP4 O1   OW0      0.000000       15.9990           
   28074 A    7019 TIP4 H1   HW0      0.679100        1.0080           
   28075 A    7019 TIP4 H2   HW0      0.679100        1.0080           
   28076 A    7019 TIP4 BD1  LP0     -1.358200        0.0000           
   28077 A    7020 TIP4 O1   OW0      0.000000       15.9990           
   28078 A    7020 TIP4 H1   HW0      0.679100        1.0080           
   28079 A    7020 TIP4 H2   HW0      0.679100        1.0080           
   28080 A    7020 TIP4 BD1  LP0     -1.358200        0.0000           
   28081 A    7021 TIP4 O1   OW0      0.000000       15.9990           
   28082 A    7021 TIP4 H1   HW0      0.679100        1.0080           
   28083 A    7021 TIP4 H2   HW0      0.679100        1.0080           
   28084 A    7021 TIP4 BD1  LP0     -1.358200        0.0000           
   28085 A    7022 TIP4 O1   OW0      0.000000       15.9990           
   28086 A    7022 TIP4 H1   HW0      0.679100        1.0080           
   28087 A    7022 TIP4 H2   HW0      0.679100        1.0080           
   28088 A    7022 TIP4 BD1  LP0     -1.358200        0.0000           
   28089 A    7023 TIP4 O1   OW0      0.000000       15.9990           
   28090 A    7023 TIP4 H1   HW0      0.679100        1.0080           
   28091 A    7023 TIP4 H2   HW0      0.679100        1.0080           
   28092 A    7023 TIP4 BD1  LP0     -1.358200        0.0000           
   28093 A    7024 TIP4 O1   OW0      0.000000       15.9990           
   28094 A    7024 TIP4 H1   HW0      0.679100        1.0080           
   28095 A    7024 TIP4 H2   HW0      0.679100        1.0080           
   28096 A    7024 TIP4 BD1  LP0     -1.358200        0.0000           
   28097 A    7025 TIP4 O1   OW0      0.000000       15.9990           
   28098 A    7025 TIP4 H1   HW0      0.679100        1.0080           
   28099 A    7025 TIP4 H2   HW0      0.679100        1.0080           
   28100 A    7025 TIP4 BD1  LP0     -1.358200        0.0000           
   28101 A    7026 TIP4 O1   OW0      0.000000       15.9990           
   28102 A    7026 TIP4 H1   HW0      0.679100        1.0080           
   28103 A    7026 TIP4 H2   HW0      0.679100        1.0080           
   28104 A    7026 TIP4 BD1  LP0     -1.358200        0.0000           
   28105 A    7027 TIP4 O1   OW0      0.000000       15.9990           
   28106 A    7027 TIP4 H1   HW0      0.679100        1.0080           
   28107 A    7027 TIP4 H2   HW0      0.679100        1.0080           
   28108 A    7027 TIP4 BD1  LP0     -1.358200        0.0000           
   28109 A    7028 TIP4 O1   OW0      0.000000       15.9990           
   28110 A    7028 TIP4 H1   HW0      0.679100        1.0080           
   28111 A    7028 TIP4 H2   HW0      0.679100        1.0080           
   28112 A    7028 TIP4 BD1  LP0     -1.358200        0.0000           
   28113 A    7029 TIP4 O1   OW0      0.000000       15.9990           
   28114 A    7029 TIP4 H1   HW0      0.679100        1.0080           
   28115 A    7029 TIP4 H2   HW0      0.679100        1.0080           
   28116 A    7029 TIP4 BD1  LP0     -1.358200        0.0000           
   28117 A    7030 TIP4 O1   OW0      0.000000       15.9990           
   28118 A    7030 TIP4 H1   HW0      0.679100        1.0080           
   28119 A    7030 TIP4 H2   HW0      0.679100        1.0080           
   28120 A    7030 TIP4 BD1  LP0     -1.358200        0.0000           
   28121 A    7031 TIP4 O1   OW0      0.000000       15.9990           
   28122 A    7031 TIP4 H1   HW0      0.679100        1.0080           
   28123 A    7031 TIP4 H2   HW0      0.679100        1.0080           
   28124 A    7031 TIP4 BD1  LP0     -1.358200        0.0000           
   28125 A    7032 TIP4 O1   OW0      0.000000       15.9990           
   28126 A    7032 TIP4 H1   HW0      0.679100        1.0080           
   28127 A    7032 TIP4 H2   HW0      0.679100        1.0080           
   28128 A    7032 TIP4 BD1  LP0     -1.358200        0.0000           
   28129 A    7033 TIP4 O1   OW0      0.000000       15.9990           
   28130 A    7033 TIP4 H1   HW0      0.679100        1.0080           
   28131 A    7033 TIP4 H2   HW0      0.679100        1.0080           
   28132 A    7033 TIP4 BD1  LP0     -1.358200        0.0000           
   28133 A    7034 TIP4 O1   OW0      0.000000       15.9990           
   28134 A    7034 TIP4 H1   HW0      0.679100        1.0080           
   28135 A    7034 TIP4 H2   HW0      0.679100        1.0080           
   28136 A    7034 TIP4 BD1  LP0     -1.358200        0.0000           
   28137 A    7035 TIP4 O1   OW0      0.000000       15.9990           
   28138 A    7035 TIP4 H1   HW0      0.679100        1.0080           
   28139 A    7035 TIP4 H2   HW0      0.679100        1.0080           
   28140 A    7035 TIP4 BD1  LP0     -1.358200        0.0000           
   28141 A    7036 TIP4 O1   OW0      0.000000       15.9990           
   28142 A    7036 TIP4 H1   HW0      0.679100        1.0080           
   28143 A    7036 TIP4 H2   HW0      0.679100        1.0080           
   28144 A    7036 TIP4 BD1  LP0     -1.358200        0.0000           
   28145 A    7037 TIP4 O1   OW0      0.000000       15.9990           
   28146 A    7037 TIP4 H1   HW0      0.679100        1.0080           
   28147 A    7037 TIP4 H2   HW0      0.679100        1.0080           
   28148 A    7037 TIP4 BD1  LP0     -1.358200        0.0000           
   28149 A    7038 TIP4 O1   OW0      0.000000       15.9990           
   28150 A    7038 TIP4 H1   HW0      0.679100        1.0080           
   28151 A    7038 TIP4 H2   HW0      0.679100        1.0080           
   28152 A    7038 TIP4 BD1  LP0     -1.358200        0.0000           
   28153 A    7039 TIP4 O1   OW0      0.000000       15.9990           
   28154 A    7039 TIP4 H1   HW0      0.679100        1.0080           
   28155 A    7039 TIP4 H2   HW0      0.679100        1.0080           
   28156 A    7039 TIP4 BD1  LP0     -1.358200        0.0000           
   28157 A    7040 TIP4 O1   OW0      0.000000       15.9990           
   28158 A    7040 TIP4 H1   HW0      0.679100        1.0080           
   28159 A    7040 TIP4 H2   HW0      0.679100        1.0080           
   28160 A    7040 TIP4 BD1  LP0     -1.358200        0.0000           
   28161 A    7041 TIP4 O1   OW0      0.000000       15.9990           
   28162 A    7041 TIP4 H1   HW0      0.679100        1.0080           
   28163 A    7041 TIP4 H2   HW0      0.679100        1.0080           
   28164 A    7041 TIP4 BD1  LP0     -1.358200        0.0000           
   28165 A    7042 TIP4 O1   OW0      0.000000       15.9990           
   28166 A    7042 TIP4 H1   HW0      0.679100        1.0080           
   28167 A    7042 TIP4 H2   HW0      0.679100        1.0080           
   28168 A    7042 TIP4 BD1  LP0     -1.358200        0.0000           
   28169 A    7043 TIP4 O1   OW0      0.000000       15.9990           
   28170 A    7043 TIP4 H1   HW0      0.679100        1.0080           
   28171 A    7043 TIP4 H2   HW0      0.679100        1.0080           
   28172 A    7043 TIP4 BD1  LP0     -1.358200        0.0000           
   28173 A    7044 TIP4 O1   OW0      0.000000       15.9990           
   28174 A    7044 TIP4 H1   HW0      0.679100        1.0080           
   28175 A    7044 TIP4 H2   HW0      0.679100        1.0080           
   28176 A    7044 TIP4 BD1  LP0     -1.358200        0.0000           
   28177 A    7045 TIP4 O1   OW0      0.000000       15.9990           
   28178 A    7045 TIP4 H1   HW0      0.679100        1.0080           
   28179 A    7045 TIP4 H2   HW0      0.679100        1.0080           
   28180 A    7045 TIP4 BD1  LP0     -1.358200        0.0000           
   28181 A    7046 TIP4 O1   OW0      0.000000       15.9990           
   28182 A    7046 TIP4 H1   HW0      0.679100        1.0080           
   28183 A    7046 TIP4 H2   HW0      0.679100        1.0080           
   28184 A    7046 TIP4 BD1  LP0     -1.358200        0.0000           
   28185 A    7047 TIP4 O1   OW0      0.000000       15.9990           
   28186 A    7047 TIP4 H1   HW0      0.679100        1.0080           
   28187 A    7047 TIP4 H2   HW0      0.679100        1.0080           
   28188 A    7047 TIP4 BD1  LP0     -1.358200        0.0000           
   28189 A    7048 TIP4 O1   OW0      0.000000       15.9990           
   28190 A    7048 TIP4 H1   HW0      0.679100        1.0080           
   28191 A    7048 TIP4 H2   HW0      0.679100        1.0080           
   28192 A    7048 TIP4 BD1  LP0     -1.358200        0.0000           
   28193 A    7049 TIP4 O1   OW0      0.000000       15.9990           
   28194 A    7049 TIP4 H1   HW0      0.679100        1.0080           
   28195 A    7049 TIP4 H2   HW0      0.679100        1.0080           
   28196 A    7049 TIP4 BD1  LP0     -1.358200        0.0000           
   28197 A    7050 TIP4 O1   OW0      0.000000       15.9990           
   28198 A    7050 TIP4 H1   HW0      0.679100        1.0080           
   28199 A    7050 TIP4 H2   HW0      0.679100        1.0080           
   28200 A    7050 TIP4 BD1  LP0     -1.358200        0.0000           
   28201 A    7051 TIP4 O1   OW0      0.000000       15.9990           
   28202 A    7051 TIP4 H1   HW0      0.679100        1.0080           
   28203 A    7051 TIP4 H2   HW0      0.679100        1.0080           
   28204 A    7051 TIP4 BD1  LP0     -1.358200        0.0000           
   28205 A    7052 TIP4 O1   OW0      0.000000       15.9990           
   28206 A    7052 TIP4 H1   HW0      0.679100        1.0080           
   28207 A    7052 TIP4 H2   HW0      0.679100        1.0080           
   28208 A    7052 TIP4 BD1  LP0     -1.358200        0.0000           
   28209 A    7053 TIP4 O1   OW0      0.000000       15.9990           
   28210 A    7053 TIP4 H1   HW0      0.679100        1.0080           
   28211 A    7053 TIP4 H2   HW0      0.679100        1.0080           
   28212 A    7053 TIP4 BD1  LP0     -1.358200        0.0000           
   28213 A    7054 TIP4 O1   OW0      0.000000       15.9990           
   28214 A    7054 TIP4 H1   HW0      0.679100        1.0080           
   28215 A    7054 TIP4 H2   HW0      0.679100        1.0080           
   28216 A    7054 TIP4 BD1  LP0     -1.358200        0.0000           
   28217 A    7055 TIP4 O1   OW0      0.000000       15.9990           
   28218 A    7055 TIP4 H1   HW0      0.679100        1.0080           
   28219 A    7055 TIP4 H2   HW0      0.679100        1.0080           
   28220 A    7055 TIP4 BD1  LP0     -1.358200        0.0000           
   28221 A    7056 TIP4 O1   OW0      0.000000       15.9990           
   28222 A    7056 TIP4 H1   HW0      0.679100        1.0080           
   28223 A    7056 TIP4 H2   HW0      0.679100        1.0080           
   28224 A    7056 TIP4 BD1  LP0     -1.358200        0.0000           
   28225 A    7057 TIP4 O1   OW0      0.000000       15.9990           
   28226 A    7057 TIP4 H1   HW0      0.679100        1.0080           
   28227 A    7057 TIP4 H2   HW0      0.679100        1.0080           
   28228 A    7057 TIP4 BD1  LP0     -1.358200        0.0000           
   28229 A    7058 TIP4 O1   OW0      0.000000       15.9990           
   28230 A    7058 TIP4 H1   HW0      0.679100        1.0080           
   28231 A    7058 TIP4 H2   HW0      0.679100        1.0080           
   28232 A    7058 TIP4 BD1  LP0     -1.358200        0.0000           
   28233 A    7059 TIP4 O1   OW0      0.000000       15.9990           
   28234 A    7059 TIP4 H1   HW0      0.679100        1.0080           
   28235 A    7059 TIP4 H2   HW0      0.679100        1.0080           
   28236 A    7059 TIP4 BD1  LP0     -1.358200        0.0000           
   28237 A    7060 TIP4 O1   OW0      0.000000       15.9990           
   28238 A    7060 TIP4 H1   HW0      0.679100        1.0080           
   28239 A    7060 TIP4 H2   HW0      0.679100        1.0080           
   28240 A    7060 TIP4 BD1  LP0     -1.358200        0.0000           
   28241 A    7061 TIP4 O1   OW0      0.000000       15.9990           
   28242 A    7061 TIP4 H1   HW0      0.679100        1.0080           
   28243 A    7061 TIP4 H2   HW0      0.679100        1.0080           
   28244 A    7061 TIP4 BD1  LP0     -1.358200        0.0000           
   28245 A    7062 TIP4 O1   OW0      0.000000       15.9990           
   28246 A    7062 TIP4 H1   HW0      0.679100        1.0080           
   28247 A    7062 TIP4 H2   HW0      0.679100        1.0080           
   28248 A    7062 TIP4 BD1  LP0     -1.358200        0.0000           
   28249 A    7063 TIP4 O1   OW0      0.000000       15.9990           
   28250 A    7063 TIP4 H1   HW0      0.679100        1.0080           
   28251 A    7063 TIP4 H2   HW0      0.679100        1.0080           
   28252 A    7063 TIP4 BD1  LP0     -1.358200        0.0000           
   28253 A    7064 TIP4 O1   OW0      0.000000       15.9990           
   28254 A    7064 TIP4 H1   HW0      0.679100        1.0080           
   28255 A    7064 TIP4 H2   HW0      0.679100        1.0080           
   28256 A    7064 TIP4 BD1  LP0     -1.358200        0.0000           
   28257 A    7065 TIP4 O1   OW0      0.000000       15.9990           
   28258 A    7065 TIP4 H1   HW0      0.679100        1.0080           
   28259 A    7065 TIP4 H2   HW0      0.679100        1.0080           
   28260 A    7065 TIP4 BD1  LP0     -1.358200        0.0000           
   28261 A    7066 TIP4 O1   OW0      0.000000       15.9990           
   28262 A    7066 TIP4 H1   HW0      0.679100        1.0080           
   28263 A    7066 TIP4 H2   HW0      0.679100        1.0080           
   28264 A    7066 TIP4 BD1  LP0     -1.358200        0.0000           
   28265 A    7067 TIP4 O1   OW0      0.000000       15.9990           
   28266 A    7067 TIP4 H1   HW0      0.679100        1.0080           
   28267 A    7067 TIP4 H2   HW0      0.679100        1.0080           
   28268 A    7067 TIP4 BD1  LP0     -1.358200        0.0000           
   28269 A    7068 TIP4 O1   OW0      0.000000       15.9990           
   28270 A    7068 TIP4 H1   HW0      0.679100        1.0080           
   28271 A    7068 TIP4 H2   HW0      0.679100        1.0080           
   28272 A    7068 TIP4 BD1  LP0     -1.358200        0.0000           
   28273 A    7069 TIP4 O1   OW0      0.000000       15.9990           
   28274 A    7069 TIP4 H1   HW0      0.679100        1.0080           
   28275 A    7069 TIP4 H2   HW0      0.679100        1.0080           
   28276 A    7069 TIP4 BD1  LP0     -1.358200        0.0000           
   28277 A    7070 TIP4 O1   OW0      0.000000       15.9990           
   28278 A    7070 TIP4 H1   HW0      0.679100        1.0080           
   28279 A    7070 TIP4 H2   HW0      0.679100        1.0080           
   28280 A    7070 TIP4 BD1  LP0     -1.358200        0.0000           
   28281 A    7071 TIP4 O1   OW0      0.000000       15.9990           
   28282 A    7071 TIP4 H1   HW0      0.679100        1.0080           
   28283 A    7071 TIP4 H2   HW0      0.679100        1.0080           
   28284 A    7071 TIP4 BD1  LP0     -1.358200        0.0000           
   28285 A    7072 TIP4 O1   OW0      0.000000       15.9990           
   28286 A    7072 TIP4 H1   HW0      0.679100        1.0080           
   28287 A    7072 TIP4 H2   HW0      0.679100        1.0080           
   28288 A    7072 TIP4 BD1  LP0     -1.358200        0.0000           
   28289 A    7073 TIP4 O1   OW0      0.000000       15.9990           
   28290 A    7073 TIP4 H1   HW0      0.679100        1.0080           
   28291 A    7073 TIP4 H2   HW0      0.679100        1.0080           
   28292 A    7073 TIP4 BD1  LP0     -1.358200        0.0000           
   28293 A    7074 TIP4 O1   OW0      0.000000       15.9990           
   28294 A    7074 TIP4 H1   HW0      0.679100        1.0080           
   28295 A    7074 TIP4 H2   HW0      0.679100        1.0080           
   28296 A    7074 TIP4 BD1  LP0     -1.358200        0.0000           
   28297 A    7075 TIP4 O1   OW0      0.000000       15.9990           
   28298 A    7075 TIP4 H1   HW0      0.679100        1.0080           
   28299 A    7075 TIP4 H2   HW0      0.679100        1.0080           
   28300 A    7075 TIP4 BD1  LP0     -1.358200        0.0000           
   28301 A    7076 TIP4 O1   OW0      0.000000       15.9990           
   28302 A    7076 TIP4 H1   HW0      0.679100        1.0080           
   28303 A    7076 TIP4 H2   HW0      0.679100        1.0080           
   28304 A    7076 TIP4 BD1  LP0     -1.358200        0.0000           
   28305 A    7077 TIP4 O1   OW0      0.000000       15.9990           
   28306 A    7077 TIP4 H1   HW0      0.679100        1.0080           
   28307 A    7077 TIP4 H2   HW0      0.679100        1.0080           
   28308 A    7077 TIP4 BD1  LP0     -1.358200        0.0000           
   28309 A    7078 TIP4 O1   OW0      0.000000       15.9990           
   28310 A    7078 TIP4 H1   HW0      0.679100        1.0080           
   28311 A    7078 TIP4 H2   HW0      0.679100        1.0080           
   28312 A    7078 TIP4 BD1  LP0     -1.358200        0.0000           
   28313 A    7079 TIP4 O1   OW0      0.000000       15.9990           
   28314 A    7079 TIP4 H1   HW0      0.679100        1.0080           
   28315 A    7079 TIP4 H2   HW0      0.679100        1.0080           
   28316 A    7079 TIP4 BD1  LP0     -1.358200        0.0000           
   28317 A    7080 TIP4 O1   OW0      0.000000       15.9990           
   28318 A    7080 TIP4 H1   HW0      0.679100        1.0080           
   28319 A    7080 TIP4 H2   HW0      0.679100        1.0080           
   28320 A    7080 TIP4 BD1  LP0     -1.358200        0.0000           
   28321 A    7081 TIP4 O1   OW0      0.000000       15.9990           
   28322 A    7081 TIP4 H1   HW0      0.679100        1.0080           
   28323 A    7081 TIP4 H2   HW0      0.679100        1.0080           
   28324 A    7081 TIP4 BD1  LP0     -1.358200        0.0000           
   28325 A    7082 TIP4 O1   OW0      0.000000       15.9990           
   28326 A    7082 TIP4 H1   HW0      0.679100        1.0080           
   28327 A    7082 TIP4 H2   HW0      0.679100        1.0080           
   28328 A    7082 TIP4 BD1  LP0     -1.358200        0.0000           
   28329 A    7083 TIP4 O1   OW0      0.000000       15.9990           
   28330 A    7083 TIP4 H1   HW0      0.679100        1.0080           
   28331 A    7083 TIP4 H2   HW0      0.679100        1.0080           
   28332 A    7083 TIP4 BD1  LP0     -1.358200        0.0000           
   28333 A    7084 TIP4 O1   OW0      0.000000       15.9990           
   28334 A    7084 TIP4 H1   HW0      0.679100        1.0080           
   28335 A    7084 TIP4 H2   HW0      0.679100        1.0080           
   28336 A    7084 TIP4 BD1  LP0     -1.358200        0.0000           
   28337 A    7085 TIP4 O1   OW0      0.000000       15.9990           
   28338 A    7085 TIP4 H1   HW0      0.679100        1.0080           
   28339 A    7085 TIP4 H2   HW0      0.679100        1.0080           
   28340 A    7085 TIP4 BD1  LP0     -1.358200        0.0000           
   28341 A    7086 TIP4 O1   OW0      0.000000       15.9990           
   28342 A    7086 TIP4 H1   HW0      0.679100        1.0080           
   28343 A    7086 TIP4 H2   HW0      0.679100        1.0080           
   28344 A    7086 TIP4 BD1  LP0     -1.358200        0.0000           
   28345 A    7087 TIP4 O1   OW0      0.000000       15.9990           
   28346 A    7087 TIP4 H1   HW0      0.679100        1.0080           
   28347 A    7087 TIP4 H2   HW0      0.679100        1.0080           
   28348 A    7087 TIP4 BD1  LP0     -1.358200        0.0000           
   28349 A    7088 TIP4 O1   OW0      0.000000       15.9990           
   28350 A    7088 TIP4 H1   HW0      0.679100        1.0080           
   28351 A    7088 TIP4 H2   HW0      0.679100        1.0080           
   28352 A    7088 TIP4 BD1  LP0     -1.358200        0.0000           
   28353 A    7089 TIP4 O1   OW0      0.000000       15.9990           
   28354 A    7089 TIP4 H1   HW0      0.679100        1.0080           
   28355 A    7089 TIP4 H2   HW0      0.679100        1.0080           
   28356 A    7089 TIP4 BD1  LP0     -1.358200        0.0000           
   28357 A    7090 TIP4 O1   OW0      0.000000       15.9990           
   28358 A    7090 TIP4 H1   HW0      0.679100        1.0080           
   28359 A    7090 TIP4 H2   HW0      0.679100        1.0080           
   28360 A    7090 TIP4 BD1  LP0     -1.358200        0.0000           
   28361 A    7091 TIP4 O1   OW0      0.000000       15.9990           
   28362 A    7091 TIP4 H1   HW0      0.679100        1.0080           
   28363 A    7091 TIP4 H2   HW0      0.679100        1.0080           
   28364 A    7091 TIP4 BD1  LP0     -1.358200        0.0000           
   28365 A    7092 TIP4 O1   OW0      0.000000       15.9990           
   28366 A    7092 TIP4 H1   HW0      0.679100        1.0080           
   28367 A    7092 TIP4 H2   HW0      0.679100        1.0080           
   28368 A    7092 TIP4 BD1  LP0     -1.358200        0.0000           
   28369 A    7093 TIP4 O1   OW0      0.000000       15.9990           
   28370 A    7093 TIP4 H1   HW0      0.679100        1.0080           
   28371 A    7093 TIP4 H2   HW0      0.679100        1.0080           
   28372 A    7093 TIP4 BD1  LP0     -1.358200        0.0000           
   28373 A    7094 TIP4 O1   OW0      0.000000       15.9990           
   28374 A    7094 TIP4 H1   HW0      0.679100        1.0080           
   28375 A    7094 TIP4 H2   HW0      0.679100        1.0080           
   28376 A    7094 TIP4 BD1  LP0     -1.358200        0.0000           
   28377 A    7095 TIP4 O1   OW0      0.000000       15.9990           
   28378 A    7095 TIP4 H1   HW0      0.679100        1.0080           
   28379 A    7095 TIP4 H2   HW0      0.679100        1.0080           
   28380 A    7095 TIP4 BD1  LP0     -1.358200        0.0000           
   28381 A    7096 TIP4 O1   OW0      0.000000       15.9990           
   28382 A    7096 TIP4 H1   HW0      0.679100        1.0080           
   28383 A    7096 TIP4 H2   HW0      0.679100        1.0080           
   28384 A    7096 TIP4 BD1  LP0     -1.358200        0.0000           
   28385 A    7097 TIP4 O1   OW0      0.000000       15.9990           
   28386 A    7097 TIP4 H1   HW0      0.679100        1.0080           
   28387 A    7097 TIP4 H2   HW0      0.679100        1.0080           
   28388 A    7097 TIP4 BD1  LP0     -1.358200        0.0000           
   28389 A    7098 TIP4 O1   OW0      0.000000       15.9990           
   28390 A    7098 TIP4 H1   HW0      0.679100        1.0080           
   28391 A    7098 TIP4 H2   HW0      0.679100        1.0080           
   28392 A    7098 TIP4 BD1  LP0     -1.358200        0.0000           
   28393 A    7099 TIP4 O1   OW0      0.000000       15.9990           
   28394 A    7099 TIP4 H1   HW0      0.679100        1.0080           
   28395 A    7099 TIP4 H2   HW0      0.679100        1.0080           
   28396 A    7099 TIP4 BD1  LP0     -1.358200        0.0000           
   28397 A    7100 TIP4 O1   OW0      0.000000       15.9990           
   28398 A    7100 TIP4 H1   HW0      0.679100        1.0080           
   28399 A    7100 TIP4 H2   HW0      0.679100        1.0080           
   28400 A    7100 TIP4 BD1  LP0     -1.358200        0.0000           
   28401 A    7101 TIP4 O1   OW0      0.000000       15.9990           
   28402 A    7101 TIP4 H1   HW0      0.679100        1.0080           
   28403 A    7101 TIP4 H2   HW0      0.679100        1.0080           
   28404 A    7101 TIP4 BD1  LP0     -1.358200        0.0000           
   28405 A    7102 TIP4 O1   OW0      0.000000       15.9990           
   28406 A    7102 TIP4 H1   HW0      0.679100        1.0080           
   28407 A    7102 TIP4 H2   HW0      0.679100        1.0080           
   28408 A    7102 TIP4 BD1  LP0     -1.358200        0.0000           
   28409 A    7103 TIP4 O1   OW0      0.000000       15.9990           
   28410 A    7103 TIP4 H1   HW0      0.679100        1.0080           
   28411 A    7103 TIP4 H2   HW0      0.679100        1.0080           
   28412 A    7103 TIP4 BD1  LP0     -1.358200        0.0000           
   28413 A    7104 TIP4 O1   OW0      0.000000       15.9990           
   28414 A    7104 TIP4 H1   HW0      0.679100        1.0080           
   28415 A    7104 TIP4 H2   HW0      0.679100        1.0080           
   28416 A    7104 TIP4 BD1  LP0     -1.358200        0.0000           
   28417 A    7105 TIP4 O1   OW0      0.000000       15.9990           
   28418 A    7105 TIP4 H1   HW0      0.679100        1.0080           
   28419 A    7105 TIP4 H2   HW0      0.679100        1.0080           
   28420 A    7105 TIP4 BD1  LP0     -1.358200        0.0000           
   28421 A    7106 TIP4 O1   OW0      0.000000       15.9990           
   28422 A    7106 TIP4 H1   HW0      0.679100        1.0080           
   28423 A    7106 TIP4 H2   HW0      0.679100        1.0080           
   28424 A    7106 TIP4 BD1  LP0     -1.358200        0.0000           
   28425 A    7107 TIP4 O1   OW0      0.000000       15.9990           
   28426 A    7107 TIP4 H1   HW0      0.679100        1.0080           
   28427 A    7107 TIP4 H2   HW0      0.679100        1.0080           
   28428 A    7107 TIP4 BD1  LP0     -1.358200        0.0000           
   28429 A    7108 TIP4 O1   OW0      0.000000       15.9990           
   28430 A    7108 TIP4 H1   HW0      0.679100        1.0080           
   28431 A    7108 TIP4 H2   HW0      0.679100        1.0080           
   28432 A    7108 TIP4 BD1  LP0     -1.358200        0.0000           
   28433 A    7109 TIP4 O1   OW0      0.000000       15.9990           
   28434 A    7109 TIP4 H1   HW0      0.679100        1.0080           
   28435 A    7109 TIP4 H2   HW0      0.679100        1.0080           
   28436 A    7109 TIP4 BD1  LP0     -1.358200        0.0000           
   28437 A    7110 TIP4 O1   OW0      0.000000       15.9990           
   28438 A    7110 TIP4 H1   HW0      0.679100        1.0080           
   28439 A    7110 TIP4 H2   HW0      0.679100        1.0080           
   28440 A    7110 TIP4 BD1  LP0     -1.358200        0.0000           
   28441 A    7111 TIP4 O1   OW0      0.000000       15.9990           
   28442 A    7111 TIP4 H1   HW0      0.679100        1.0080           
   28443 A    7111 TIP4 H2   HW0      0.679100        1.0080           
   28444 A    7111 TIP4 BD1  LP0     -1.358200        0.0000           
   28445 A    7112 TIP4 O1   OW0      0.000000       15.9990           
   28446 A    7112 TIP4 H1   HW0      0.679100        1.0080           
   28447 A    7112 TIP4 H2   HW0      0.679100        1.0080           
   28448 A    7112 TIP4 BD1  LP0     -1.358200        0.0000           
   28449 A    7113 TIP4 O1   OW0      0.000000       15.9990           
   28450 A    7113 TIP4 H1   HW0      0.679100        1.0080           
   28451 A    7113 TIP4 H2   HW0      0.679100        1.0080           
   28452 A    7113 TIP4 BD1  LP0     -1.358200        0.0000           
   28453 A    7114 TIP4 O1   OW0      0.000000       15.9990           
   28454 A    7114 TIP4 H1   HW0      0.679100        1.0080           
   28455 A    7114 TIP4 H2   HW0      0.679100        1.0080           
   28456 A    7114 TIP4 BD1  LP0     -1.358200        0.0000           
   28457 A    7115 TIP4 O1   OW0      0.000000       15.9990           
   28458 A    7115 TIP4 H1   HW0      0.679100        1.0080           
   28459 A    7115 TIP4 H2   HW0      0.679100        1.0080           
   28460 A    7115 TIP4 BD1  LP0     -1.358200        0.0000           
   28461 A    7116 TIP4 O1   OW0      0.000000       15.9990           
   28462 A    7116 TIP4 H1   HW0      0.679100        1.0080           
   28463 A    7116 TIP4 H2   HW0      0.679100        1.0080           
   28464 A    7116 TIP4 BD1  LP0     -1.358200        0.0000           
   28465 A    7117 TIP4 O1   OW0      0.000000       15.9990           
   28466 A    7117 TIP4 H1   HW0      0.679100        1.0080           
   28467 A    7117 TIP4 H2   HW0      0.679100        1.0080           
   28468 A    7117 TIP4 BD1  LP0     -1.358200        0.0000           
   28469 A    7118 TIP4 O1   OW0      0.000000       15.9990           
   28470 A    7118 TIP4 H1   HW0      0.679100        1.0080           
   28471 A    7118 TIP4 H2   HW0      0.679100        1.0080           
   28472 A    7118 TIP4 BD1  LP0     -1.358200        0.0000           
   28473 A    7119 TIP4 O1   OW0      0.000000       15.9990           
   28474 A    7119 TIP4 H1   HW0      0.679100        1.0080           
   28475 A    7119 TIP4 H2   HW0      0.679100        1.0080           
   28476 A    7119 TIP4 BD1  LP0     -1.358200        0.0000           
   28477 A    7120 TIP4 O1   OW0      0.000000       15.9990           
   28478 A    7120 TIP4 H1   HW0      0.679100        1.0080           
   28479 A    7120 TIP4 H2   HW0      0.679100        1.0080           
   28480 A    7120 TIP4 BD1  LP0     -1.358200        0.0000           
   28481 A    7121 TIP4 O1   OW0      0.000000       15.9990           
   28482 A    7121 TIP4 H1   HW0      0.679100        1.0080           
   28483 A    7121 TIP4 H2   HW0      0.679100        1.0080           
   28484 A    7121 TIP4 BD1  LP0     -1.358200        0.0000           
   28485 A    7122 TIP4 O1   OW0      0.000000       15.9990           
   28486 A    7122 TIP4 H1   HW0      0.679100        1.0080           
   28487 A    7122 TIP4 H2   HW0      0.679100        1.0080           
   28488 A    7122 TIP4 BD1  LP0     -1.358200        0.0000           
   28489 A    7123 TIP4 O1   OW0      0.000000       15.9990           
   28490 A    7123 TIP4 H1   HW0      0.679100        1.0080           
   28491 A    7123 TIP4 H2   HW0      0.679100        1.0080           
   28492 A    7123 TIP4 BD1  LP0     -1.358200        0.0000           
   28493 A    7124 TIP4 O1   OW0      0.000000       15.9990           
   28494 A    7124 TIP4 H1   HW0      0.679100        1.0080           
   28495 A    7124 TIP4 H2   HW0      0.679100        1.0080           
   28496 A    7124 TIP4 BD1  LP0     -1.358200        0.0000           
   28497 A    7125 TIP4 O1   OW0      0.000000       15.9990           
   28498 A    7125 TIP4 H1   HW0      0.679100        1.0080           
   28499 A    7125 TIP4 H2   HW0      0.679100        1.0080           
   28500 A    7125 TIP4 BD1  LP0     -1.358200        0.0000           
   28501 A    7126 TIP4 O1   OW0      0.000000       15.9990           
   28502 A    7126 TIP4 H1   HW0      0.679100        1.0080           
   28503 A    7126 TIP4 H2   HW0      0.679100        1.0080           
   28504 A    7126 TIP4 BD1  LP0     -1.358200        0.0000           
   28505 A    7127 TIP4 O1   OW0      0.000000       15.9990           
   28506 A    7127 TIP4 H1   HW0      0.679100        1.0080           
   28507 A    7127 TIP4 H2   HW0      0.679100        1.0080           
   28508 A    7127 TIP4 BD1  LP0     -1.358200        0.0000           
   28509 A    7128 TIP4 O1   OW0      0.000000       15.9990           
   28510 A    7128 TIP4 H1   HW0      0.679100        1.0080           
   28511 A    7128 TIP4 H2   HW0      0.679100        1.0080           
   28512 A    7128 TIP4 BD1  LP0     -1.358200        0.0000           
   28513 A    7129 TIP4 O1   OW0      0.000000       15.9990           
   28514 A    7129 TIP4 H1   HW0      0.679100        1.0080           
   28515 A    7129 TIP4 H2   HW0      0.679100        1.0080           
   28516 A    7129 TIP4 BD1  LP0     -1.358200        0.0000           
   28517 A    7130 TIP4 O1   OW0      0.000000       15.9990           
   28518 A    7130 TIP4 H1   HW0      0.679100        1.0080           
   28519 A    7130 TIP4 H2   HW0      0.679100        1.0080           
   28520 A    7130 TIP4 BD1  LP0     -1.358200        0.0000           
   28521 A    7131 TIP4 O1   OW0      0.000000       15.9990           
   28522 A    7131 TIP4 H1   HW0      0.679100        1.0080           
   28523 A    7131 TIP4 H2   HW0      0.679100        1.0080           
   28524 A    7131 TIP4 BD1  LP0     -1.358200        0.0000           
   28525 A    7132 TIP4 O1   OW0      0.000000       15.9990           
   28526 A    7132 TIP4 H1   HW0      0.679100        1.0080           
   28527 A    7132 TIP4 H2   HW0      0.679100        1.0080           
   28528 A    7132 TIP4 BD1  LP0     -1.358200        0.0000           
   28529 A    7133 TIP4 O1   OW0      0.000000       15.9990           
   28530 A    7133 TIP4 H1   HW0      0.679100        1.0080           
   28531 A    7133 TIP4 H2   HW0      0.679100        1.0080           
   28532 A    7133 TIP4 BD1  LP0     -1.358200        0.0000           
   28533 A    7134 TIP4 O1   OW0      0.000000       15.9990           
   28534 A    7134 TIP4 H1   HW0      0.679100        1.0080           
   28535 A    7134 TIP4 H2   HW0      0.679100        1.0080           
   28536 A    7134 TIP4 BD1  LP0     -1.358200        0.0000           
   28537 A    7135 TIP4 O1   OW0      0.000000       15.9990           
   28538 A    7135 TIP4 H1   HW0      0.679100        1.0080           
   28539 A    7135 TIP4 H2   HW0      0.679100        1.0080           
   28540 A    7135 TIP4 BD1  LP0     -1.358200        0.0000           
   28541 A    7136 TIP4 O1   OW0      0.000000       15.9990           
   28542 A    7136 TIP4 H1   HW0      0.679100        1.0080           
   28543 A    7136 TIP4 H2   HW0      0.679100        1.0080           
   28544 A    7136 TIP4 BD1  LP0     -1.358200        0.0000           
   28545 A    7137 TIP4 O1   OW0      0.000000       15.9990           
   28546 A    7137 TIP4 H1   HW0      0.679100        1.0080           
   28547 A    7137 TIP4 H2   HW0      0.679100        1.0080           
   28548 A    7137 TIP4 BD1  LP0     -1.358200        0.0000           
   28549 A    7138 TIP4 O1   OW0      0.000000       15.9990           
   28550 A    7138 TIP4 H1   HW0      0.679100        1.0080           
   28551 A    7138 TIP4 H2   HW0      0.679100        1.0080           
   28552 A    7138 TIP4 BD1  LP0     -1.358200        0.0000           
   28553 A    7139 TIP4 O1   OW0      0.000000       15.9990           
   28554 A    7139 TIP4 H1   HW0      0.679100        1.0080           
   28555 A    7139 TIP4 H2   HW0      0.679100        1.0080           
   28556 A    7139 TIP4 BD1  LP0     -1.358200        0.0000           
   28557 A    7140 TIP4 O1   OW0      0.000000       15.9990           
   28558 A    7140 TIP4 H1   HW0      0.679100        1.0080           
   28559 A    7140 TIP4 H2   HW0      0.679100        1.0080           
   28560 A    7140 TIP4 BD1  LP0     -1.358200        0.0000           
   28561 A    7141 TIP4 O1   OW0      0.000000       15.9990           
   28562 A    7141 TIP4 H1   HW0      0.679100        1.0080           
   28563 A    7141 TIP4 H2   HW0      0.679100        1.0080           
   28564 A    7141 TIP4 BD1  LP0     -1.358200        0.0000           
   28565 A    7142 TIP4 O1   OW0      0.000000       15.9990           
   28566 A    7142 TIP4 H1   HW0      0.679100        1.0080           
   28567 A    7142 TIP4 H2   HW0      0.679100        1.0080           
   28568 A    7142 TIP4 BD1  LP0     -1.358200        0.0000           
   28569 A    7143 TIP4 O1   OW0      0.000000       15.9990           
   28570 A    7143 TIP4 H1   HW0      0.679100        1.0080           
   28571 A    7143 TIP4 H2   HW0      0.679100        1.0080           
   28572 A    7143 TIP4 BD1  LP0     -1.358200        0.0000           
   28573 A    7144 TIP4 O1   OW0      0.000000       15.9990           
   28574 A    7144 TIP4 H1   HW0      0.679100        1.0080           
   28575 A    7144 TIP4 H2   HW0      0.679100        1.0080           
   28576 A    7144 TIP4 BD1  LP0     -1.358200        0.0000           
   28577 A    7145 TIP4 O1   OW0      0.000000       15.9990           
   28578 A    7145 TIP4 H1   HW0      0.679100        1.0080           
   28579 A    7145 TIP4 H2   HW0      0.679100        1.0080           
   28580 A    7145 TIP4 BD1  LP0     -1.358200        0.0000           
   28581 A    7146 TIP4 O1   OW0      0.000000       15.9990           
   28582 A    7146 TIP4 H1   HW0      0.679100        1.0080           
   28583 A    7146 TIP4 H2   HW0      0.679100        1.0080           
   28584 A    7146 TIP4 BD1  LP0     -1.358200        0.0000           
   28585 A    7147 TIP4 O1   OW0      0.000000       15.9990           
   28586 A    7147 TIP4 H1   HW0      0.679100        1.0080           
   28587 A    7147 TIP4 H2   HW0      0.679100        1.0080           
   28588 A    7147 TIP4 BD1  LP0     -1.358200        0.0000           
   28589 A    7148 TIP4 O1   OW0      0.000000       15.9990           
   28590 A    7148 TIP4 H1   HW0      0.679100        1.0080           
   28591 A    7148 TIP4 H2   HW0      0.679100        1.0080           
   28592 A    7148 TIP4 BD1  LP0     -1.358200        0.0000           
   28593 A    7149 TIP4 O1   OW0      0.000000       15.9990           
   28594 A    7149 TIP4 H1   HW0      0.679100        1.0080           
   28595 A    7149 TIP4 H2   HW0      0.679100        1.0080           
   28596 A    7149 TIP4 BD1  LP0     -1.358200        0.0000           
   28597 A    7150 TIP4 O1   OW0      0.000000       15.9990           
   28598 A    7150 TIP4 H1   HW0      0.679100        1.0080           
   28599 A    7150 TIP4 H2   HW0      0.679100        1.0080           
   28600 A    7150 TIP4 BD1  LP0     -1.358200        0.0000           
   28601 A    7151 TIP4 O1   OW0      0.000000       15.9990           
   28602 A    7151 TIP4 H1   HW0      0.679100        1.0080           
   28603 A    7151 TIP4 H2   HW0      0.679100        1.0080           
   28604 A    7151 TIP4 BD1  LP0     -1.358200        0.0000           
   28605 A    7152 TIP4 O1   OW0      0.000000       15.9990           
   28606 A    7152 TIP4 H1   HW0      0.679100        1.0080           
   28607 A    7152 TIP4 H2   HW0      0.679100        1.0080           
   28608 A    7152 TIP4 BD1  LP0     -1.358200        0.0000           
   28609 A    7153 TIP4 O1   OW0      0.000000       15.9990           
   28610 A    7153 TIP4 H1   HW0      0.679100        1.0080           
   28611 A    7153 TIP4 H2   HW0      0.679100        1.0080           
   28612 A    7153 TIP4 BD1  LP0     -1.358200        0.0000           
   28613 A    7154 TIP4 O1   OW0      0.000000       15.9990           
   28614 A    7154 TIP4 H1   HW0      0.679100        1.0080           
   28615 A    7154 TIP4 H2   HW0      0.679100        1.0080           
   28616 A    7154 TIP4 BD1  LP0     -1.358200        0.0000           
   28617 A    7155 TIP4 O1   OW0      0.000000       15.9990           
   28618 A    7155 TIP4 H1   HW0      0.679100        1.0080           
   28619 A    7155 TIP4 H2   HW0      0.679100        1.0080           
   28620 A    7155 TIP4 BD1  LP0     -1.358200        0.0000           
   28621 A    7156 TIP4 O1   OW0      0.000000       15.9990           
   28622 A    7156 TIP4 H1   HW0      0.679100        1.0080           
   28623 A    7156 TIP4 H2   HW0      0.679100        1.0080           
   28624 A    7156 TIP4 BD1  LP0     -1.358200        0.0000           
   28625 A    7157 TIP4 O1   OW0      0.000000       15.9990           
   28626 A    7157 TIP4 H1   HW0      0.679100        1.0080           
   28627 A    7157 TIP4 H2   HW0      0.679100        1.0080           
   28628 A    7157 TIP4 BD1  LP0     -1.358200        0.0000           
   28629 A    7158 TIP4 O1   OW0      0.000000       15.9990           
   28630 A    7158 TIP4 H1   HW0      0.679100        1.0080           
   28631 A    7158 TIP4 H2   HW0      0.679100        1.0080           
   28632 A    7158 TIP4 BD1  LP0     -1.358200        0.0000           
   28633 A    7159 TIP4 O1   OW0      0.000000       15.9990           
   28634 A    7159 TIP4 H1   HW0      0.679100        1.0080           
   28635 A    7159 TIP4 H2   HW0      0.679100        1.0080           
   28636 A    7159 TIP4 BD1  LP0     -1.358200        0.0000           
   28637 A    7160 TIP4 O1   OW0      0.000000       15.9990           
   28638 A    7160 TIP4 H1   HW0      0.679100        1.0080           
   28639 A    7160 TIP4 H2   HW0      0.679100        1.0080           
   28640 A    7160 TIP4 BD1  LP0     -1.358200        0.0000           
   28641 A    7161 TIP4 O1   OW0      0.000000       15.9990           
   28642 A    7161 TIP4 H1   HW0      0.679100        1.0080           
   28643 A    7161 TIP4 H2   HW0      0.679100        1.0080           
   28644 A    7161 TIP4 BD1  LP0     -1.358200        0.0000           
   28645 A    7162 TIP4 O1   OW0      0.000000       15.9990           
   28646 A    7162 TIP4 H1   HW0      0.679100        1.0080           
   28647 A    7162 TIP4 H2   HW0      0.679100        1.0080           
   28648 A    7162 TIP4 BD1  LP0     -1.358200        0.0000           
   28649 A    7163 TIP4 O1   OW0      0.000000       15.9990           
   28650 A    7163 TIP4 H1   HW0      0.679100        1.0080           
   28651 A    7163 TIP4 H2   HW0      0.679100        1.0080           
   28652 A    7163 TIP4 BD1  LP0     -1.358200        0.0000           
   28653 A    7164 TIP4 O1   OW0      0.000000       15.9990           
   28654 A    7164 TIP4 H1   HW0      0.679100        1.0080           
   28655 A    7164 TIP4 H2   HW0      0.679100        1.0080           
   28656 A    7164 TIP4 BD1  LP0     -1.358200        0.0000           
   28657 A    7165 TIP4 O1   OW0      0.000000       15.9990           
   28658 A    7165 TIP4 H1   HW0      0.679100        1.0080           
   28659 A    7165 TIP4 H2   HW0      0.679100        1.0080           
   28660 A    7165 TIP4 BD1  LP0     -1.358200        0.0000           
   28661 A    7166 TIP4 O1   OW0      0.000000       15.9990           
   28662 A    7166 TIP4 H1   HW0      0.679100        1.0080           
   28663 A    7166 TIP4 H2   HW0      0.679100        1.0080           
   28664 A    7166 TIP4 BD1  LP0     -1.358200        0.0000           
   28665 A    7167 TIP4 O1   OW0      0.000000       15.9990           
   28666 A    7167 TIP4 H1   HW0      0.679100        1.0080           
   28667 A    7167 TIP4 H2   HW0      0.679100        1.0080           
   28668 A    7167 TIP4 BD1  LP0     -1.358200        0.0000           
   28669 A    7168 TIP4 O1   OW0      0.000000       15.9990           
   28670 A    7168 TIP4 H1   HW0      0.679100        1.0080           
   28671 A    7168 TIP4 H2   HW0      0.679100        1.0080           
   28672 A    7168 TIP4 BD1  LP0     -1.358200        0.0000           
   28673 A    7169 TIP4 O1   OW0      0.000000       15.9990           
   28674 A    7169 TIP4 H1   HW0      0.679100        1.0080           
   28675 A    7169 TIP4 H2   HW0      0.679100        1.0080           
   28676 A    7169 TIP4 BD1  LP0     -1.358200        0.0000           
   28677 A    7170 TIP4 O1   OW0      0.000000       15.9990           
   28678 A    7170 TIP4 H1   HW0      0.679100        1.0080           
   28679 A    7170 TIP4 H2   HW0      0.679100        1.0080           
   28680 A    7170 TIP4 BD1  LP0     -1.358200        0.0000           
   28681 A    7171 TIP4 O1   OW0      0.000000       15.9990           
   28682 A    7171 TIP4 H1   HW0      0.679100        1.0080           
   28683 A    7171 TIP4 H2   HW0      0.679100        1.0080           
   28684 A    7171 TIP4 BD1  LP0     -1.358200        0.0000           
   28685 A    7172 TIP4 O1   OW0      0.000000       15.9990           
   28686 A    7172 TIP4 H1   HW0      0.679100        1.0080           
   28687 A    7172 TIP4 H2   HW0      0.679100        1.0080           
   28688 A    7172 TIP4 BD1  LP0     -1.358200        0.0000           
   28689 A    7173 TIP4 O1   OW0      0.000000       15.9990           
   28690 A    7173 TIP4 H1   HW0      0.679100        1.0080           
   28691 A    7173 TIP4 H2   HW0      0.679100        1.0080           
   28692 A    7173 TIP4 BD1  LP0     -1.358200        0.0000           
   28693 A    7174 TIP4 O1   OW0      0.000000       15.9990           
   28694 A    7174 TIP4 H1   HW0      0.679100        1.0080           
   28695 A    7174 TIP4 H2   HW0      0.679100        1.0080           
   28696 A    7174 TIP4 BD1  LP0     -1.358200        0.0000           
   28697 A    7175 TIP4 O1   OW0      0.000000       15.9990           
   28698 A    7175 TIP4 H1   HW0      0.679100        1.0080           
   28699 A    7175 TIP4 H2   HW0      0.679100        1.0080           
   28700 A    7175 TIP4 BD1  LP0     -1.358200        0.0000           
   28701 A    7176 TIP4 O1   OW0      0.000000       15.9990           
   28702 A    7176 TIP4 H1   HW0      0.679100        1.0080           
   28703 A    7176 TIP4 H2   HW0      0.679100        1.0080           
   28704 A    7176 TIP4 BD1  LP0     -1.358200        0.0000           
   28705 A    7177 TIP4 O1   OW0      0.000000       15.9990           
   28706 A    7177 TIP4 H1   HW0      0.679100        1.0080           
   28707 A    7177 TIP4 H2   HW0      0.679100        1.0080           
   28708 A    7177 TIP4 BD1  LP0     -1.358200        0.0000           
   28709 A    7178 TIP4 O1   OW0      0.000000       15.9990           
   28710 A    7178 TIP4 H1   HW0      0.679100        1.0080           
   28711 A    7178 TIP4 H2   HW0      0.679100        1.0080           
   28712 A    7178 TIP4 BD1  LP0     -1.358200        0.0000           
   28713 A    7179 TIP4 O1   OW0      0.000000       15.9990           
   28714 A    7179 TIP4 H1   HW0      0.679100        1.0080           
   28715 A    7179 TIP4 H2   HW0      0.679100        1.0080           
   28716 A    7179 TIP4 BD1  LP0     -1.358200        0.0000           
   28717 A    7180 TIP4 O1   OW0      0.000000       15.9990           
   28718 A    7180 TIP4 H1   HW0      0.679100        1.0080           
   28719 A    7180 TIP4 H2   HW0      0.679100        1.0080           
   28720 A    7180 TIP4 BD1  LP0     -1.358200        0.0000           
   28721 A    7181 TIP4 O1   OW0      0.000000       15.9990           
   28722 A    7181 TIP4 H1   HW0      0.679100        1.0080           
   28723 A    7181 TIP4 H2   HW0      0.679100        1.0080           
   28724 A    7181 TIP4 BD1  LP0     -1.358200        0.0000           
   28725 A    7182 TIP4 O1   OW0      0.000000       15.9990           
   28726 A    7182 TIP4 H1   HW0      0.679100        1.0080           
   28727 A    7182 TIP4 H2   HW0      0.679100        1.0080           
   28728 A    7182 TIP4 BD1  LP0     -1.358200        0.0000           
   28729 A    7183 TIP4 O1   OW0      0.000000       15.9990           
   28730 A    7183 TIP4 H1   HW0      0.679100        1.0080           
   28731 A    7183 TIP4 H2   HW0      0.679100        1.0080           
   28732 A    7183 TIP4 BD1  LP0     -1.358200        0.0000           
   28733 A    7184 TIP4 O1   OW0      0.000000       15.9990           
   28734 A    7184 TIP4 H1   HW0      0.679100        1.0080           
   28735 A    7184 TIP4 H2   HW0      0.679100        1.0080           
   28736 A    7184 TIP4 BD1  LP0     -1.358200        0.0000           
   28737 A    7185 TIP4 O1   OW0      0.000000       15.9990           
   28738 A    7185 TIP4 H1   HW0      0.679100        1.0080           
   28739 A    7185 TIP4 H2   HW0      0.679100        1.0080           
   28740 A    7185 TIP4 BD1  LP0     -1.358200        0.0000           
   28741 A    7186 TIP4 O1   OW0      0.000000       15.9990           
   28742 A    7186 TIP4 H1   HW0      0.679100        1.0080           
   28743 A    7186 TIP4 H2   HW0      0.679100        1.0080           
   28744 A    7186 TIP4 BD1  LP0     -1.358200        0.0000           
   28745 A    7187 TIP4 O1   OW0      0.000000       15.9990           
   28746 A    7187 TIP4 H1   HW0      0.679100        1.0080           
   28747 A    7187 TIP4 H2   HW0      0.679100        1.0080           
   28748 A    7187 TIP4 BD1  LP0     -1.358200        0.0000           
   28749 A    7188 TIP4 O1   OW0      0.000000       15.9990           
   28750 A    7188 TIP4 H1   HW0      0.679100        1.0080           
   28751 A    7188 TIP4 H2   HW0      0.679100        1.0080           
   28752 A    7188 TIP4 BD1  LP0     -1.358200        0.0000           
   28753 A    7189 TIP4 O1   OW0      0.000000       15.9990           
   28754 A    7189 TIP4 H1   HW0      0.679100        1.0080           
   28755 A    7189 TIP4 H2   HW0      0.679100        1.0080           
   28756 A    7189 TIP4 BD1  LP0     -1.358200        0.0000           
   28757 A    7190 TIP4 O1   OW0      0.000000       15.9990           
   28758 A    7190 TIP4 H1   HW0      0.679100        1.0080           
   28759 A    7190 TIP4 H2   HW0      0.679100        1.0080           
   28760 A    7190 TIP4 BD1  LP0     -1.358200        0.0000           
   28761 A    7191 TIP4 O1   OW0      0.000000       15.9990           
   28762 A    7191 TIP4 H1   HW0      0.679100        1.0080           
   28763 A    7191 TIP4 H2   HW0      0.679100        1.0080           
   28764 A    7191 TIP4 BD1  LP0     -1.358200        0.0000           
   28765 A    7192 TIP4 O1   OW0      0.000000       15.9990           
   28766 A    7192 TIP4 H1   HW0      0.679100        1.0080           
   28767 A    7192 TIP4 H2   HW0      0.679100        1.0080           
   28768 A    7192 TIP4 BD1  LP0     -1.358200        0.0000           
   28769 A    7193 TIP4 O1   OW0      0.000000       15.9990           
   28770 A    7193 TIP4 H1   HW0      0.679100        1.0080           
   28771 A    7193 TIP4 H2   HW0      0.679100        1.0080           
   28772 A    7193 TIP4 BD1  LP0     -1.358200        0.0000           
   28773 A    7194 TIP4 O1   OW0      0.000000       15.9990           
   28774 A    7194 TIP4 H1   HW0      0.679100        1.0080           
   28775 A    7194 TIP4 H2   HW0      0.679100        1.0080           
   28776 A    7194 TIP4 BD1  LP0     -1.358200        0.0000           
   28777 A    7195 TIP4 O1   OW0      0.000000       15.9990           
   28778 A    7195 TIP4 H1   HW0      0.679100        1.0080           
   28779 A    7195 TIP4 H2   HW0      0.679100        1.0080           
   28780 A    7195 TIP4 BD1  LP0     -1.358200        0.0000           
   28781 A    7196 TIP4 O1   OW0      0.000000       15.9990           
   28782 A    7196 TIP4 H1   HW0      0.679100        1.0080           
   28783 A    7196 TIP4 H2   HW0      0.679100        1.0080           
   28784 A    7196 TIP4 BD1  LP0     -1.358200        0.0000           
   28785 A    7197 TIP4 O1   OW0      0.000000       15.9990           
   28786 A    7197 TIP4 H1   HW0      0.679100        1.0080           
   28787 A    7197 TIP4 H2   HW0      0.679100        1.0080           
   28788 A    7197 TIP4 BD1  LP0     -1.358200        0.0000           
   28789 A    7198 TIP4 O1   OW0      0.000000       15.9990           
   28790 A    7198 TIP4 H1   HW0      0.679100        1.0080           
   28791 A    7198 TIP4 H2   HW0      0.679100        1.0080           
   28792 A    7198 TIP4 BD1  LP0     -1.358200        0.0000           
   28793 A    7199 TIP4 O1   OW0      0.000000       15.9990           
   28794 A    7199 TIP4 H1   HW0      0.679100        1.0080           
   28795 A    7199 TIP4 H2   HW0      0.679100        1.0080           
   28796 A    7199 TIP4 BD1  LP0     -1.358200        0.0000           
   28797 A    7200 TIP4 O1   OW0      0.000000       15.9990           
   28798 A    7200 TIP4 H1   HW0      0.679100        1.0080           
   28799 A    7200 TIP4 H2   HW0      0.679100        1.0080           
   28800 A    7200 TIP4 BD1  LP0     -1.358200        0.0000           
   28801 A    7201 TIP4 O1   OW0      0.000000       15.9990           
   28802 A    7201 TIP4 H1   HW0      0.679100        1.0080           
   28803 A    7201 TIP4 H2   HW0      0.679100        1.0080           
   28804 A    7201 TIP4 BD1  LP0     -1.358200        0.0000           
   28805 A    7202 TIP4 O1   OW0      0.000000       15.9990           
   28806 A    7202 TIP4 H1   HW0      0.679100        1.0080           
   28807 A    7202 TIP4 H2   HW0      0.679100        1.0080           
   28808 A    7202 TIP4 BD1  LP0     -1.358200        0.0000           
   28809 A    7203 TIP4 O1   OW0      0.000000       15.9990           
   28810 A    7203 TIP4 H1   HW0      0.679100        1.0080           
   28811 A    7203 TIP4 H2   HW0      0.679100        1.0080           
   28812 A    7203 TIP4 BD1  LP0     -1.358200        0.0000           
   28813 A    7204 TIP4 O1   OW0      0.000000       15.9990           
   28814 A    7204 TIP4 H1   HW0      0.679100        1.0080           
   28815 A    7204 TIP4 H2   HW0      0.679100        1.0080           
   28816 A    7204 TIP4 BD1  LP0     -1.358200        0.0000           
   28817 A    7205 TIP4 O1   OW0      0.000000       15.9990           
   28818 A    7205 TIP4 H1   HW0      0.679100        1.0080           
   28819 A    7205 TIP4 H2   HW0      0.679100        1.0080           
   28820 A    7205 TIP4 BD1  LP0     -1.358200        0.0000           
   28821 A    7206 TIP4 O1   OW0      0.000000       15.9990           
   28822 A    7206 TIP4 H1   HW0      0.679100        1.0080           
   28823 A    7206 TIP4 H2   HW0      0.679100        1.0080           
   28824 A    7206 TIP4 BD1  LP0     -1.358200        0.0000           
   28825 A    7207 TIP4 O1   OW0      0.000000       15.9990           
   28826 A    7207 TIP4 H1   HW0      0.679100        1.0080           
   28827 A    7207 TIP4 H2   HW0      0.679100        1.0080           
   28828 A    7207 TIP4 BD1  LP0     -1.358200        0.0000           
   28829 A    7208 TIP4 O1   OW0      0.000000       15.9990           
   28830 A    7208 TIP4 H1   HW0      0.679100        1.0080           
   28831 A    7208 TIP4 H2   HW0      0.679100        1.0080           
   28832 A    7208 TIP4 BD1  LP0     -1.358200        0.0000           
   28833 A    7209 TIP4 O1   OW0      0.000000       15.9990           
   28834 A    7209 TIP4 H1   HW0      0.679100        1.0080           
   28835 A    7209 TIP4 H2   HW0      0.679100        1.0080           
   28836 A    7209 TIP4 BD1  LP0     -1.358200        0.0000           
   28837 A    7210 TIP4 O1   OW0      0.000000       15.9990           
   28838 A    7210 TIP4 H1   HW0      0.679100        1.0080           
   28839 A    7210 TIP4 H2   HW0      0.679100        1.0080           
   28840 A    7210 TIP4 BD1  LP0     -1.358200        0.0000           
   28841 A    7211 TIP4 O1   OW0      0.000000       15.9990           
   28842 A    7211 TIP4 H1   HW0      0.679100        1.0080           
   28843 A    7211 TIP4 H2   HW0      0.679100        1.0080           
   28844 A    7211 TIP4 BD1  LP0     -1.358200        0.0000           
   28845 A    7212 TIP4 O1   OW0      0.000000       15.9990           
   28846 A    7212 TIP4 H1   HW0      0.679100        1.0080           
   28847 A    7212 TIP4 H2   HW0      0.679100        1.0080           
   28848 A    7212 TIP4 BD1  LP0     -1.358200        0.0000           
   28849 A    7213 TIP4 O1   OW0      0.000000       15.9990           
   28850 A    7213 TIP4 H1   HW0      0.679100        1.0080           
   28851 A    7213 TIP4 H2   HW0      0.679100        1.0080           
   28852 A    7213 TIP4 BD1  LP0     -1.358200        0.0000           
   28853 A    7214 TIP4 O1   OW0      0.000000       15.9990           
   28854 A    7214 TIP4 H1   HW0      0.679100        1.0080           
   28855 A    7214 TIP4 H2   HW0      0.679100        1.0080           
   28856 A    7214 TIP4 BD1  LP0     -1.358200        0.0000           
   28857 A    7215 TIP4 O1   OW0      0.000000       15.9990           
   28858 A    7215 TIP4 H1   HW0      0.679100        1.0080           
   28859 A    7215 TIP4 H2   HW0      0.679100        1.0080           
   28860 A    7215 TIP4 BD1  LP0     -1.358200        0.0000           
   28861 A    7216 TIP4 O1   OW0      0.000000       15.9990           
   28862 A    7216 TIP4 H1   HW0      0.679100        1.0080           
   28863 A    7216 TIP4 H2   HW0      0.679100        1.0080           
   28864 A    7216 TIP4 BD1  LP0     -1.358200        0.0000           
   28865 A    7217 TIP4 O1   OW0      0.000000       15.9990           
   28866 A    7217 TIP4 H1   HW0      0.679100        1.0080           
   28867 A    7217 TIP4 H2   HW0      0.679100        1.0080           
   28868 A    7217 TIP4 BD1  LP0     -1.358200        0.0000           
   28869 A    7218 TIP4 O1   OW0      0.000000       15.9990           
   28870 A    7218 TIP4 H1   HW0      0.679100        1.0080           
   28871 A    7218 TIP4 H2   HW0      0.679100        1.0080           
   28872 A    7218 TIP4 BD1  LP0     -1.358200        0.0000           
   28873 A    7219 TIP4 O1   OW0      0.000000       15.9990           
   28874 A    7219 TIP4 H1   HW0      0.679100        1.0080           
   28875 A    7219 TIP4 H2   HW0      0.679100        1.0080           
   28876 A    7219 TIP4 BD1  LP0     -1.358200        0.0000           
   28877 A    7220 TIP4 O1   OW0      0.000000       15.9990           
   28878 A    7220 TIP4 H1   HW0      0.679100        1.0080           
   28879 A    7220 TIP4 H2   HW0      0.679100        1.0080           
   28880 A    7220 TIP4 BD1  LP0     -1.358200        0.0000           
   28881 A    7221 TIP4 O1   OW0      0.000000       15.9990           
   28882 A    7221 TIP4 H1   HW0      0.679100        1.0080           
   28883 A    7221 TIP4 H2   HW0      0.679100        1.0080           
   28884 A    7221 TIP4 BD1  LP0     -1.358200        0.0000           
   28885 A    7222 TIP4 O1   OW0      0.000000       15.9990           
   28886 A    7222 TIP4 H1   HW0      0.679100        1.0080           
   28887 A    7222 TIP4 H2   HW0      0.679100        1.0080           
   28888 A    7222 TIP4 BD1  LP0     -1.358200        0.0000           
   28889 A    7223 TIP4 O1   OW0      0.000000       15.9990           
   28890 A    7223 TIP4 H1   HW0      0.679100        1.0080           
   28891 A    7223 TIP4 H2   HW0      0.679100        1.0080           
   28892 A    7223 TIP4 BD1  LP0     -1.358200        0.0000           
   28893 A    7224 TIP4 O1   OW0      0.000000       15.9990           
   28894 A    7224 TIP4 H1   HW0      0.679100        1.0080           
   28895 A    7224 TIP4 H2   HW0      0.679100        1.0080           
   28896 A    7224 TIP4 BD1  LP0     -1.358200        0.0000           
   28897 A    7225 TIP4 O1   OW0      0.000000       15.9990           
   28898 A    7225 TIP4 H1   HW0      0.679100        1.0080           
   28899 A    7225 TIP4 H2   HW0      0.679100        1.0080           
   28900 A    7225 TIP4 BD1  LP0     -1.358200        0.0000           
   28901 A    7226 TIP4 O1   OW0      0.000000       15.9990           
   28902 A    7226 TIP4 H1   HW0      0.679100        1.0080           
   28903 A    7226 TIP4 H2   HW0      0.679100        1.0080           
   28904 A    7226 TIP4 BD1  LP0     -1.358200        0.0000           
   28905 A    7227 TIP4 O1   OW0      0.000000       15.9990           
   28906 A    7227 TIP4 H1   HW0      0.679100        1.0080           
   28907 A    7227 TIP4 H2   HW0      0.679100        1.0080           
   28908 A    7227 TIP4 BD1  LP0     -1.358200        0.0000           
   28909 A    7228 TIP4 O1   OW0      0.000000       15.9990           
   28910 A    7228 TIP4 H1   HW0      0.679100        1.0080           
   28911 A    7228 TIP4 H2   HW0      0.679100        1.0080           
   28912 A    7228 TIP4 BD1  LP0     -1.358200        0.0000           
   28913 A    7229 TIP4 O1   OW0      0.000000       15.9990           
   28914 A    7229 TIP4 H1   HW0      0.679100        1.0080           
   28915 A    7229 TIP4 H2   HW0      0.679100        1.0080           
   28916 A    7229 TIP4 BD1  LP0     -1.358200        0.0000           
   28917 A    7230 TIP4 O1   OW0      0.000000       15.9990           
   28918 A    7230 TIP4 H1   HW0      0.679100        1.0080           
   28919 A    7230 TIP4 H2   HW0      0.679100        1.0080           
   28920 A    7230 TIP4 BD1  LP0     -1.358200        0.0000           
   28921 A    7231 TIP4 O1   OW0      0.000000       15.9990           
   28922 A    7231 TIP4 H1   HW0      0.679100        1.0080           
   28923 A    7231 TIP4 H2   HW0      0.679100        1.0080           
   28924 A    7231 TIP4 BD1  LP0     -1.358200        0.0000           
   28925 A    7232 TIP4 O1   OW0      0.000000       15.9990           
   28926 A    7232 TIP4 H1   HW0      0.679100        1.0080           
   28927 A    7232 TIP4 H2   HW0      0.679100        1.0080           
   28928 A    7232 TIP4 BD1  LP0     -1.358200        0.0000           
   28929 A    7233 TIP4 O1   OW0      0.000000       15.9990           
   28930 A    7233 TIP4 H1   HW0      0.679100        1.0080           
   28931 A    7233 TIP4 H2   HW0      0.679100        1.0080           
   28932 A    7233 TIP4 BD1  LP0     -1.358200        0.0000           
   28933 A    7234 TIP4 O1   OW0      0.000000       15.9990           
   28934 A    7234 TIP4 H1   HW0      0.679100        1.0080           
   28935 A    7234 TIP4 H2   HW0      0.679100        1.0080           
   28936 A    7234 TIP4 BD1  LP0     -1.358200        0.0000           
   28937 A    7235 TIP4 O1   OW0      0.000000       15.9990           
   28938 A    7235 TIP4 H1   HW0      0.679100        1.0080           
   28939 A    7235 TIP4 H2   HW0      0.679100        1.0080           
   28940 A    7235 TIP4 BD1  LP0     -1.358200        0.0000           
   28941 A    7236 TIP4 O1   OW0      0.000000       15.9990           
   28942 A    7236 TIP4 H1   HW0      0.679100        1.0080           
   28943 A    7236 TIP4 H2   HW0      0.679100        1.0080           
   28944 A    7236 TIP4 BD1  LP0     -1.358200        0.0000           
   28945 A    7237 TIP4 O1   OW0      0.000000       15.9990           
   28946 A    7237 TIP4 H1   HW0      0.679100        1.0080           
   28947 A    7237 TIP4 H2   HW0      0.679100        1.0080           
   28948 A    7237 TIP4 BD1  LP0     -1.358200        0.0000           
   28949 A    7238 TIP4 O1   OW0      0.000000       15.9990           
   28950 A    7238 TIP4 H1   HW0      0.679100        1.0080           
   28951 A    7238 TIP4 H2   HW0      0.679100        1.0080           
   28952 A    7238 TIP4 BD1  LP0     -1.358200        0.0000           
   28953 A    7239 TIP4 O1   OW0      0.000000       15.9990           
   28954 A    7239 TIP4 H1   HW0      0.679100        1.0080           
   28955 A    7239 TIP4 H2   HW0      0.679100        1.0080           
   28956 A    7239 TIP4 BD1  LP0     -1.358200        0.0000           
   28957 A    7240 TIP4 O1   OW0      0.000000       15.9990           
   28958 A    7240 TIP4 H1   HW0      0.679100        1.0080           
   28959 A    7240 TIP4 H2   HW0      0.679100        1.0080           
   28960 A    7240 TIP4 BD1  LP0     -1.358200        0.0000           
   28961 A    7241 TIP4 O1   OW0      0.000000       15.9990           
   28962 A    7241 TIP4 H1   HW0      0.679100        1.0080           
   28963 A    7241 TIP4 H2   HW0      0.679100        1.0080           
   28964 A    7241 TIP4 BD1  LP0     -1.358200        0.0000           
   28965 A    7242 TIP4 O1   OW0      0.000000       15.9990           
   28966 A    7242 TIP4 H1   HW0      0.679100        1.0080           
   28967 A    7242 TIP4 H2   HW0      0.679100        1.0080           
   28968 A    7242 TIP4 BD1  LP0     -1.358200        0.0000           
   28969 A    7243 TIP4 O1   OW0      0.000000       15.9990           
   28970 A    7243 TIP4 H1   HW0      0.679100        1.0080           
   28971 A    7243 TIP4 H2   HW0      0.679100        1.0080           
   28972 A    7243 TIP4 BD1  LP0     -1.358200        0.0000           
   28973 A    7244 TIP4 O1   OW0      0.000000       15.9990           
   28974 A    7244 TIP4 H1   HW0      0.679100        1.0080           
   28975 A    7244 TIP4 H2   HW0      0.679100        1.0080           
   28976 A    7244 TIP4 BD1  LP0     -1.358200        0.0000           
   28977 A    7245 TIP4 O1   OW0      0.000000       15.9990           
   28978 A    7245 TIP4 H1   HW0      0.679100        1.0080           
   28979 A    7245 TIP4 H2   HW0      0.679100        1.0080           
   28980 A    7245 TIP4 BD1  LP0     -1.358200        0.0000           
   28981 A    7246 TIP4 O1   OW0      0.000000       15.9990           
   28982 A    7246 TIP4 H1   HW0      0.679100        1.0080           
   28983 A    7246 TIP4 H2   HW0      0.679100        1.0080           
   28984 A    7246 TIP4 BD1  LP0     -1.358200        0.0000           
   28985 A    7247 TIP4 O1   OW0      0.000000       15.9990           
   28986 A    7247 TIP4 H1   HW0      0.679100        1.0080           
   28987 A    7247 TIP4 H2   HW0      0.679100        1.0080           
   28988 A    7247 TIP4 BD1  LP0     -1.358200        0.0000           
   28989 A    7248 TIP4 O1   OW0      0.000000       15.9990           
   28990 A    7248 TIP4 H1   HW0      0.679100        1.0080           
   28991 A    7248 TIP4 H2   HW0      0.679100        1.0080           
   28992 A    7248 TIP4 BD1  LP0     -1.358200        0.0000           
   28993 A    7249 TIP4 O1   OW0      0.000000       15.9990           
   28994 A    7249 TIP4 H1   HW0      0.679100        1.0080           
   28995 A    7249 TIP4 H2   HW0      0.679100        1.0080           
   28996 A    7249 TIP4 BD1  LP0     -1.358200        0.0000           
   28997 A    7250 TIP4 O1   OW0      0.000000       15.9990           
   28998 A    7250 TIP4 H1   HW0      0.679100        1.0080           
   28999 A    7250 TIP4 H2   HW0      0.679100        1.0080           
   29000 A    7250 TIP4 BD1  LP0     -1.358200        0.0000           
   29001 A    7251 TIP4 O1   OW0      0.000000       15.9990           
   29002 A    7251 TIP4 H1   HW0      0.679100        1.0080           
   29003 A    7251 TIP4 H2   HW0      0.679100        1.0080           
   29004 A    7251 TIP4 BD1  LP0     -1.358200        0.0000           
   29005 A    7252 TIP4 O1   OW0      0.000000       15.9990           
   29006 A    7252 TIP4 H1   HW0      0.679100        1.0080           
   29007 A    7252 TIP4 H2   HW0      0.679100        1.0080           
   29008 A    7252 TIP4 BD1  LP0     -1.358200        0.0000           
   29009 A    7253 TIP4 O1   OW0      0.000000       15.9990           
   29010 A    7253 TIP4 H1   HW0      0.679100        1.0080           
   29011 A    7253 TIP4 H2   HW0      0.679100        1.0080           
   29012 A    7253 TIP4 BD1  LP0     -1.358200        0.0000           
   29013 A    7254 TIP4 O1   OW0      0.000000       15.9990           
   29014 A    7254 TIP4 H1   HW0      0.679100        1.0080           
   29015 A    7254 TIP4 H2   HW0      0.679100        1.0080           
   29016 A    7254 TIP4 BD1  LP0     -1.358200        0.0000           
   29017 A    7255 TIP4 O1   OW0      0.000000       15.9990           
   29018 A    7255 TIP4 H1   HW0      0.679100        1.0080           
   29019 A    7255 TIP4 H2   HW0      0.679100        1.0080           
   29020 A    7255 TIP4 BD1  LP0     -1.358200        0.0000           
   29021 A    7256 TIP4 O1   OW0      0.000000       15.9990           
   29022 A    7256 TIP4 H1   HW0      0.679100        1.0080           
   29023 A    7256 TIP4 H2   HW0      0.679100        1.0080           
   29024 A    7256 TIP4 BD1  LP0     -1.358200        0.0000           
   29025 A    7257 TIP4 O1   OW0      0.000000       15.9990           
   29026 A    7257 TIP4 H1   HW0      0.679100        1.0080           
   29027 A    7257 TIP4 H2   HW0      0.679100        1.0080           
   29028 A    7257 TIP4 BD1  LP0     -1.358200        0.0000           
   29029 A    7258 TIP4 O1   OW0      0.000000       15.9990           
   29030 A    7258 TIP4 H1   HW0      0.679100        1.0080           
   29031 A    7258 TIP4 H2   HW0      0.679100        1.0080           
   29032 A    7258 TIP4 BD1  LP0     -1.358200        0.0000           
   29033 A    7259 TIP4 O1   OW0      0.000000       15.9990           
   29034 A    7259 TIP4 H1   HW0      0.679100        1.0080           
   29035 A    7259 TIP4 H2   HW0      0.679100        1.0080           
   29036 A    7259 TIP4 BD1  LP0     -1.358200        0.0000           
   29037 A    7260 TIP4 O1   OW0      0.000000       15.9990           
   29038 A    7260 TIP4 H1   HW0      0.679100        1.0080           
   29039 A    7260 TIP4 H2   HW0      0.679100        1.0080           
   29040 A    7260 TIP4 BD1  LP0     -1.358200        0.0000           
   29041 A    7261 TIP4 O1   OW0      0.000000       15.9990           
   29042 A    7261 TIP4 H1   HW0      0.679100        1.0080           
   29043 A    7261 TIP4 H2   HW0      0.679100        1.0080           
   29044 A    7261 TIP4 BD1  LP0     -1.358200        0.0000           
   29045 A    7262 TIP4 O1   OW0      0.000000       15.9990           
   29046 A    7262 TIP4 H1   HW0      0.679100        1.0080           
   29047 A    7262 TIP4 H2   HW0      0.679100        1.0080           
   29048 A    7262 TIP4 BD1  LP0     -1.358200        0.0000           
   29049 A    7263 TIP4 O1   OW0      0.000000       15.9990           
   29050 A    7263 TIP4 H1   HW0      0.679100        1.0080           
   29051 A    7263 TIP4 H2   HW0      0.679100        1.0080           
   29052 A    7263 TIP4 BD1  LP0     -1.358200        0.0000           
   29053 A    7264 TIP4 O1   OW0      0.000000       15.9990           
   29054 A    7264 TIP4 H1   HW0      0.679100        1.0080           
   29055 A    7264 TIP4 H2   HW0      0.679100        1.0080           
   29056 A    7264 TIP4 BD1  LP0     -1.358200        0.0000           
   29057 A    7265 TIP4 O1   OW0      0.000000       15.9990           
   29058 A    7265 TIP4 H1   HW0      0.679100        1.0080           
   29059 A    7265 TIP4 H2   HW0      0.679100        1.0080           
   29060 A    7265 TIP4 BD1  LP0     -1.358200        0.0000           
   29061 A    7266 TIP4 O1   OW0      0.000000       15.9990           
   29062 A    7266 TIP4 H1   HW0      0.679100        1.0080           
   29063 A    7266 TIP4 H2   HW0      0.679100        1.0080           
   29064 A    7266 TIP4 BD1  LP0     -1.358200        0.0000           
   29065 A    7267 TIP4 O1   OW0      0.000000       15.9990           
   29066 A    7267 TIP4 H1   HW0      0.679100        1.0080           
   29067 A    7267 TIP4 H2   HW0      0.679100        1.0080           
   29068 A    7267 TIP4 BD1  LP0     -1.358200        0.0000           
   29069 A    7268 TIP4 O1   OW0      0.000000       15.9990           
   29070 A    7268 TIP4 H1   HW0      0.679100        1.0080           
   29071 A    7268 TIP4 H2   HW0      0.679100        1.0080           
   29072 A    7268 TIP4 BD1  LP0     -1.358200        0.0000           
   29073 A    7269 TIP4 O1   OW0      0.000000       15.9990           
   29074 A    7269 TIP4 H1   HW0      0.679100        1.0080           
   29075 A    7269 TIP4 H2   HW0      0.679100        1.0080           
   29076 A    7269 TIP4 BD1  LP0     -1.358200        0.0000           
   29077 A    7270 TIP4 O1   OW0      0.000000       15.9990           
   29078 A    7270 TIP4 H1   HW0      0.679100        1.0080           
   29079 A    7270 TIP4 H2   HW0      0.679100        1.0080           
   29080 A    7270 TIP4 BD1  LP0     -1.358200        0.0000           
   29081 A    7271 TIP4 O1   OW0      0.000000       15.9990           
   29082 A    7271 TIP4 H1   HW0      0.679100        1.0080           
   29083 A    7271 TIP4 H2   HW0      0.679100        1.0080           
   29084 A    7271 TIP4 BD1  LP0     -1.358200        0.0000           
   29085 A    7272 TIP4 O1   OW0      0.000000       15.9990           
   29086 A    7272 TIP4 H1   HW0      0.679100        1.0080           
   29087 A    7272 TIP4 H2   HW0      0.679100        1.0080           
   29088 A    7272 TIP4 BD1  LP0     -1.358200        0.0000           
   29089 A    7273 TIP4 O1   OW0      0.000000       15.9990           
   29090 A    7273 TIP4 H1   HW0      0.679100        1.0080           
   29091 A    7273 TIP4 H2   HW0      0.679100        1.0080           
   29092 A    7273 TIP4 BD1  LP0     -1.358200        0.0000           
   29093 A    7274 TIP4 O1   OW0      0.000000       15.9990           
   29094 A    7274 TIP4 H1   HW0      0.679100        1.0080           
   29095 A    7274 TIP4 H2   HW0      0.679100        1.0080           
   29096 A    7274 TIP4 BD1  LP0     -1.358200        0.0000           
   29097 A    7275 TIP4 O1   OW0      0.000000       15.9990           
   29098 A    7275 TIP4 H1   HW0      0.679100        1.0080           
   29099 A    7275 TIP4 H2   HW0      0.679100        1.0080           
   29100 A    7275 TIP4 BD1  LP0     -1.358200        0.0000           
   29101 A    7276 TIP4 O1   OW0      0.000000       15.9990           
   29102 A    7276 TIP4 H1   HW0      0.679100        1.0080           
   29103 A    7276 TIP4 H2   HW0      0.679100        1.0080           
   29104 A    7276 TIP4 BD1  LP0     -1.358200        0.0000           
   29105 A    7277 TIP4 O1   OW0      0.000000       15.9990           
   29106 A    7277 TIP4 H1   HW0      0.679100        1.0080           
   29107 A    7277 TIP4 H2   HW0      0.679100        1.0080           
   29108 A    7277 TIP4 BD1  LP0     -1.358200        0.0000           
   29109 A    7278 TIP4 O1   OW0      0.000000       15.9990           
   29110 A    7278 TIP4 H1   HW0      0.679100        1.0080           
   29111 A    7278 TIP4 H2   HW0      0.679100        1.0080           
   29112 A    7278 TIP4 BD1  LP0     -1.358200        0.0000           
   29113 A    7279 TIP4 O1   OW0      0.000000       15.9990           
   29114 A    7279 TIP4 H1   HW0      0.679100        1.0080           
   29115 A    7279 TIP4 H2   HW0      0.679100        1.0080           
   29116 A    7279 TIP4 BD1  LP0     -1.358200        0.0000           
   29117 A    7280 TIP4 O1   OW0      0.000000       15.9990           
   29118 A    7280 TIP4 H1   HW0      0.679100        1.0080           
   29119 A    7280 TIP4 H2   HW0      0.679100        1.0080           
   29120 A    7280 TIP4 BD1  LP0     -1.358200        0.0000           
   29121 A    7281 TIP4 O1   OW0      0.000000       15.9990           
   29122 A    7281 TIP4 H1   HW0      0.679100        1.0080           
   29123 A    7281 TIP4 H2   HW0      0.679100        1.0080           
   29124 A    7281 TIP4 BD1  LP0     -1.358200        0.0000           
   29125 A    7282 TIP4 O1   OW0      0.000000       15.9990           
   29126 A    7282 TIP4 H1   HW0      0.679100        1.0080           
   29127 A    7282 TIP4 H2   HW0      0.679100        1.0080           
   29128 A    7282 TIP4 BD1  LP0     -1.358200        0.0000           
   29129 A    7283 TIP4 O1   OW0      0.000000       15.9990           
   29130 A    7283 TIP4 H1   HW0      0.679100        1.0080           
   29131 A    7283 TIP4 H2   HW0      0.679100        1.0080           
   29132 A    7283 TIP4 BD1  LP0     -1.358200        0.0000           
   29133 A    7284 TIP4 O1   OW0      0.000000       15.9990           
   29134 A    7284 TIP4 H1   HW0      0.679100        1.0080           
   29135 A    7284 TIP4 H2   HW0      0.679100        1.0080           
   29136 A    7284 TIP4 BD1  LP0     -1.358200        0.0000           
   29137 A    7285 TIP4 O1   OW0      0.000000       15.9990           
   29138 A    7285 TIP4 H1   HW0      0.679100        1.0080           
   29139 A    7285 TIP4 H2   HW0      0.679100        1.0080           
   29140 A    7285 TIP4 BD1  LP0     -1.358200        0.0000           
   29141 A    7286 TIP4 O1   OW0      0.000000       15.9990           
   29142 A    7286 TIP4 H1   HW0      0.679100        1.0080           
   29143 A    7286 TIP4 H2   HW0      0.679100        1.0080           
   29144 A    7286 TIP4 BD1  LP0     -1.358200        0.0000           
   29145 A    7287 TIP4 O1   OW0      0.000000       15.9990           
   29146 A    7287 TIP4 H1   HW0      0.679100        1.0080           
   29147 A    7287 TIP4 H2   HW0      0.679100        1.0080           
   29148 A    7287 TIP4 BD1  LP0     -1.358200        0.0000           
   29149 A    7288 TIP4 O1   OW0      0.000000       15.9990           
   29150 A    7288 TIP4 H1   HW0      0.679100        1.0080           
   29151 A    7288 TIP4 H2   HW0      0.679100        1.0080           
   29152 A    7288 TIP4 BD1  LP0     -1.358200        0.0000           
   29153 A    7289 TIP4 O1   OW0      0.000000       15.9990           
   29154 A    7289 TIP4 H1   HW0      0.679100        1.0080           
   29155 A    7289 TIP4 H2   HW0      0.679100        1.0080           
   29156 A    7289 TIP4 BD1  LP0     -1.358200        0.0000           
   29157 A    7290 TIP4 O1   OW0      0.000000       15.9990           
   29158 A    7290 TIP4 H1   HW0      0.679100        1.0080           
   29159 A    7290 TIP4 H2   HW0      0.679100        1.0080           
   29160 A    7290 TIP4 BD1  LP0     -1.358200        0.0000           
   29161 A    7291 TIP4 O1   OW0      0.000000       15.9990           
   29162 A    7291 TIP4 H1   HW0      0.679100        1.0080           
   29163 A    7291 TIP4 H2   HW0      0.679100        1.0080           
   29164 A    7291 TIP4 BD1  LP0     -1.358200        0.0000           
   29165 A    7292 TIP4 O1   OW0      0.000000       15.9990           
   29166 A    7292 TIP4 H1   HW0      0.679100        1.0080           
   29167 A    7292 TIP4 H2   HW0      0.679100        1.0080           
   29168 A    7292 TIP4 BD1  LP0     -1.358200        0.0000           
   29169 A    7293 TIP4 O1   OW0      0.000000       15.9990           
   29170 A    7293 TIP4 H1   HW0      0.679100        1.0080           
   29171 A    7293 TIP4 H2   HW0      0.679100        1.0080           
   29172 A    7293 TIP4 BD1  LP0     -1.358200        0.0000           
   29173 A    7294 TIP4 O1   OW0      0.000000       15.9990           
   29174 A    7294 TIP4 H1   HW0      0.679100        1.0080           
   29175 A    7294 TIP4 H2   HW0      0.679100        1.0080           
   29176 A    7294 TIP4 BD1  LP0     -1.358200        0.0000           
   29177 A    7295 TIP4 O1   OW0      0.000000       15.9990           
   29178 A    7295 TIP4 H1   HW0      0.679100        1.0080           
   29179 A    7295 TIP4 H2   HW0      0.679100        1.0080           
   29180 A    7295 TIP4 BD1  LP0     -1.358200        0.0000           
   29181 A    7296 TIP4 O1   OW0      0.000000       15.9990           
   29182 A    7296 TIP4 H1   HW0      0.679100        1.0080           
   29183 A    7296 TIP4 H2   HW0      0.679100        1.0080           
   29184 A    7296 TIP4 BD1  LP0     -1.358200        0.0000           
   29185 A    7297 TIP4 O1   OW0      0.000000       15.9990           
   29186 A    7297 TIP4 H1   HW0      0.679100        1.0080           
   29187 A    7297 TIP4 H2   HW0      0.679100        1.0080           
   29188 A    7297 TIP4 BD1  LP0     -1.358200        0.0000           
   29189 A    7298 TIP4 O1   OW0      0.000000       15.9990           
   29190 A    7298 TIP4 H1   HW0      0.679100        1.0080           
   29191 A    7298 TIP4 H2   HW0      0.679100        1.0080           
   29192 A    7298 TIP4 BD1  LP0     -1.358200        0.0000           
   29193 A    7299 TIP4 O1   OW0      0.000000       15.9990           
   29194 A    7299 TIP4 H1   HW0      0.679100        1.0080           
   29195 A    7299 TIP4 H2   HW0      0.679100        1.0080           
   29196 A    7299 TIP4 BD1  LP0     -1.358200        0.0000           
   29197 A    7300 TIP4 O1   OW0      0.000000       15.9990           
   29198 A    7300 TIP4 H1   HW0      0.679100        1.0080           
   29199 A    7300 TIP4 H2   HW0      0.679100        1.0080           
   29200 A    7300 TIP4 BD1  LP0     -1.358200        0.0000           
   29201 A    7301 TIP4 O1   OW0      0.000000       15.9990           
   29202 A    7301 TIP4 H1   HW0      0.679100        1.0080           
   29203 A    7301 TIP4 H2   HW0      0.679100        1.0080           
   29204 A    7301 TIP4 BD1  LP0     -1.358200        0.0000           
   29205 A    7302 TIP4 O1   OW0      0.000000       15.9990           
   29206 A    7302 TIP4 H1   HW0      0.679100        1.0080           
   29207 A    7302 TIP4 H2   HW0      0.679100        1.0080           
   29208 A    7302 TIP4 BD1  LP0     -1.358200        0.0000           
   29209 A    7303 TIP4 O1   OW0      0.000000       15.9990           
   29210 A    7303 TIP4 H1   HW0      0.679100        1.0080           
   29211 A    7303 TIP4 H2   HW0      0.679100        1.0080           
   29212 A    7303 TIP4 BD1  LP0     -1.358200        0.0000           
   29213 A    7304 TIP4 O1   OW0      0.000000       15.9990           
   29214 A    7304 TIP4 H1   HW0      0.679100        1.0080           
   29215 A    7304 TIP4 H2   HW0      0.679100        1.0080           
   29216 A    7304 TIP4 BD1  LP0     -1.358200        0.0000           
   29217 A    7305 TIP4 O1   OW0      0.000000       15.9990           
   29218 A    7305 TIP4 H1   HW0      0.679100        1.0080           
   29219 A    7305 TIP4 H2   HW0      0.679100        1.0080           
   29220 A    7305 TIP4 BD1  LP0     -1.358200        0.0000           
   29221 A    7306 TIP4 O1   OW0      0.000000       15.9990           
   29222 A    7306 TIP4 H1   HW0      0.679100        1.0080           
   29223 A    7306 TIP4 H2   HW0      0.679100        1.0080           
   29224 A    7306 TIP4 BD1  LP0     -1.358200        0.0000           
   29225 A    7307 TIP4 O1   OW0      0.000000       15.9990           
   29226 A    7307 TIP4 H1   HW0      0.679100        1.0080           
   29227 A    7307 TIP4 H2   HW0      0.679100        1.0080           
   29228 A    7307 TIP4 BD1  LP0     -1.358200        0.0000           
   29229 A    7308 TIP4 O1   OW0      0.000000       15.9990           
   29230 A    7308 TIP4 H1   HW0      0.679100        1.0080           
   29231 A    7308 TIP4 H2   HW0      0.679100        1.0080           
   29232 A    7308 TIP4 BD1  LP0     -1.358200        0.0000           
   29233 A    7309 TIP4 O1   OW0      0.000000       15.9990           
   29234 A    7309 TIP4 H1   HW0      0.679100        1.0080           
   29235 A    7309 TIP4 H2   HW0      0.679100        1.0080           
   29236 A    7309 TIP4 BD1  LP0     -1.358200        0.0000           
   29237 A    7310 TIP4 O1   OW0      0.000000       15.9990           
   29238 A    7310 TIP4 H1   HW0      0.679100        1.0080           
   29239 A    7310 TIP4 H2   HW0      0.679100        1.0080           
   29240 A    7310 TIP4 BD1  LP0     -1.358200        0.0000           
   29241 A    7311 TIP4 O1   OW0      0.000000       15.9990           
   29242 A    7311 TIP4 H1   HW0      0.679100        1.0080           
   29243 A    7311 TIP4 H2   HW0      0.679100        1.0080           
   29244 A    7311 TIP4 BD1  LP0     -1.358200        0.0000           
   29245 A    7312 TIP4 O1   OW0      0.000000       15.9990           
   29246 A    7312 TIP4 H1   HW0      0.679100        1.0080           
   29247 A    7312 TIP4 H2   HW0      0.679100        1.0080           
   29248 A    7312 TIP4 BD1  LP0     -1.358200        0.0000           
   29249 A    7313 TIP4 O1   OW0      0.000000       15.9990           
   29250 A    7313 TIP4 H1   HW0      0.679100        1.0080           
   29251 A    7313 TIP4 H2   HW0      0.679100        1.0080           
   29252 A    7313 TIP4 BD1  LP0     -1.358200        0.0000           
   29253 A    7314 TIP4 O1   OW0      0.000000       15.9990           
   29254 A    7314 TIP4 H1   HW0      0.679100        1.0080           
   29255 A    7314 TIP4 H2   HW0      0.679100        1.0080           
   29256 A    7314 TIP4 BD1  LP0     -1.358200        0.0000           
   29257 A    7315 TIP4 O1   OW0      0.000000       15.9990           
   29258 A    7315 TIP4 H1   HW0      0.679100        1.0080           
   29259 A    7315 TIP4 H2   HW0      0.679100        1.0080           
   29260 A    7315 TIP4 BD1  LP0     -1.358200        0.0000           
   29261 A    7316 TIP4 O1   OW0      0.000000       15.9990           
   29262 A    7316 TIP4 H1   HW0      0.679100        1.0080           
   29263 A    7316 TIP4 H2   HW0      0.679100        1.0080           
   29264 A    7316 TIP4 BD1  LP0     -1.358200        0.0000           
   29265 A    7317 TIP4 O1   OW0      0.000000       15.9990           
   29266 A    7317 TIP4 H1   HW0      0.679100        1.0080           
   29267 A    7317 TIP4 H2   HW0      0.679100        1.0080           
   29268 A    7317 TIP4 BD1  LP0     -1.358200        0.0000           
   29269 A    7318 TIP4 O1   OW0      0.000000       15.9990           
   29270 A    7318 TIP4 H1   HW0      0.679100        1.0080           
   29271 A    7318 TIP4 H2   HW0      0.679100        1.0080           
   29272 A    7318 TIP4 BD1  LP0     -1.358200        0.0000           
   29273 A    7319 TIP4 O1   OW0      0.000000       15.9990           
   29274 A    7319 TIP4 H1   HW0      0.679100        1.0080           
   29275 A    7319 TIP4 H2   HW0      0.679100        1.0080           
   29276 A    7319 TIP4 BD1  LP0     -1.358200        0.0000           
   29277 A    7320 TIP4 O1   OW0      0.000000       15.9990           
   29278 A    7320 TIP4 H1   HW0      0.679100        1.0080           
   29279 A    7320 TIP4 H2   HW0      0.679100        1.0080           
   29280 A    7320 TIP4 BD1  LP0     -1.358200        0.0000           
   29281 A    7321 TIP4 O1   OW0      0.000000       15.9990           
   29282 A    7321 TIP4 H1   HW0      0.679100        1.0080           
   29283 A    7321 TIP4 H2   HW0      0.679100        1.0080           
   29284 A    7321 TIP4 BD1  LP0     -1.358200        0.0000           
   29285 A    7322 TIP4 O1   OW0      0.000000       15.9990           
   29286 A    7322 TIP4 H1   HW0      0.679100        1.0080           
   29287 A    7322 TIP4 H2   HW0      0.679100        1.0080           
   29288 A    7322 TIP4 BD1  LP0     -1.358200        0.0000           
   29289 A    7323 TIP4 O1   OW0      0.000000       15.9990           
   29290 A    7323 TIP4 H1   HW0      0.679100        1.0080           
   29291 A    7323 TIP4 H2   HW0      0.679100        1.0080           
   29292 A    7323 TIP4 BD1  LP0     -1.358200        0.0000           
   29293 A    7324 TIP4 O1   OW0      0.000000       15.9990           
   29294 A    7324 TIP4 H1   HW0      0.679100        1.0080           
   29295 A    7324 TIP4 H2   HW0      0.679100        1.0080           
   29296 A    7324 TIP4 BD1  LP0     -1.358200        0.0000           
   29297 A    7325 TIP4 O1   OW0      0.000000       15.9990           
   29298 A    7325 TIP4 H1   HW0      0.679100        1.0080           
   29299 A    7325 TIP4 H2   HW0      0.679100        1.0080           
   29300 A    7325 TIP4 BD1  LP0     -1.358200        0.0000           
   29301 A    7326 TIP4 O1   OW0      0.000000       15.9990           
   29302 A    7326 TIP4 H1   HW0      0.679100        1.0080           
   29303 A    7326 TIP4 H2   HW0      0.679100        1.0080           
   29304 A    7326 TIP4 BD1  LP0     -1.358200        0.0000           
   29305 A    7327 TIP4 O1   OW0      0.000000       15.9990           
   29306 A    7327 TIP4 H1   HW0      0.679100        1.0080           
   29307 A    7327 TIP4 H2   HW0      0.679100        1.0080           
   29308 A    7327 TIP4 BD1  LP0     -1.358200        0.0000           
   29309 A    7328 TIP4 O1   OW0      0.000000       15.9990           
   29310 A    7328 TIP4 H1   HW0      0.679100        1.0080           
   29311 A    7328 TIP4 H2   HW0      0.679100        1.0080           
   29312 A    7328 TIP4 BD1  LP0     -1.358200        0.0000           
   29313 A    7329 TIP4 O1   OW0      0.000000       15.9990           
   29314 A    7329 TIP4 H1   HW0      0.679100        1.0080           
   29315 A    7329 TIP4 H2   HW0      0.679100        1.0080           
   29316 A    7329 TIP4 BD1  LP0     -1.358200        0.0000           
   29317 A    7330 TIP4 O1   OW0      0.000000       15.9990           
   29318 A    7330 TIP4 H1   HW0      0.679100        1.0080           
   29319 A    7330 TIP4 H2   HW0      0.679100        1.0080           
   29320 A    7330 TIP4 BD1  LP0     -1.358200        0.0000           
   29321 A    7331 TIP4 O1   OW0      0.000000       15.9990           
   29322 A    7331 TIP4 H1   HW0      0.679100        1.0080           
   29323 A    7331 TIP4 H2   HW0      0.679100        1.0080           
   29324 A    7331 TIP4 BD1  LP0     -1.358200        0.0000           
   29325 A    7332 TIP4 O1   OW0      0.000000       15.9990           
   29326 A    7332 TIP4 H1   HW0      0.679100        1.0080           
   29327 A    7332 TIP4 H2   HW0      0.679100        1.0080           
   29328 A    7332 TIP4 BD1  LP0     -1.358200        0.0000           
   29329 A    7333 TIP4 O1   OW0      0.000000       15.9990           
   29330 A    7333 TIP4 H1   HW0      0.679100        1.0080           
   29331 A    7333 TIP4 H2   HW0      0.679100        1.0080           
   29332 A    7333 TIP4 BD1  LP0     -1.358200        0.0000           
   29333 A    7334 TIP4 O1   OW0      0.000000       15.9990           
   29334 A    7334 TIP4 H1   HW0      0.679100        1.0080           
   29335 A    7334 TIP4 H2   HW0      0.679100        1.0080           
   29336 A    7334 TIP4 BD1  LP0     -1.358200        0.0000           
   29337 A    7335 TIP4 O1   OW0      0.000000       15.9990           
   29338 A    7335 TIP4 H1   HW0      0.679100        1.0080           
   29339 A    7335 TIP4 H2   HW0      0.679100        1.0080           
   29340 A    7335 TIP4 BD1  LP0     -1.358200        0.0000           
   29341 A    7336 TIP4 O1   OW0      0.000000       15.9990           
   29342 A    7336 TIP4 H1   HW0      0.679100        1.0080           
   29343 A    7336 TIP4 H2   HW0      0.679100        1.0080           
   29344 A    7336 TIP4 BD1  LP0     -1.358200        0.0000           
   29345 A    7337 TIP4 O1   OW0      0.000000       15.9990           
   29346 A    7337 TIP4 H1   HW0      0.679100        1.0080           
   29347 A    7337 TIP4 H2   HW0      0.679100        1.0080           
   29348 A    7337 TIP4 BD1  LP0     -1.358200        0.0000           
   29349 A    7338 TIP4 O1   OW0      0.000000       15.9990           
   29350 A    7338 TIP4 H1   HW0      0.679100        1.0080           
   29351 A    7338 TIP4 H2   HW0      0.679100        1.0080           
   29352 A    7338 TIP4 BD1  LP0     -1.358200        0.0000           
   29353 A    7339 TIP4 O1   OW0      0.000000       15.9990           
   29354 A    7339 TIP4 H1   HW0      0.679100        1.0080           
   29355 A    7339 TIP4 H2   HW0      0.679100        1.0080           
   29356 A    7339 TIP4 BD1  LP0     -1.358200        0.0000           
   29357 A    7340 TIP4 O1   OW0      0.000000       15.9990           
   29358 A    7340 TIP4 H1   HW0      0.679100        1.0080           
   29359 A    7340 TIP4 H2   HW0      0.679100        1.0080           
   29360 A    7340 TIP4 BD1  LP0     -1.358200        0.0000           
   29361 A    7341 TIP4 O1   OW0      0.000000       15.9990           
   29362 A    7341 TIP4 H1   HW0      0.679100        1.0080           
   29363 A    7341 TIP4 H2   HW0      0.679100        1.0080           
   29364 A    7341 TIP4 BD1  LP0     -1.358200        0.0000           
   29365 A    7342 TIP4 O1   OW0      0.000000       15.9990           
   29366 A    7342 TIP4 H1   HW0      0.679100        1.0080           
   29367 A    7342 TIP4 H2   HW0      0.679100        1.0080           
   29368 A    7342 TIP4 BD1  LP0     -1.358200        0.0000           
   29369 A    7343 TIP4 O1   OW0      0.000000       15.9990           
   29370 A    7343 TIP4 H1   HW0      0.679100        1.0080           
   29371 A    7343 TIP4 H2   HW0      0.679100        1.0080           
   29372 A    7343 TIP4 BD1  LP0     -1.358200        0.0000           
   29373 A    7344 TIP4 O1   OW0      0.000000       15.9990           
   29374 A    7344 TIP4 H1   HW0      0.679100        1.0080           
   29375 A    7344 TIP4 H2   HW0      0.679100        1.0080           
   29376 A    7344 TIP4 BD1  LP0     -1.358200        0.0000           
   29377 A    7345 TIP4 O1   OW0      0.000000       15.9990           
   29378 A    7345 TIP4 H1   HW0      0.679100        1.0080           
   29379 A    7345 TIP4 H2   HW0      0.679100        1.0080           
   29380 A    7345 TIP4 BD1  LP0     -1.358200        0.0000           
   29381 A    7346 TIP4 O1   OW0      0.000000       15.9990           
   29382 A    7346 TIP4 H1   HW0      0.679100        1.0080           
   29383 A    7346 TIP4 H2   HW0      0.679100        1.0080           
   29384 A    7346 TIP4 BD1  LP0     -1.358200        0.0000           
   29385 A    7347 TIP4 O1   OW0      0.000000       15.9990           
   29386 A    7347 TIP4 H1   HW0      0.679100        1.0080           
   29387 A    7347 TIP4 H2   HW0      0.679100        1.0080           
   29388 A    7347 TIP4 BD1  LP0     -1.358200        0.0000           
   29389 A    7348 TIP4 O1   OW0      0.000000       15.9990           
   29390 A    7348 TIP4 H1   HW0      0.679100        1.0080           
   29391 A    7348 TIP4 H2   HW0      0.679100        1.0080           
   29392 A    7348 TIP4 BD1  LP0     -1.358200        0.0000           
   29393 A    7349 TIP4 O1   OW0      0.000000       15.9990           
   29394 A    7349 TIP4 H1   HW0      0.679100        1.0080           
   29395 A    7349 TIP4 H2   HW0      0.679100        1.0080           
   29396 A    7349 TIP4 BD1  LP0     -1.358200        0.0000           
   29397 A    7350 TIP4 O1   OW0      0.000000       15.9990           
   29398 A    7350 TIP4 H1   HW0      0.679100        1.0080           
   29399 A    7350 TIP4 H2   HW0      0.679100        1.0080           
   29400 A    7350 TIP4 BD1  LP0     -1.358200        0.0000           
   29401 A    7351 TIP4 O1   OW0      0.000000       15.9990           
   29402 A    7351 TIP4 H1   HW0      0.679100        1.0080           
   29403 A    7351 TIP4 H2   HW0      0.679100        1.0080           
   29404 A    7351 TIP4 BD1  LP0     -1.358200        0.0000           
   29405 A    7352 TIP4 O1   OW0      0.000000       15.9990           
   29406 A    7352 TIP4 H1   HW0      0.679100        1.0080           
   29407 A    7352 TIP4 H2   HW0      0.679100        1.0080           
   29408 A    7352 TIP4 BD1  LP0     -1.358200        0.0000           
   29409 A    7353 TIP4 O1   OW0      0.000000       15.9990           
   29410 A    7353 TIP4 H1   HW0      0.679100        1.0080           
   29411 A    7353 TIP4 H2   HW0      0.679100        1.0080           
   29412 A    7353 TIP4 BD1  LP0     -1.358200        0.0000           
   29413 A    7354 TIP4 O1   OW0      0.000000       15.9990           
   29414 A    7354 TIP4 H1   HW0      0.679100        1.0080           
   29415 A    7354 TIP4 H2   HW0      0.679100        1.0080           
   29416 A    7354 TIP4 BD1  LP0     -1.358200        0.0000           
   29417 A    7355 TIP4 O1   OW0      0.000000       15.9990           
   29418 A    7355 TIP4 H1   HW0      0.679100        1.0080           
   29419 A    7355 TIP4 H2   HW0      0.679100        1.0080           
   29420 A    7355 TIP4 BD1  LP0     -1.358200        0.0000           
   29421 A    7356 TIP4 O1   OW0      0.000000       15.9990           
   29422 A    7356 TIP4 H1   HW0      0.679100        1.0080           
   29423 A    7356 TIP4 H2   HW0      0.679100        1.0080           
   29424 A    7356 TIP4 BD1  LP0     -1.358200        0.0000           
   29425 A    7357 TIP4 O1   OW0      0.000000       15.9990           
   29426 A    7357 TIP4 H1   HW0      0.679100        1.0080           
   29427 A    7357 TIP4 H2   HW0      0.679100        1.0080           
   29428 A    7357 TIP4 BD1  LP0     -1.358200        0.0000           
   29429 A    7358 TIP4 O1   OW0      0.000000       15.9990           
   29430 A    7358 TIP4 H1   HW0      0.679100        1.0080           
   29431 A    7358 TIP4 H2   HW0      0.679100        1.0080           
   29432 A    7358 TIP4 BD1  LP0     -1.358200        0.0000           
   29433 A    7359 TIP4 O1   OW0      0.000000       15.9990           
   29434 A    7359 TIP4 H1   HW0      0.679100        1.0080           
   29435 A    7359 TIP4 H2   HW0      0.679100        1.0080           
   29436 A    7359 TIP4 BD1  LP0     -1.358200        0.0000           
   29437 A    7360 TIP4 O1   OW0      0.000000       15.9990           
   29438 A    7360 TIP4 H1   HW0      0.679100        1.0080           
   29439 A    7360 TIP4 H2   HW0      0.679100        1.0080           
   29440 A    7360 TIP4 BD1  LP0     -1.358200        0.0000           
   29441 A    7361 TIP4 O1   OW0      0.000000       15.9990           
   29442 A    7361 TIP4 H1   HW0      0.679100        1.0080           
   29443 A    7361 TIP4 H2   HW0      0.679100        1.0080           
   29444 A    7361 TIP4 BD1  LP0     -1.358200        0.0000           
   29445 A    7362 TIP4 O1   OW0      0.000000       15.9990           
   29446 A    7362 TIP4 H1   HW0      0.679100        1.0080           
   29447 A    7362 TIP4 H2   HW0      0.679100        1.0080           
   29448 A    7362 TIP4 BD1  LP0     -1.358200        0.0000           
   29449 A    7363 TIP4 O1   OW0      0.000000       15.9990           
   29450 A    7363 TIP4 H1   HW0      0.679100        1.0080           
   29451 A    7363 TIP4 H2   HW0      0.679100        1.0080           
   29452 A    7363 TIP4 BD1  LP0     -1.358200        0.0000           
   29453 A    7364 TIP4 O1   OW0      0.000000       15.9990           
   29454 A    7364 TIP4 H1   HW0      0.679100        1.0080           
   29455 A    7364 TIP4 H2   HW0      0.679100        1.0080           
   29456 A    7364 TIP4 BD1  LP0     -1.358200        0.0000           
   29457 A    7365 TIP4 O1   OW0      0.000000       15.9990           
   29458 A    7365 TIP4 H1   HW0      0.679100        1.0080           
   29459 A    7365 TIP4 H2   HW0      0.679100        1.0080           
   29460 A    7365 TIP4 BD1  LP0     -1.358200        0.0000           
   29461 A    7366 TIP4 O1   OW0      0.000000       15.9990           
   29462 A    7366 TIP4 H1   HW0      0.679100        1.0080           
   29463 A    7366 TIP4 H2   HW0      0.679100        1.0080           
   29464 A    7366 TIP4 BD1  LP0     -1.358200        0.0000           
   29465 A    7367 TIP4 O1   OW0      0.000000       15.9990           
   29466 A    7367 TIP4 H1   HW0      0.679100        1.0080           
   29467 A    7367 TIP4 H2   HW0      0.679100        1.0080           
   29468 A    7367 TIP4 BD1  LP0     -1.358200        0.0000           
   29469 A    7368 TIP4 O1   OW0      0.000000       15.9990           
   29470 A    7368 TIP4 H1   HW0      0.679100        1.0080           
   29471 A    7368 TIP4 H2   HW0      0.679100        1.0080           
   29472 A    7368 TIP4 BD1  LP0     -1.358200        0.0000           
   29473 A    7369 TIP4 O1   OW0      0.000000       15.9990           
   29474 A    7369 TIP4 H1   HW0      0.679100        1.0080           
   29475 A    7369 TIP4 H2   HW0      0.679100        1.0080           
   29476 A    7369 TIP4 BD1  LP0     -1.358200        0.0000           
   29477 A    7370 TIP4 O1   OW0      0.000000       15.9990           
   29478 A    7370 TIP4 H1   HW0      0.679100        1.0080           
   29479 A    7370 TIP4 H2   HW0      0.679100        1.0080           
   29480 A    7370 TIP4 BD1  LP0     -1.358200        0.0000           
   29481 A    7371 TIP4 O1   OW0      0.000000       15.9990           
   29482 A    7371 TIP4 H1   HW0      0.679100        1.0080           
   29483 A    7371 TIP4 H2   HW0      0.679100        1.0080           
   29484 A    7371 TIP4 BD1  LP0     -1.358200        0.0000           
   29485 A    7372 TIP4 O1   OW0      0.000000       15.9990           
   29486 A    7372 TIP4 H1   HW0      0.679100        1.0080           
   29487 A    7372 TIP4 H2   HW0      0.679100        1.0080           
   29488 A    7372 TIP4 BD1  LP0     -1.358200        0.0000           
   29489 A    7373 TIP4 O1   OW0      0.000000       15.9990           
   29490 A    7373 TIP4 H1   HW0      0.679100        1.0080           
   29491 A    7373 TIP4 H2   HW0      0.679100        1.0080           
   29492 A    7373 TIP4 BD1  LP0     -1.358200        0.0000           
   29493 A    7374 TIP4 O1   OW0      0.000000       15.9990           
   29494 A    7374 TIP4 H1   HW0      0.679100        1.0080           
   29495 A    7374 TIP4 H2   HW0      0.679100        1.0080           
   29496 A    7374 TIP4 BD1  LP0     -1.358200        0.0000           
   29497 A    7375 TIP4 O1   OW0      0.000000       15.9990           
   29498 A    7375 TIP4 H1   HW0      0.679100        1.0080           
   29499 A    7375 TIP4 H2   HW0      0.679100        1.0080           
   29500 A    7375 TIP4 BD1  LP0     -1.358200        0.0000           
   29501 A    7376 TIP4 O1   OW0      0.000000       15.9990           
   29502 A    7376 TIP4 H1   HW0      0.679100        1.0080           
   29503 A    7376 TIP4 H2   HW0      0.679100        1.0080           
   29504 A    7376 TIP4 BD1  LP0     -1.358200        0.0000           
   29505 A    7377 TIP4 O1   OW0      0.000000       15.9990           
   29506 A    7377 TIP4 H1   HW0      0.679100        1.0080           
   29507 A    7377 TIP4 H2   HW0      0.679100        1.0080           
   29508 A    7377 TIP4 BD1  LP0     -1.358200        0.0000           
   29509 A    7378 TIP4 O1   OW0      0.000000       15.9990           
   29510 A    7378 TIP4 H1   HW0      0.679100        1.0080           
   29511 A    7378 TIP4 H2   HW0      0.679100        1.0080           
   29512 A    7378 TIP4 BD1  LP0     -1.358200        0.0000           
   29513 A    7379 TIP4 O1   OW0      0.000000       15.9990           
   29514 A    7379 TIP4 H1   HW0      0.679100        1.0080           
   29515 A    7379 TIP4 H2   HW0      0.679100        1.0080           
   29516 A    7379 TIP4 BD1  LP0     -1.358200        0.0000           
   29517 A    7380 TIP4 O1   OW0      0.000000       15.9990           
   29518 A    7380 TIP4 H1   HW0      0.679100        1.0080           
   29519 A    7380 TIP4 H2   HW0      0.679100        1.0080           
   29520 A    7380 TIP4 BD1  LP0     -1.358200        0.0000           
   29521 A    7381 TIP4 O1   OW0      0.000000       15.9990           
   29522 A    7381 TIP4 H1   HW0      0.679100        1.0080           
   29523 A    7381 TIP4 H2   HW0      0.679100        1.0080           
   29524 A    7381 TIP4 BD1  LP0     -1.358200        0.0000           
   29525 A    7382 TIP4 O1   OW0      0.000000       15.9990           
   29526 A    7382 TIP4 H1   HW0      0.679100        1.0080           
   29527 A    7382 TIP4 H2   HW0      0.679100        1.0080           
   29528 A    7382 TIP4 BD1  LP0     -1.358200        0.0000           
   29529 A    7383 TIP4 O1   OW0      0.000000       15.9990           
   29530 A    7383 TIP4 H1   HW0      0.679100        1.0080           
   29531 A    7383 TIP4 H2   HW0      0.679100        1.0080           
   29532 A    7383 TIP4 BD1  LP0     -1.358200        0.0000           
   29533 A    7384 TIP4 O1   OW0      0.000000       15.9990           
   29534 A    7384 TIP4 H1   HW0      0.679100        1.0080           
   29535 A    7384 TIP4 H2   HW0      0.679100        1.0080           
   29536 A    7384 TIP4 BD1  LP0     -1.358200        0.0000           
   29537 A    7385 TIP4 O1   OW0      0.000000       15.9990           
   29538 A    7385 TIP4 H1   HW0      0.679100        1.0080           
   29539 A    7385 TIP4 H2   HW0      0.679100        1.0080           
   29540 A    7385 TIP4 BD1  LP0     -1.358200        0.0000           
   29541 A    7386 TIP4 O1   OW0      0.000000       15.9990           
   29542 A    7386 TIP4 H1   HW0      0.679100        1.0080           
   29543 A    7386 TIP4 H2   HW0      0.679100        1.0080           
   29544 A    7386 TIP4 BD1  LP0     -1.358200        0.0000           
   29545 A    7387 TIP4 O1   OW0      0.000000       15.9990           
   29546 A    7387 TIP4 H1   HW0      0.679100        1.0080           
   29547 A    7387 TIP4 H2   HW0      0.679100        1.0080           
   29548 A    7387 TIP4 BD1  LP0     -1.358200        0.0000           
   29549 A    7388 TIP4 O1   OW0      0.000000       15.9990           
   29550 A    7388 TIP4 H1   HW0      0.679100        1.0080           
   29551 A    7388 TIP4 H2   HW0      0.679100        1.0080           
   29552 A    7388 TIP4 BD1  LP0     -1.358200        0.0000           
   29553 A    7389 TIP4 O1   OW0      0.000000       15.9990           
   29554 A    7389 TIP4 H1   HW0      0.679100        1.0080           
   29555 A    7389 TIP4 H2   HW0      0.679100        1.0080           
   29556 A    7389 TIP4 BD1  LP0     -1.358200        0.0000           
   29557 A    7390 TIP4 O1   OW0      0.000000       15.9990           
   29558 A    7390 TIP4 H1   HW0      0.679100        1.0080           
   29559 A    7390 TIP4 H2   HW0      0.679100        1.0080           
   29560 A    7390 TIP4 BD1  LP0     -1.358200        0.0000           
   29561 A    7391 TIP4 O1   OW0      0.000000       15.9990           
   29562 A    7391 TIP4 H1   HW0      0.679100        1.0080           
   29563 A    7391 TIP4 H2   HW0      0.679100        1.0080           
   29564 A    7391 TIP4 BD1  LP0     -1.358200        0.0000           
   29565 A    7392 TIP4 O1   OW0      0.000000       15.9990           
   29566 A    7392 TIP4 H1   HW0      0.679100        1.0080           
   29567 A    7392 TIP4 H2   HW0      0.679100        1.0080           
   29568 A    7392 TIP4 BD1  LP0     -1.358200        0.0000           
   29569 A    7393 TIP4 O1   OW0      0.000000       15.9990           
   29570 A    7393 TIP4 H1   HW0      0.679100        1.0080           
   29571 A    7393 TIP4 H2   HW0      0.679100        1.0080           
   29572 A    7393 TIP4 BD1  LP0     -1.358200        0.0000           
   29573 A    7394 TIP4 O1   OW0      0.000000       15.9990           
   29574 A    7394 TIP4 H1   HW0      0.679100        1.0080           
   29575 A    7394 TIP4 H2   HW0      0.679100        1.0080           
   29576 A    7394 TIP4 BD1  LP0     -1.358200        0.0000           
   29577 A    7395 TIP4 O1   OW0      0.000000       15.9990           
   29578 A    7395 TIP4 H1   HW0      0.679100        1.0080           
   29579 A    7395 TIP4 H2   HW0      0.679100        1.0080           
   29580 A    7395 TIP4 BD1  LP0     -1.358200        0.0000           
   29581 A    7396 TIP4 O1   OW0      0.000000       15.9990           
   29582 A    7396 TIP4 H1   HW0      0.679100        1.0080           
   29583 A    7396 TIP4 H2   HW0      0.679100        1.0080           
   29584 A    7396 TIP4 BD1  LP0     -1.358200        0.0000           
   29585 A    7397 TIP4 O1   OW0      0.000000       15.9990           
   29586 A    7397 TIP4 H1   HW0      0.679100        1.0080           
   29587 A    7397 TIP4 H2   HW0      0.679100        1.0080           
   29588 A    7397 TIP4 BD1  LP0     -1.358200        0.0000           
   29589 A    7398 TIP4 O1   OW0      0.000000       15.9990           
   29590 A    7398 TIP4 H1   HW0      0.679100        1.0080           
   29591 A    7398 TIP4 H2   HW0      0.679100        1.0080           
   29592 A    7398 TIP4 BD1  LP0     -1.358200        0.0000           
   29593 A    7399 TIP4 O1   OW0      0.000000       15.9990           
   29594 A    7399 TIP4 H1   HW0      0.679100        1.0080           
   29595 A    7399 TIP4 H2   HW0      0.679100        1.0080           
   29596 A    7399 TIP4 BD1  LP0     -1.358200        0.0000           
   29597 A    7400 TIP4 O1   OW0      0.000000       15.9990           
   29598 A    7400 TIP4 H1   HW0      0.679100        1.0080           
   29599 A    7400 TIP4 H2   HW0      0.679100        1.0080           
   29600 A    7400 TIP4 BD1  LP0     -1.358200        0.0000           
   29601 A    7401 TIP4 O1   OW0      0.000000       15.9990           
   29602 A    7401 TIP4 H1   HW0      0.679100        1.0080           
   29603 A    7401 TIP4 H2   HW0      0.679100        1.0080           
   29604 A    7401 TIP4 BD1  LP0     -1.358200        0.0000           
   29605 A    7402 TIP4 O1   OW0      0.000000       15.9990           
   29606 A    7402 TIP4 H1   HW0      0.679100        1.0080           
   29607 A    7402 TIP4 H2   HW0      0.679100        1.0080           
   29608 A    7402 TIP4 BD1  LP0     -1.358200        0.0000           
   29609 A    7403 TIP4 O1   OW0      0.000000       15.9990           
   29610 A    7403 TIP4 H1   HW0      0.679100        1.0080           
   29611 A    7403 TIP4 H2   HW0      0.679100        1.0080           
   29612 A    7403 TIP4 BD1  LP0     -1.358200        0.0000           
   29613 A    7404 TIP4 O1   OW0      0.000000       15.9990           
   29614 A    7404 TIP4 H1   HW0      0.679100        1.0080           
   29615 A    7404 TIP4 H2   HW0      0.679100        1.0080           
   29616 A    7404 TIP4 BD1  LP0     -1.358200        0.0000           
   29617 A    7405 TIP4 O1   OW0      0.000000       15.9990           
   29618 A    7405 TIP4 H1   HW0      0.679100        1.0080           
   29619 A    7405 TIP4 H2   HW0      0.679100        1.0080           
   29620 A    7405 TIP4 BD1  LP0     -1.358200        0.0000           
   29621 A    7406 TIP4 O1   OW0      0.000000       15.9990           
   29622 A    7406 TIP4 H1   HW0      0.679100        1.0080           
   29623 A    7406 TIP4 H2   HW0      0.679100        1.0080           
   29624 A    7406 TIP4 BD1  LP0     -1.358200        0.0000           
   29625 A    7407 TIP4 O1   OW0      0.000000       15.9990           
   29626 A    7407 TIP4 H1   HW0      0.679100        1.0080           
   29627 A    7407 TIP4 H2   HW0      0.679100        1.0080           
   29628 A    7407 TIP4 BD1  LP0     -1.358200        0.0000           
   29629 A    7408 TIP4 O1   OW0      0.000000       15.9990           
   29630 A    7408 TIP4 H1   HW0      0.679100        1.0080           
   29631 A    7408 TIP4 H2   HW0      0.679100        1.0080           
   29632 A    7408 TIP4 BD1  LP0     -1.358200        0.0000           
   29633 A    7409 TIP4 O1   OW0      0.000000       15.9990           
   29634 A    7409 TIP4 H1   HW0      0.679100        1.0080           
   29635 A    7409 TIP4 H2   HW0      0.679100        1.0080           
   29636 A    7409 TIP4 BD1  LP0     -1.358200        0.0000           
   29637 A    7410 TIP4 O1   OW0      0.000000       15.9990           
   29638 A    7410 TIP4 H1   HW0      0.679100        1.0080           
   29639 A    7410 TIP4 H2   HW0      0.679100        1.0080           
   29640 A    7410 TIP4 BD1  LP0     -1.358200        0.0000           
   29641 A    7411 TIP4 O1   OW0      0.000000       15.9990           
   29642 A    7411 TIP4 H1   HW0      0.679100        1.0080           
   29643 A    7411 TIP4 H2   HW0      0.679100        1.0080           
   29644 A    7411 TIP4 BD1  LP0     -1.358200        0.0000           
   29645 A    7412 TIP4 O1   OW0      0.000000       15.9990           
   29646 A    7412 TIP4 H1   HW0      0.679100        1.0080           
   29647 A    7412 TIP4 H2   HW0      0.679100        1.0080           
   29648 A    7412 TIP4 BD1  LP0     -1.358200        0.0000           
   29649 A    7413 TIP4 O1   OW0      0.000000       15.9990           
   29650 A    7413 TIP4 H1   HW0      0.679100        1.0080           
   29651 A    7413 TIP4 H2   HW0      0.679100        1.0080           
   29652 A    7413 TIP4 BD1  LP0     -1.358200        0.0000           
   29653 A    7414 TIP4 O1   OW0      0.000000       15.9990           
   29654 A    7414 TIP4 H1   HW0      0.679100        1.0080           
   29655 A    7414 TIP4 H2   HW0      0.679100        1.0080           
   29656 A    7414 TIP4 BD1  LP0     -1.358200        0.0000           
   29657 A    7415 TIP4 O1   OW0      0.000000       15.9990           
   29658 A    7415 TIP4 H1   HW0      0.679100        1.0080           
   29659 A    7415 TIP4 H2   HW0      0.679100        1.0080           
   29660 A    7415 TIP4 BD1  LP0     -1.358200        0.0000           
   29661 A    7416 TIP4 O1   OW0      0.000000       15.9990           
   29662 A    7416 TIP4 H1   HW0      0.679100        1.0080           
   29663 A    7416 TIP4 H2   HW0      0.679100        1.0080           
   29664 A    7416 TIP4 BD1  LP0     -1.358200        0.0000           
   29665 A    7417 TIP4 O1   OW0      0.000000       15.9990           
   29666 A    7417 TIP4 H1   HW0      0.679100        1.0080           
   29667 A    7417 TIP4 H2   HW0      0.679100        1.0080           
   29668 A    7417 TIP4 BD1  LP0     -1.358200        0.0000           
   29669 A    7418 TIP4 O1   OW0      0.000000       15.9990           
   29670 A    7418 TIP4 H1   HW0      0.679100        1.0080           
   29671 A    7418 TIP4 H2   HW0      0.679100        1.0080           
   29672 A    7418 TIP4 BD1  LP0     -1.358200        0.0000           
   29673 A    7419 TIP4 O1   OW0      0.000000       15.9990           
   29674 A    7419 TIP4 H1   HW0      0.679100        1.0080           
   29675 A    7419 TIP4 H2   HW0      0.679100        1.0080           
   29676 A    7419 TIP4 BD1  LP0     -1.358200        0.0000           
   29677 A    7420 TIP4 O1   OW0      0.000000       15.9990           
   29678 A    7420 TIP4 H1   HW0      0.679100        1.0080           
   29679 A    7420 TIP4 H2   HW0      0.679100        1.0080           
   29680 A    7420 TIP4 BD1  LP0     -1.358200        0.0000           
   29681 A    7421 TIP4 O1   OW0      0.000000       15.9990           
   29682 A    7421 TIP4 H1   HW0      0.679100        1.0080           
   29683 A    7421 TIP4 H2   HW0      0.679100        1.0080           
   29684 A    7421 TIP4 BD1  LP0     -1.358200        0.0000           
   29685 A    7422 TIP4 O1   OW0      0.000000       15.9990           
   29686 A    7422 TIP4 H1   HW0      0.679100        1.0080           
   29687 A    7422 TIP4 H2   HW0      0.679100        1.0080           
   29688 A    7422 TIP4 BD1  LP0     -1.358200        0.0000           
   29689 A    7423 TIP4 O1   OW0      0.000000       15.9990           
   29690 A    7423 TIP4 H1   HW0      0.679100        1.0080           
   29691 A    7423 TIP4 H2   HW0      0.679100        1.0080           
   29692 A    7423 TIP4 BD1  LP0     -1.358200        0.0000           
   29693 A    7424 TIP4 O1   OW0      0.000000       15.9990           
   29694 A    7424 TIP4 H1   HW0      0.679100        1.0080           
   29695 A    7424 TIP4 H2   HW0      0.679100        1.0080           
   29696 A    7424 TIP4 BD1  LP0     -1.358200        0.0000           
   29697 A    7425 TIP4 O1   OW0      0.000000       15.9990           
   29698 A    7425 TIP4 H1   HW0      0.679100        1.0080           
   29699 A    7425 TIP4 H2   HW0      0.679100        1.0080           
   29700 A    7425 TIP4 BD1  LP0     -1.358200        0.0000           
   29701 A    7426 TIP4 O1   OW0      0.000000       15.9990           
   29702 A    7426 TIP4 H1   HW0      0.679100        1.0080           
   29703 A    7426 TIP4 H2   HW0      0.679100        1.0080           
   29704 A    7426 TIP4 BD1  LP0     -1.358200        0.0000           
   29705 A    7427 TIP4 O1   OW0      0.000000       15.9990           
   29706 A    7427 TIP4 H1   HW0      0.679100        1.0080           
   29707 A    7427 TIP4 H2   HW0      0.679100        1.0080           
   29708 A    7427 TIP4 BD1  LP0     -1.358200        0.0000           
   29709 A    7428 TIP4 O1   OW0      0.000000       15.9990           
   29710 A    7428 TIP4 H1   HW0      0.679100        1.0080           
   29711 A    7428 TIP4 H2   HW0      0.679100        1.0080           
   29712 A    7428 TIP4 BD1  LP0     -1.358200        0.0000           
   29713 A    7429 TIP4 O1   OW0      0.000000       15.9990           
   29714 A    7429 TIP4 H1   HW0      0.679100        1.0080           
   29715 A    7429 TIP4 H2   HW0      0.679100        1.0080           
   29716 A    7429 TIP4 BD1  LP0     -1.358200        0.0000           
   29717 A    7430 TIP4 O1   OW0      0.000000       15.9990           
   29718 A    7430 TIP4 H1   HW0      0.679100        1.0080           
   29719 A    7430 TIP4 H2   HW0      0.679100        1.0080           
   29720 A    7430 TIP4 BD1  LP0     -1.358200        0.0000           
   29721 A    7431 TIP4 O1   OW0      0.000000       15.9990           
   29722 A    7431 TIP4 H1   HW0      0.679100        1.0080           
   29723 A    7431 TIP4 H2   HW0      0.679100        1.0080           
   29724 A    7431 TIP4 BD1  LP0     -1.358200        0.0000           
   29725 A    7432 TIP4 O1   OW0      0.000000       15.9990           
   29726 A    7432 TIP4 H1   HW0      0.679100        1.0080           
   29727 A    7432 TIP4 H2   HW0      0.679100        1.0080           
   29728 A    7432 TIP4 BD1  LP0     -1.358200        0.0000           
   29729 A    7433 TIP4 O1   OW0      0.000000       15.9990           
   29730 A    7433 TIP4 H1   HW0      0.679100        1.0080           
   29731 A    7433 TIP4 H2   HW0      0.679100        1.0080           
   29732 A    7433 TIP4 BD1  LP0     -1.358200        0.0000           
   29733 A    7434 TIP4 O1   OW0      0.000000       15.9990           
   29734 A    7434 TIP4 H1   HW0      0.679100        1.0080           
   29735 A    7434 TIP4 H2   HW0      0.679100        1.0080           
   29736 A    7434 TIP4 BD1  LP0     -1.358200        0.0000           
   29737 A    7435 TIP4 O1   OW0      0.000000       15.9990           
   29738 A    7435 TIP4 H1   HW0      0.679100        1.0080           
   29739 A    7435 TIP4 H2   HW0      0.679100        1.0080           
   29740 A    7435 TIP4 BD1  LP0     -1.358200        0.0000           
   29741 A    7436 TIP4 O1   OW0      0.000000       15.9990           
   29742 A    7436 TIP4 H1   HW0      0.679100        1.0080           
   29743 A    7436 TIP4 H2   HW0      0.679100        1.0080           
   29744 A    7436 TIP4 BD1  LP0     -1.358200        0.0000           
   29745 A    7437 TIP4 O1   OW0      0.000000       15.9990           
   29746 A    7437 TIP4 H1   HW0      0.679100        1.0080           
   29747 A    7437 TIP4 H2   HW0      0.679100        1.0080           
   29748 A    7437 TIP4 BD1  LP0     -1.358200        0.0000           
   29749 A    7438 TIP4 O1   OW0      0.000000       15.9990           
   29750 A    7438 TIP4 H1   HW0      0.679100        1.0080           
   29751 A    7438 TIP4 H2   HW0      0.679100        1.0080           
   29752 A    7438 TIP4 BD1  LP0     -1.358200        0.0000           
   29753 A    7439 TIP4 O1   OW0      0.000000       15.9990           
   29754 A    7439 TIP4 H1   HW0      0.679100        1.0080           
   29755 A    7439 TIP4 H2   HW0      0.679100        1.0080           
   29756 A    7439 TIP4 BD1  LP0     -1.358200        0.0000           
   29757 A    7440 TIP4 O1   OW0      0.000000       15.9990           
   29758 A    7440 TIP4 H1   HW0      0.679100        1.0080           
   29759 A    7440 TIP4 H2   HW0      0.679100        1.0080           
   29760 A    7440 TIP4 BD1  LP0     -1.358200        0.0000           
   29761 A    7441 TIP4 O1   OW0      0.000000       15.9990           
   29762 A    7441 TIP4 H1   HW0      0.679100        1.0080           
   29763 A    7441 TIP4 H2   HW0      0.679100        1.0080           
   29764 A    7441 TIP4 BD1  LP0     -1.358200        0.0000           
   29765 A    7442 TIP4 O1   OW0      0.000000       15.9990           
   29766 A    7442 TIP4 H1   HW0      0.679100        1.0080           
   29767 A    7442 TIP4 H2   HW0      0.679100        1.0080           
   29768 A    7442 TIP4 BD1  LP0     -1.358200        0.0000           
   29769 A    7443 TIP4 O1   OW0      0.000000       15.9990           
   29770 A    7443 TIP4 H1   HW0      0.679100        1.0080           
   29771 A    7443 TIP4 H2   HW0      0.679100        1.0080           
   29772 A    7443 TIP4 BD1  LP0     -1.358200        0.0000           
   29773 A    7444 TIP4 O1   OW0      0.000000       15.9990           
   29774 A    7444 TIP4 H1   HW0      0.679100        1.0080           
   29775 A    7444 TIP4 H2   HW0      0.679100        1.0080           
   29776 A    7444 TIP4 BD1  LP0     -1.358200        0.0000           
   29777 A    7445 TIP4 O1   OW0      0.000000       15.9990           
   29778 A    7445 TIP4 H1   HW0      0.679100        1.0080           
   29779 A    7445 TIP4 H2   HW0      0.679100        1.0080           
   29780 A    7445 TIP4 BD1  LP0     -1.358200        0.0000           
   29781 A    7446 TIP4 O1   OW0      0.000000       15.9990           
   29782 A    7446 TIP4 H1   HW0      0.679100        1.0080           
   29783 A    7446 TIP4 H2   HW0      0.679100        1.0080           
   29784 A    7446 TIP4 BD1  LP0     -1.358200        0.0000           
   29785 A    7447 TIP4 O1   OW0      0.000000       15.9990           
   29786 A    7447 TIP4 H1   HW0      0.679100        1.0080           
   29787 A    7447 TIP4 H2   HW0      0.679100        1.0080           
   29788 A    7447 TIP4 BD1  LP0     -1.358200        0.0000           
   29789 A    7448 TIP4 O1   OW0      0.000000       15.9990           
   29790 A    7448 TIP4 H1   HW0      0.679100        1.0080           
   29791 A    7448 TIP4 H2   HW0      0.679100        1.0080           
   29792 A    7448 TIP4 BD1  LP0     -1.358200        0.0000           
   29793 A    7449 TIP4 O1   OW0      0.000000       15.9990           
   29794 A    7449 TIP4 H1   HW0      0.679100        1.0080           
   29795 A    7449 TIP4 H2   HW0      0.679100        1.0080           
   29796 A    7449 TIP4 BD1  LP0     -1.358200        0.0000           
   29797 A    7450 TIP4 O1   OW0      0.000000       15.9990           
   29798 A    7450 TIP4 H1   HW0      0.679100        1.0080           
   29799 A    7450 TIP4 H2   HW0      0.679100        1.0080           
   29800 A    7450 TIP4 BD1  LP0     -1.358200        0.0000           
   29801 A    7451 TIP4 O1   OW0      0.000000       15.9990           
   29802 A    7451 TIP4 H1   HW0      0.679100        1.0080           
   29803 A    7451 TIP4 H2   HW0      0.679100        1.0080           
   29804 A    7451 TIP4 BD1  LP0     -1.358200        0.0000           
   29805 A    7452 TIP4 O1   OW0      0.000000       15.9990           
   29806 A    7452 TIP4 H1   HW0      0.679100        1.0080           
   29807 A    7452 TIP4 H2   HW0      0.679100        1.0080           
   29808 A    7452 TIP4 BD1  LP0     -1.358200        0.0000           
   29809 A    7453 TIP4 O1   OW0      0.000000       15.9990           
   29810 A    7453 TIP4 H1   HW0      0.679100        1.0080           
   29811 A    7453 TIP4 H2   HW0      0.679100        1.0080           
   29812 A    7453 TIP4 BD1  LP0     -1.358200        0.0000           
   29813 A    7454 TIP4 O1   OW0      0.000000       15.9990           
   29814 A    7454 TIP4 H1   HW0      0.679100        1.0080           
   29815 A    7454 TIP4 H2   HW0      0.679100        1.0080           
   29816 A    7454 TIP4 BD1  LP0     -1.358200        0.0000           
   29817 A    7455 TIP4 O1   OW0      0.000000       15.9990           
   29818 A    7455 TIP4 H1   HW0      0.679100        1.0080           
   29819 A    7455 TIP4 H2   HW0      0.679100        1.0080           
   29820 A    7455 TIP4 BD1  LP0     -1.358200        0.0000           
   29821 A    7456 TIP4 O1   OW0      0.000000       15.9990           
   29822 A    7456 TIP4 H1   HW0      0.679100        1.0080           
   29823 A    7456 TIP4 H2   HW0      0.679100        1.0080           
   29824 A    7456 TIP4 BD1  LP0     -1.358200        0.0000           
   29825 A    7457 TIP4 O1   OW0      0.000000       15.9990           
   29826 A    7457 TIP4 H1   HW0      0.679100        1.0080           
   29827 A    7457 TIP4 H2   HW0      0.679100        1.0080           
   29828 A    7457 TIP4 BD1  LP0     -1.358200        0.0000           
   29829 A    7458 TIP4 O1   OW0      0.000000       15.9990           
   29830 A    7458 TIP4 H1   HW0      0.679100        1.0080           
   29831 A    7458 TIP4 H2   HW0      0.679100        1.0080           
   29832 A    7458 TIP4 BD1  LP0     -1.358200        0.0000           
   29833 A    7459 TIP4 O1   OW0      0.000000       15.9990           
   29834 A    7459 TIP4 H1   HW0      0.679100        1.0080           
   29835 A    7459 TIP4 H2   HW0      0.679100        1.0080           
   29836 A    7459 TIP4 BD1  LP0     -1.358200        0.0000           
   29837 A    7460 TIP4 O1   OW0      0.000000       15.9990           
   29838 A    7460 TIP4 H1   HW0      0.679100        1.0080           
   29839 A    7460 TIP4 H2   HW0      0.679100        1.0080           
   29840 A    7460 TIP4 BD1  LP0     -1.358200        0.0000           
   29841 A    7461 TIP4 O1   OW0      0.000000       15.9990           
   29842 A    7461 TIP4 H1   HW0      0.679100        1.0080           
   29843 A    7461 TIP4 H2   HW0      0.679100        1.0080           
   29844 A    7461 TIP4 BD1  LP0     -1.358200        0.0000           
   29845 A    7462 TIP4 O1   OW0      0.000000       15.9990           
   29846 A    7462 TIP4 H1   HW0      0.679100        1.0080           
   29847 A    7462 TIP4 H2   HW0      0.679100        1.0080           
   29848 A    7462 TIP4 BD1  LP0     -1.358200        0.0000           
   29849 A    7463 TIP4 O1   OW0      0.000000       15.9990           
   29850 A    7463 TIP4 H1   HW0      0.679100        1.0080           
   29851 A    7463 TIP4 H2   HW0      0.679100        1.0080           
   29852 A    7463 TIP4 BD1  LP0     -1.358200        0.0000           
   29853 A    7464 TIP4 O1   OW0      0.000000       15.9990           
   29854 A    7464 TIP4 H1   HW0      0.679100        1.0080           
   29855 A    7464 TIP4 H2   HW0      0.679100        1.0080           
   29856 A    7464 TIP4 BD1  LP0     -1.358200        0.0000           
   29857 A    7465 TIP4 O1   OW0      0.000000       15.9990           
   29858 A    7465 TIP4 H1   HW0      0.679100        1.0080           
   29859 A    7465 TIP4 H2   HW0      0.679100        1.0080           
   29860 A    7465 TIP4 BD1  LP0     -1.358200        0.0000           
   29861 A    7466 TIP4 O1   OW0      0.000000       15.9990           
   29862 A    7466 TIP4 H1   HW0      0.679100        1.0080           
   29863 A    7466 TIP4 H2   HW0      0.679100        1.0080           
   29864 A    7466 TIP4 BD1  LP0     -1.358200        0.0000           
   29865 A    7467 TIP4 O1   OW0      0.000000       15.9990           
   29866 A    7467 TIP4 H1   HW0      0.679100        1.0080           
   29867 A    7467 TIP4 H2   HW0      0.679100        1.0080           
   29868 A    7467 TIP4 BD1  LP0     -1.358200        0.0000           
   29869 A    7468 TIP4 O1   OW0      0.000000       15.9990           
   29870 A    7468 TIP4 H1   HW0      0.679100        1.0080           
   29871 A    7468 TIP4 H2   HW0      0.679100        1.0080           
   29872 A    7468 TIP4 BD1  LP0     -1.358200        0.0000           
   29873 A    7469 TIP4 O1   OW0      0.000000       15.9990           
   29874 A    7469 TIP4 H1   HW0      0.679100        1.0080           
   29875 A    7469 TIP4 H2   HW0      0.679100        1.0080           
   29876 A    7469 TIP4 BD1  LP0     -1.358200        0.0000           
   29877 A    7470 TIP4 O1   OW0      0.000000       15.9990           
   29878 A    7470 TIP4 H1   HW0      0.679100        1.0080           
   29879 A    7470 TIP4 H2   HW0      0.679100        1.0080           
   29880 A    7470 TIP4 BD1  LP0     -1.358200        0.0000           
   29881 A    7471 TIP4 O1   OW0      0.000000       15.9990           
   29882 A    7471 TIP4 H1   HW0      0.679100        1.0080           
   29883 A    7471 TIP4 H2   HW0      0.679100        1.0080           
   29884 A    7471 TIP4 BD1  LP0     -1.358200        0.0000           
   29885 A    7472 TIP4 O1   OW0      0.000000       15.9990           
   29886 A    7472 TIP4 H1   HW0      0.679100        1.0080           
   29887 A    7472 TIP4 H2   HW0      0.679100        1.0080           
   29888 A    7472 TIP4 BD1  LP0     -1.358200        0.0000           
   29889 A    7473 TIP4 O1   OW0      0.000000       15.9990           
   29890 A    7473 TIP4 H1   HW0      0.679100        1.0080           
   29891 A    7473 TIP4 H2   HW0      0.679100        1.0080           
   29892 A    7473 TIP4 BD1  LP0     -1.358200        0.0000           
   29893 A    7474 TIP4 O1   OW0      0.000000       15.9990           
   29894 A    7474 TIP4 H1   HW0      0.679100        1.0080           
   29895 A    7474 TIP4 H2   HW0      0.679100        1.0080           
   29896 A    7474 TIP4 BD1  LP0     -1.358200        0.0000           
   29897 A    7475 TIP4 O1   OW0      0.000000       15.9990           
   29898 A    7475 TIP4 H1   HW0      0.679100        1.0080           
   29899 A    7475 TIP4 H2   HW0      0.679100        1.0080           
   29900 A    7475 TIP4 BD1  LP0     -1.358200        0.0000           
   29901 A    7476 TIP4 O1   OW0      0.000000       15.9990           
   29902 A    7476 TIP4 H1   HW0      0.679100        1.0080           
   29903 A    7476 TIP4 H2   HW0      0.679100        1.0080           
   29904 A    7476 TIP4 BD1  LP0     -1.358200        0.0000           
   29905 A    7477 TIP4 O1   OW0      0.000000       15.9990           
   29906 A    7477 TIP4 H1   HW0      0.679100        1.0080           
   29907 A    7477 TIP4 H2   HW0      0.679100        1.0080           
   29908 A    7477 TIP4 BD1  LP0     -1.358200        0.0000           
   29909 A    7478 TIP4 O1   OW0      0.000000       15.9990           
   29910 A    7478 TIP4 H1   HW0      0.679100        1.0080           
   29911 A    7478 TIP4 H2   HW0      0.679100        1.0080           
   29912 A    7478 TIP4 BD1  LP0     -1.358200        0.0000           
   29913 A    7479 TIP4 O1   OW0      0.000000       15.9990           
   29914 A    7479 TIP4 H1   HW0      0.679100        1.0080           
   29915 A    7479 TIP4 H2   HW0      0.679100        1.0080           
   29916 A    7479 TIP4 BD1  LP0     -1.358200        0.0000           
   29917 A    7480 TIP4 O1   OW0      0.000000       15.9990           
   29918 A    7480 TIP4 H1   HW0      0.679100        1.0080           
   29919 A    7480 TIP4 H2   HW0      0.679100        1.0080           
   29920 A    7480 TIP4 BD1  LP0     -1.358200        0.0000           
   29921 A    7481 TIP4 O1   OW0      0.000000       15.9990           
   29922 A    7481 TIP4 H1   HW0      0.679100        1.0080           
   29923 A    7481 TIP4 H2   HW0      0.679100        1.0080           
   29924 A    7481 TIP4 BD1  LP0     -1.358200        0.0000           
   29925 A    7482 TIP4 O1   OW0      0.000000       15.9990           
   29926 A    7482 TIP4 H1   HW0      0.679100        1.0080           
   29927 A    7482 TIP4 H2   HW0      0.679100        1.0080           
   29928 A    7482 TIP4 BD1  LP0     -1.358200        0.0000           
   29929 A    7483 TIP4 O1   OW0      0.000000       15.9990           
   29930 A    7483 TIP4 H1   HW0      0.679100        1.0080           
   29931 A    7483 TIP4 H2   HW0      0.679100        1.0080           
   29932 A    7483 TIP4 BD1  LP0     -1.358200        0.0000           
   29933 A    7484 TIP4 O1   OW0      0.000000       15.9990           
   29934 A    7484 TIP4 H1   HW0      0.679100        1.0080           
   29935 A    7484 TIP4 H2   HW0      0.679100        1.0080           
   29936 A    7484 TIP4 BD1  LP0     -1.358200        0.0000           
   29937 A    7485 TIP4 O1   OW0      0.000000       15.9990           
   29938 A    7485 TIP4 H1   HW0      0.679100        1.0080           
   29939 A    7485 TIP4 H2   HW0      0.679100        1.0080           
   29940 A    7485 TIP4 BD1  LP0     -1.358200        0.0000           
   29941 A    7486 TIP4 O1   OW0      0.000000       15.9990           
   29942 A    7486 TIP4 H1   HW0      0.679100        1.0080           
   29943 A    7486 TIP4 H2   HW0      0.679100        1.0080           
   29944 A    7486 TIP4 BD1  LP0     -1.358200        0.0000           
   29945 A    7487 TIP4 O1   OW0      0.000000       15.9990           
   29946 A    7487 TIP4 H1   HW0      0.679100        1.0080           
   29947 A    7487 TIP4 H2   HW0      0.679100        1.0080           
   29948 A    7487 TIP4 BD1  LP0     -1.358200        0.0000           
   29949 A    7488 TIP4 O1   OW0      0.000000       15.9990           
   29950 A    7488 TIP4 H1   HW0      0.679100        1.0080           
   29951 A    7488 TIP4 H2   HW0      0.679100        1.0080           
   29952 A    7488 TIP4 BD1  LP0     -1.358200        0.0000           
   29953 A    7489 TIP4 O1   OW0      0.000000       15.9990           
   29954 A    7489 TIP4 H1   HW0      0.679100        1.0080           
   29955 A    7489 TIP4 H2   HW0      0.679100        1.0080           
   29956 A    7489 TIP4 BD1  LP0     -1.358200        0.0000           
   29957 A    7490 TIP4 O1   OW0      0.000000       15.9990           
   29958 A    7490 TIP4 H1   HW0      0.679100        1.0080           
   29959 A    7490 TIP4 H2   HW0      0.679100        1.0080           
   29960 A    7490 TIP4 BD1  LP0     -1.358200        0.0000           
   29961 A    7491 TIP4 O1   OW0      0.000000       15.9990           
   29962 A    7491 TIP4 H1   HW0      0.679100        1.0080           
   29963 A    7491 TIP4 H2   HW0      0.679100        1.0080           
   29964 A    7491 TIP4 BD1  LP0     -1.358200        0.0000           
   29965 A    7492 TIP4 O1   OW0      0.000000       15.9990           
   29966 A    7492 TIP4 H1   HW0      0.679100        1.0080           
   29967 A    7492 TIP4 H2   HW0      0.679100        1.0080           
   29968 A    7492 TIP4 BD1  LP0     -1.358200        0.0000           
   29969 A    7493 TIP4 O1   OW0      0.000000       15.9990           
   29970 A    7493 TIP4 H1   HW0      0.679100        1.0080           
   29971 A    7493 TIP4 H2   HW0      0.679100        1.0080           
   29972 A    7493 TIP4 BD1  LP0     -1.358200        0.0000           
   29973 A    7494 TIP4 O1   OW0      0.000000       15.9990           
   29974 A    7494 TIP4 H1   HW0      0.679100        1.0080           
   29975 A    7494 TIP4 H2   HW0      0.679100        1.0080           
   29976 A    7494 TIP4 BD1  LP0     -1.358200        0.0000           
   29977 A    7495 TIP4 O1   OW0      0.000000       15.9990           
   29978 A    7495 TIP4 H1   HW0      0.679100        1.0080           
   29979 A    7495 TIP4 H2   HW0      0.679100        1.0080           
   29980 A    7495 TIP4 BD1  LP0     -1.358200        0.0000           
   29981 A    7496 TIP4 O1   OW0      0.000000       15.9990           
   29982 A    7496 TIP4 H1   HW0      0.679100        1.0080           
   29983 A    7496 TIP4 H2   HW0      0.679100        1.0080           
   29984 A    7496 TIP4 BD1  LP0     -1.358200        0.0000           
   29985 A    7497 TIP4 O1   OW0      0.000000       15.9990           
   29986 A    7497 TIP4 H1   HW0      0.679100        1.0080           
   29987 A    7497 TIP4 H2   HW0      0.679100        1.0080           
   29988 A    7497 TIP4 BD1  LP0     -1.358200        0.0000           
   29989 A    7498 TIP4 O1   OW0      0.000000       15.9990           
   29990 A    7498 TIP4 H1   HW0      0.679100        1.0080           
   29991 A    7498 TIP4 H2   HW0      0.679100        1.0080           
   29992 A    7498 TIP4 BD1  LP0     -1.358200        0.0000           
   29993 A    7499 TIP4 O1   OW0      0.000000       15.9990           
   29994 A    7499 TIP4 H1   HW0      0.679100        1.0080           
   29995 A    7499 TIP4 H2   HW0      0.679100        1.0080           
   29996 A    7499 TIP4 BD1  LP0     -1.358200        0.0000           
   29997 A    7500 TIP4 O1   OW0      0.000000       15.9990           
   29998 A    7500 TIP4 H1   HW0      0.679100        1.0080           
   29999 A    7500 TIP4 H2   HW0      0.679100        1.0080           
   30000 A    7500 TIP4 BD1  LP0     -1.358200        0.0000           
   30001 A    7501 TIP4 O1   OW0      0.000000       15.9990           
   30002 A    7501 TIP4 H1   HW0      0.679100        1.0080           
   30003 A    7501 TIP4 H2   HW0      0.679100        1.0080           
   30004 A    7501 TIP4 BD1  LP0     -1.358200        0.0000           
   30005 A    7502 TIP4 O1   OW0      0.000000       15.9990           
   30006 A    7502 TIP4 H1   HW0      0.679100        1.0080           
   30007 A    7502 TIP4 H2   HW0      0.679100        1.0080           
   30008 A    7502 TIP4 BD1  LP0     -1.358200        0.0000           
   30009 A    7503 TIP4 O1   OW0      0.000000       15.9990           
   30010 A    7503 TIP4 H1   HW0      0.679100        1.0080           
   30011 A    7503 TIP4 H2   HW0      0.679100        1.0080           
   30012 A    7503 TIP4 BD1  LP0     -1.358200        0.0000           
   30013 A    7504 TIP4 O1   OW0      0.000000       15.9990           
   30014 A    7504 TIP4 H1   HW0      0.679100        1.0080           
   30015 A    7504 TIP4 H2   HW0      0.679100        1.0080           
   30016 A    7504 TIP4 BD1  LP0     -1.358200        0.0000           
   30017 A    7505 TIP4 O1   OW0      0.000000       15.9990           
   30018 A    7505 TIP4 H1   HW0      0.679100        1.0080           
   30019 A    7505 TIP4 H2   HW0      0.679100        1.0080           
   30020 A    7505 TIP4 BD1  LP0     -1.358200        0.0000           
   30021 A    7506 TIP4 O1   OW0      0.000000       15.9990           
   30022 A    7506 TIP4 H1   HW0      0.679100        1.0080           
   30023 A    7506 TIP4 H2   HW0      0.679100        1.0080           
   30024 A    7506 TIP4 BD1  LP0     -1.358200        0.0000           
   30025 A    7507 TIP4 O1   OW0      0.000000       15.9990           
   30026 A    7507 TIP4 H1   HW0      0.679100        1.0080           
   30027 A    7507 TIP4 H2   HW0      0.679100        1.0080           
   30028 A    7507 TIP4 BD1  LP0     -1.358200        0.0000           
   30029 A    7508 TIP4 O1   OW0      0.000000       15.9990           
   30030 A    7508 TIP4 H1   HW0      0.679100        1.0080           
   30031 A    7508 TIP4 H2   HW0      0.679100        1.0080           
   30032 A    7508 TIP4 BD1  LP0     -1.358200        0.0000           
   30033 A    7509 TIP4 O1   OW0      0.000000       15.9990           
   30034 A    7509 TIP4 H1   HW0      0.679100        1.0080           
   30035 A    7509 TIP4 H2   HW0      0.679100        1.0080           
   30036 A    7509 TIP4 BD1  LP0     -1.358200        0.0000           
   30037 A    7510 TIP4 O1   OW0      0.000000       15.9990           
   30038 A    7510 TIP4 H1   HW0      0.679100        1.0080           
   30039 A    7510 TIP4 H2   HW0      0.679100        1.0080           
   30040 A    7510 TIP4 BD1  LP0     -1.358200        0.0000           
   30041 A    7511 TIP4 O1   OW0      0.000000       15.9990           
   30042 A    7511 TIP4 H1   HW0      0.679100        1.0080           
   30043 A    7511 TIP4 H2   HW0      0.679100        1.0080           
   30044 A    7511 TIP4 BD1  LP0     -1.358200        0.0000           
   30045 A    7512 TIP4 O1   OW0      0.000000       15.9990           
   30046 A    7512 TIP4 H1   HW0      0.679100        1.0080           
   30047 A    7512 TIP4 H2   HW0      0.679100        1.0080           
   30048 A    7512 TIP4 BD1  LP0     -1.358200        0.0000           
   30049 A    7513 TIP4 O1   OW0      0.000000       15.9990           
   30050 A    7513 TIP4 H1   HW0      0.679100        1.0080           
   30051 A    7513 TIP4 H2   HW0      0.679100        1.0080           
   30052 A    7513 TIP4 BD1  LP0     -1.358200        0.0000           
   30053 A    7514 TIP4 O1   OW0      0.000000       15.9990           
   30054 A    7514 TIP4 H1   HW0      0.679100        1.0080           
   30055 A    7514 TIP4 H2   HW0      0.679100        1.0080           
   30056 A    7514 TIP4 BD1  LP0     -1.358200        0.0000           
   30057 A    7515 TIP4 O1   OW0      0.000000       15.9990           
   30058 A    7515 TIP4 H1   HW0      0.679100        1.0080           
   30059 A    7515 TIP4 H2   HW0      0.679100        1.0080           
   30060 A    7515 TIP4 BD1  LP0     -1.358200        0.0000           
   30061 A    7516 TIP4 O1   OW0      0.000000       15.9990           
   30062 A    7516 TIP4 H1   HW0      0.679100        1.0080           
   30063 A    7516 TIP4 H2   HW0      0.679100        1.0080           
   30064 A    7516 TIP4 BD1  LP0     -1.358200        0.0000           
   30065 A    7517 TIP4 O1   OW0      0.000000       15.9990           
   30066 A    7517 TIP4 H1   HW0      0.679100        1.0080           
   30067 A    7517 TIP4 H2   HW0      0.679100        1.0080           
   30068 A    7517 TIP4 BD1  LP0     -1.358200        0.0000           
   30069 A    7518 TIP4 O1   OW0      0.000000       15.9990           
   30070 A    7518 TIP4 H1   HW0      0.679100        1.0080           
   30071 A    7518 TIP4 H2   HW0      0.679100        1.0080           
   30072 A    7518 TIP4 BD1  LP0     -1.358200        0.0000           
   30073 A    7519 TIP4 O1   OW0      0.000000       15.9990           
   30074 A    7519 TIP4 H1   HW0      0.679100        1.0080           
   30075 A    7519 TIP4 H2   HW0      0.679100        1.0080           
   30076 A    7519 TIP4 BD1  LP0     -1.358200        0.0000           
   30077 A    7520 TIP4 O1   OW0      0.000000       15.9990           
   30078 A    7520 TIP4 H1   HW0      0.679100        1.0080           
   30079 A    7520 TIP4 H2   HW0      0.679100        1.0080           
   30080 A    7520 TIP4 BD1  LP0     -1.358200        0.0000           
   30081 A    7521 TIP4 O1   OW0      0.000000       15.9990           
   30082 A    7521 TIP4 H1   HW0      0.679100        1.0080           
   30083 A    7521 TIP4 H2   HW0      0.679100        1.0080           
   30084 A    7521 TIP4 BD1  LP0     -1.358200        0.0000           
   30085 A    7522 TIP4 O1   OW0      0.000000       15.9990           
   30086 A    7522 TIP4 H1   HW0      0.679100        1.0080           
   30087 A    7522 TIP4 H2   HW0      0.679100        1.0080           
   30088 A    7522 TIP4 BD1  LP0     -1.358200        0.0000           
   30089 A    7523 TIP4 O1   OW0      0.000000       15.9990           
   30090 A    7523 TIP4 H1   HW0      0.679100        1.0080           
   30091 A    7523 TIP4 H2   HW0      0.679100        1.0080           
   30092 A    7523 TIP4 BD1  LP0     -1.358200        0.0000           
   30093 A    7524 TIP4 O1   OW0      0.000000       15.9990           
   30094 A    7524 TIP4 H1   HW0      0.679100        1.0080           
   30095 A    7524 TIP4 H2   HW0      0.679100        1.0080           
   30096 A    7524 TIP4 BD1  LP0     -1.358200        0.0000           
   30097 A    7525 TIP4 O1   OW0      0.000000       15.9990           
   30098 A    7525 TIP4 H1   HW0      0.679100        1.0080           
   30099 A    7525 TIP4 H2   HW0      0.679100        1.0080           
   30100 A    7525 TIP4 BD1  LP0     -1.358200        0.0000           
   30101 A    7526 TIP4 O1   OW0      0.000000       15.9990           
   30102 A    7526 TIP4 H1   HW0      0.679100        1.0080           
   30103 A    7526 TIP4 H2   HW0      0.679100        1.0080           
   30104 A    7526 TIP4 BD1  LP0     -1.358200        0.0000           
   30105 A    7527 TIP4 O1   OW0      0.000000       15.9990           
   30106 A    7527 TIP4 H1   HW0      0.679100        1.0080           
   30107 A    7527 TIP4 H2   HW0      0.679100        1.0080           
   30108 A    7527 TIP4 BD1  LP0     -1.358200        0.0000           
   30109 A    7528 TIP4 O1   OW0      0.000000       15.9990           
   30110 A    7528 TIP4 H1   HW0      0.679100        1.0080           
   30111 A    7528 TIP4 H2   HW0      0.679100        1.0080           
   30112 A    7528 TIP4 BD1  LP0     -1.358200        0.0000           
   30113 A    7529 TIP4 O1   OW0      0.000000       15.9990           
   30114 A    7529 TIP4 H1   HW0      0.679100        1.0080           
   30115 A    7529 TIP4 H2   HW0      0.679100        1.0080           
   30116 A    7529 TIP4 BD1  LP0     -1.358200        0.0000           
   30117 A    7530 TIP4 O1   OW0      0.000000       15.9990           
   30118 A    7530 TIP4 H1   HW0      0.679100        1.0080           
   30119 A    7530 TIP4 H2   HW0      0.679100        1.0080           
   30120 A    7530 TIP4 BD1  LP0     -1.358200        0.0000           
   30121 A    7531 TIP4 O1   OW0      0.000000       15.9990           
   30122 A    7531 TIP4 H1   HW0      0.679100        1.0080           
   30123 A    7531 TIP4 H2   HW0      0.679100        1.0080           
   30124 A    7531 TIP4 BD1  LP0     -1.358200        0.0000           
   30125 A    7532 TIP4 O1   OW0      0.000000       15.9990           
   30126 A    7532 TIP4 H1   HW0      0.679100        1.0080           
   30127 A    7532 TIP4 H2   HW0      0.679100        1.0080           
   30128 A    7532 TIP4 BD1  LP0     -1.358200        0.0000           
   30129 A    7533 TIP4 O1   OW0      0.000000       15.9990           
   30130 A    7533 TIP4 H1   HW0      0.679100        1.0080           
   30131 A    7533 TIP4 H2   HW0      0.679100        1.0080           
   30132 A    7533 TIP4 BD1  LP0     -1.358200        0.0000           
   30133 A    7534 TIP4 O1   OW0      0.000000       15.9990           
   30134 A    7534 TIP4 H1   HW0      0.679100        1.0080           
   30135 A    7534 TIP4 H2   HW0      0.679100        1.0080           
   30136 A    7534 TIP4 BD1  LP0     -1.358200        0.0000           
   30137 A    7535 TIP4 O1   OW0      0.000000       15.9990           
   30138 A    7535 TIP4 H1   HW0      0.679100        1.0080           
   30139 A    7535 TIP4 H2   HW0      0.679100        1.0080           
   30140 A    7535 TIP4 BD1  LP0     -1.358200        0.0000           
   30141 A    7536 TIP4 O1   OW0      0.000000       15.9990           
   30142 A    7536 TIP4 H1   HW0      0.679100        1.0080           
   30143 A    7536 TIP4 H2   HW0      0.679100        1.0080           
   30144 A    7536 TIP4 BD1  LP0     -1.358200        0.0000           
   30145 A    7537 TIP4 O1   OW0      0.000000       15.9990           
   30146 A    7537 TIP4 H1   HW0      0.679100        1.0080           
   30147 A    7537 TIP4 H2   HW0      0.679100        1.0080           
   30148 A    7537 TIP4 BD1  LP0     -1.358200        0.0000           
   30149 A    7538 TIP4 O1   OW0      0.000000       15.9990           
   30150 A    7538 TIP4 H1   HW0      0.679100        1.0080           
   30151 A    7538 TIP4 H2   HW0      0.679100        1.0080           
   30152 A    7538 TIP4 BD1  LP0     -1.358200        0.0000           
   30153 A    7539 TIP4 O1   OW0      0.000000       15.9990           
   30154 A    7539 TIP4 H1   HW0      0.679100        1.0080           
   30155 A    7539 TIP4 H2   HW0      0.679100        1.0080           
   30156 A    7539 TIP4 BD1  LP0     -1.358200        0.0000           
   30157 A    7540 TIP4 O1   OW0      0.000000       15.9990           
   30158 A    7540 TIP4 H1   HW0      0.679100        1.0080           
   30159 A    7540 TIP4 H2   HW0      0.679100        1.0080           
   30160 A    7540 TIP4 BD1  LP0     -1.358200        0.0000           
   30161 A    7541 TIP4 O1   OW0      0.000000       15.9990           
   30162 A    7541 TIP4 H1   HW0      0.679100        1.0080           
   30163 A    7541 TIP4 H2   HW0      0.679100        1.0080           
   30164 A    7541 TIP4 BD1  LP0     -1.358200        0.0000           
   30165 A    7542 TIP4 O1   OW0      0.000000       15.9990           
   30166 A    7542 TIP4 H1   HW0      0.679100        1.0080           
   30167 A    7542 TIP4 H2   HW0      0.679100        1.0080           
   30168 A    7542 TIP4 BD1  LP0     -1.358200        0.0000           
   30169 A    7543 TIP4 O1   OW0      0.000000       15.9990           
   30170 A    7543 TIP4 H1   HW0      0.679100        1.0080           
   30171 A    7543 TIP4 H2   HW0      0.679100        1.0080           
   30172 A    7543 TIP4 BD1  LP0     -1.358200        0.0000           
   30173 A    7544 TIP4 O1   OW0      0.000000       15.9990           
   30174 A    7544 TIP4 H1   HW0      0.679100        1.0080           
   30175 A    7544 TIP4 H2   HW0      0.679100        1.0080           
   30176 A    7544 TIP4 BD1  LP0     -1.358200        0.0000           
   30177 A    7545 TIP4 O1   OW0      0.000000       15.9990           
   30178 A    7545 TIP4 H1   HW0      0.679100        1.0080           
   30179 A    7545 TIP4 H2   HW0      0.679100        1.0080           
   30180 A    7545 TIP4 BD1  LP0     -1.358200        0.0000           
   30181 A    7546 TIP4 O1   OW0      0.000000       15.9990           
   30182 A    7546 TIP4 H1   HW0      0.679100        1.0080           
   30183 A    7546 TIP4 H2   HW0      0.679100        1.0080           
   30184 A    7546 TIP4 BD1  LP0     -1.358200        0.0000           
   30185 A    7547 TIP4 O1   OW0      0.000000       15.9990           
   30186 A    7547 TIP4 H1   HW0      0.679100        1.0080           
   30187 A    7547 TIP4 H2   HW0      0.679100        1.0080           
   30188 A    7547 TIP4 BD1  LP0     -1.358200        0.0000           
   30189 A    7548 TIP4 O1   OW0      0.000000       15.9990           
   30190 A    7548 TIP4 H1   HW0      0.679100        1.0080           
   30191 A    7548 TIP4 H2   HW0      0.679100        1.0080           
   30192 A    7548 TIP4 BD1  LP0     -1.358200        0.0000           
   30193 A    7549 TIP4 O1   OW0      0.000000       15.9990           
   30194 A    7549 TIP4 H1   HW0      0.679100        1.0080           
   30195 A    7549 TIP4 H2   HW0      0.679100        1.0080           
   30196 A    7549 TIP4 BD1  LP0     -1.358200        0.0000           
   30197 A    7550 TIP4 O1   OW0      0.000000       15.9990           
   30198 A    7550 TIP4 H1   HW0      0.679100        1.0080           
   30199 A    7550 TIP4 H2   HW0      0.679100        1.0080           
   30200 A    7550 TIP4 BD1  LP0     -1.358200        0.0000           
   30201 A    7551 TIP4 O1   OW0      0.000000       15.9990           
   30202 A    7551 TIP4 H1   HW0      0.679100        1.0080           
   30203 A    7551 TIP4 H2   HW0      0.679100        1.0080           
   30204 A    7551 TIP4 BD1  LP0     -1.358200        0.0000           
   30205 A    7552 TIP4 O1   OW0      0.000000       15.9990           
   30206 A    7552 TIP4 H1   HW0      0.679100        1.0080           
   30207 A    7552 TIP4 H2   HW0      0.679100        1.0080           
   30208 A    7552 TIP4 BD1  LP0     -1.358200        0.0000           
   30209 A    7553 TIP4 O1   OW0      0.000000       15.9990           
   30210 A    7553 TIP4 H1   HW0      0.679100        1.0080           
   30211 A    7553 TIP4 H2   HW0      0.679100        1.0080           
   30212 A    7553 TIP4 BD1  LP0     -1.358200        0.0000           
   30213 A    7554 TIP4 O1   OW0      0.000000       15.9990           
   30214 A    7554 TIP4 H1   HW0      0.679100        1.0080           
   30215 A    7554 TIP4 H2   HW0      0.679100        1.0080           
   30216 A    7554 TIP4 BD1  LP0     -1.358200        0.0000           
   30217 A    7555 TIP4 O1   OW0      0.000000       15.9990           
   30218 A    7555 TIP4 H1   HW0      0.679100        1.0080           
   30219 A    7555 TIP4 H2   HW0      0.679100        1.0080           
   30220 A    7555 TIP4 BD1  LP0     -1.358200        0.0000           
   30221 A    7556 TIP4 O1   OW0      0.000000       15.9990           
   30222 A    7556 TIP4 H1   HW0      0.679100        1.0080           
   30223 A    7556 TIP4 H2   HW0      0.679100        1.0080           
   30224 A    7556 TIP4 BD1  LP0     -1.358200        0.0000           
   30225 A    7557 TIP4 O1   OW0      0.000000       15.9990           
   30226 A    7557 TIP4 H1   HW0      0.679100        1.0080           
   30227 A    7557 TIP4 H2   HW0      0.679100        1.0080           
   30228 A    7557 TIP4 BD1  LP0     -1.358200        0.0000           
   30229 A    7558 TIP4 O1   OW0      0.000000       15.9990           
   30230 A    7558 TIP4 H1   HW0      0.679100        1.0080           
   30231 A    7558 TIP4 H2   HW0      0.679100        1.0080           
   30232 A    7558 TIP4 BD1  LP0     -1.358200        0.0000           
   30233 A    7559 TIP4 O1   OW0      0.000000       15.9990           
   30234 A    7559 TIP4 H1   HW0      0.679100        1.0080           
   30235 A    7559 TIP4 H2   HW0      0.679100        1.0080           
   30236 A    7559 TIP4 BD1  LP0     -1.358200        0.0000           
   30237 A    7560 TIP4 O1   OW0      0.000000       15.9990           
   30238 A    7560 TIP4 H1   HW0      0.679100        1.0080           
   30239 A    7560 TIP4 H2   HW0      0.679100        1.0080           
   30240 A    7560 TIP4 BD1  LP0     -1.358200        0.0000           
   30241 A    7561 TIP4 O1   OW0      0.000000       15.9990           
   30242 A    7561 TIP4 H1   HW0      0.679100        1.0080           
   30243 A    7561 TIP4 H2   HW0      0.679100        1.0080           
   30244 A    7561 TIP4 BD1  LP0     -1.358200        0.0000           
   30245 A    7562 TIP4 O1   OW0      0.000000       15.9990           
   30246 A    7562 TIP4 H1   HW0      0.679100        1.0080           
   30247 A    7562 TIP4 H2   HW0      0.679100        1.0080           
   30248 A    7562 TIP4 BD1  LP0     -1.358200        0.0000           
   30249 A    7563 TIP4 O1   OW0      0.000000       15.9990           
   30250 A    7563 TIP4 H1   HW0      0.679100        1.0080           
   30251 A    7563 TIP4 H2   HW0      0.679100        1.0080           
   30252 A    7563 TIP4 BD1  LP0     -1.358200        0.0000           
   30253 A    7564 TIP4 O1   OW0      0.000000       15.9990           
   30254 A    7564 TIP4 H1   HW0      0.679100        1.0080           
   30255 A    7564 TIP4 H2   HW0      0.679100        1.0080           
   30256 A    7564 TIP4 BD1  LP0     -1.358200        0.0000           
   30257 A    7565 TIP4 O1   OW0      0.000000       15.9990           
   30258 A    7565 TIP4 H1   HW0      0.679100        1.0080           
   30259 A    7565 TIP4 H2   HW0      0.679100        1.0080           
   30260 A    7565 TIP4 BD1  LP0     -1.358200        0.0000           
   30261 A    7566 TIP4 O1   OW0      0.000000       15.9990           
   30262 A    7566 TIP4 H1   HW0      0.679100        1.0080           
   30263 A    7566 TIP4 H2   HW0      0.679100        1.0080           
   30264 A    7566 TIP4 BD1  LP0     -1.358200        0.0000           
   30265 A    7567 TIP4 O1   OW0      0.000000       15.9990           
   30266 A    7567 TIP4 H1   HW0      0.679100        1.0080           
   30267 A    7567 TIP4 H2   HW0      0.679100        1.0080           
   30268 A    7567 TIP4 BD1  LP0     -1.358200        0.0000           
   30269 A    7568 TIP4 O1   OW0      0.000000       15.9990           
   30270 A    7568 TIP4 H1   HW0      0.679100        1.0080           
   30271 A    7568 TIP4 H2   HW0      0.679100        1.0080           
   30272 A    7568 TIP4 BD1  LP0     -1.358200        0.0000           
   30273 A    7569 TIP4 O1   OW0      0.000000       15.9990           
   30274 A    7569 TIP4 H1   HW0      0.679100        1.0080           
   30275 A    7569 TIP4 H2   HW0      0.679100        1.0080           
   30276 A    7569 TIP4 BD1  LP0     -1.358200        0.0000           
   30277 A    7570 TIP4 O1   OW0      0.000000       15.9990           
   30278 A    7570 TIP4 H1   HW0      0.679100        1.0080           
   30279 A    7570 TIP4 H2   HW0      0.679100        1.0080           
   30280 A    7570 TIP4 BD1  LP0     -1.358200        0.0000           
   30281 A    7571 TIP4 O1   OW0      0.000000       15.9990           
   30282 A    7571 TIP4 H1   HW0      0.679100        1.0080           
   30283 A    7571 TIP4 H2   HW0      0.679100        1.0080           
   30284 A    7571 TIP4 BD1  LP0     -1.358200        0.0000           
   30285 A    7572 TIP4 O1   OW0      0.000000       15.9990           
   30286 A    7572 TIP4 H1   HW0      0.679100        1.0080           
   30287 A    7572 TIP4 H2   HW0      0.679100        1.0080           
   30288 A    7572 TIP4 BD1  LP0     -1.358200        0.0000           
   30289 A    7573 TIP4 O1   OW0      0.000000       15.9990           
   30290 A    7573 TIP4 H1   HW0      0.679100        1.0080           
   30291 A    7573 TIP4 H2   HW0      0.679100        1.0080           
   30292 A    7573 TIP4 BD1  LP0     -1.358200        0.0000           
   30293 A    7574 TIP4 O1   OW0      0.000000       15.9990           
   30294 A    7574 TIP4 H1   HW0      0.679100        1.0080           
   30295 A    7574 TIP4 H2   HW0      0.679100        1.0080           
   30296 A    7574 TIP4 BD1  LP0     -1.358200        0.0000           
   30297 A    7575 TIP4 O1   OW0      0.000000       15.9990           
   30298 A    7575 TIP4 H1   HW0      0.679100        1.0080           
   30299 A    7575 TIP4 H2   HW0      0.679100        1.0080           
   30300 A    7575 TIP4 BD1  LP0     -1.358200        0.0000           
   30301 A    7576 TIP4 O1   OW0      0.000000       15.9990           
   30302 A    7576 TIP4 H1   HW0      0.679100        1.0080           
   30303 A    7576 TIP4 H2   HW0      0.679100        1.0080           
   30304 A    7576 TIP4 BD1  LP0     -1.358200        0.0000           
   30305 A    7577 TIP4 O1   OW0      0.000000       15.9990           
   30306 A    7577 TIP4 H1   HW0      0.679100        1.0080           
   30307 A    7577 TIP4 H2   HW0      0.679100        1.0080           
   30308 A    7577 TIP4 BD1  LP0     -1.358200        0.0000           
   30309 A    7578 TIP4 O1   OW0      0.000000       15.9990           
   30310 A    7578 TIP4 H1   HW0      0.679100        1.0080           
   30311 A    7578 TIP4 H2   HW0      0.679100        1.0080           
   30312 A    7578 TIP4 BD1  LP0     -1.358200        0.0000           
   30313 A    7579 TIP4 O1   OW0      0.000000       15.9990           
   30314 A    7579 TIP4 H1   HW0      0.679100        1.0080           
   30315 A    7579 TIP4 H2   HW0      0.679100        1.0080           
   30316 A    7579 TIP4 BD1  LP0     -1.358200        0.0000           
   30317 A    7580 TIP4 O1   OW0      0.000000       15.9990           
   30318 A    7580 TIP4 H1   HW0      0.679100        1.0080           
   30319 A    7580 TIP4 H2   HW0      0.679100        1.0080           
   30320 A    7580 TIP4 BD1  LP0     -1.358200        0.0000           
   30321 A    7581 TIP4 O1   OW0      0.000000       15.9990           
   30322 A    7581 TIP4 H1   HW0      0.679100        1.0080           
   30323 A    7581 TIP4 H2   HW0      0.679100        1.0080           
   30324 A    7581 TIP4 BD1  LP0     -1.358200        0.0000           
   30325 A    7582 TIP4 O1   OW0      0.000000       15.9990           
   30326 A    7582 TIP4 H1   HW0      0.679100        1.0080           
   30327 A    7582 TIP4 H2   HW0      0.679100        1.0080           
   30328 A    7582 TIP4 BD1  LP0     -1.358200        0.0000           
   30329 A    7583 TIP4 O1   OW0      0.000000       15.9990           
   30330 A    7583 TIP4 H1   HW0      0.679100        1.0080           
   30331 A    7583 TIP4 H2   HW0      0.679100        1.0080           
   30332 A    7583 TIP4 BD1  LP0     -1.358200        0.0000           
   30333 A    7584 TIP4 O1   OW0      0.000000       15.9990           
   30334 A    7584 TIP4 H1   HW0      0.679100        1.0080           
   30335 A    7584 TIP4 H2   HW0      0.679100        1.0080           
   30336 A    7584 TIP4 BD1  LP0     -1.358200        0.0000           
   30337 A    7585 TIP4 O1   OW0      0.000000       15.9990           
   30338 A    7585 TIP4 H1   HW0      0.679100        1.0080           
   30339 A    7585 TIP4 H2   HW0      0.679100        1.0080           
   30340 A    7585 TIP4 BD1  LP0     -1.358200        0.0000           
   30341 A    7586 TIP4 O1   OW0      0.000000       15.9990           
   30342 A    7586 TIP4 H1   HW0      0.679100        1.0080           
   30343 A    7586 TIP4 H2   HW0      0.679100        1.0080           
   30344 A    7586 TIP4 BD1  LP0     -1.358200        0.0000           
   30345 A    7587 TIP4 O1   OW0      0.000000       15.9990           
   30346 A    7587 TIP4 H1   HW0      0.679100        1.0080           
   30347 A    7587 TIP4 H2   HW0      0.679100        1.0080           
   30348 A    7587 TIP4 BD1  LP0     -1.358200        0.0000           
   30349 A    7588 TIP4 O1   OW0      0.000000       15.9990           
   30350 A    7588 TIP4 H1   HW0      0.679100        1.0080           
   30351 A    7588 TIP4 H2   HW0      0.679100        1.0080           
   30352 A    7588 TIP4 BD1  LP0     -1.358200        0.0000           
   30353 A    7589 TIP4 O1   OW0      0.000000       15.9990           
   30354 A    7589 TIP4 H1   HW0      0.679100        1.0080           
   30355 A    7589 TIP4 H2   HW0      0.679100        1.0080           
   30356 A    7589 TIP4 BD1  LP0     -1.358200        0.0000           
   30357 A    7590 TIP4 O1   OW0      0.000000       15.9990           
   30358 A    7590 TIP4 H1   HW0      0.679100        1.0080           
   30359 A    7590 TIP4 H2   HW0      0.679100        1.0080           
   30360 A    7590 TIP4 BD1  LP0     -1.358200        0.0000           
   30361 A    7591 TIP4 O1   OW0      0.000000       15.9990           
   30362 A    7591 TIP4 H1   HW0      0.679100        1.0080           
   30363 A    7591 TIP4 H2   HW0      0.679100        1.0080           
   30364 A    7591 TIP4 BD1  LP0     -1.358200        0.0000           
   30365 A    7592 TIP4 O1   OW0      0.000000       15.9990           
   30366 A    7592 TIP4 H1   HW0      0.679100        1.0080           
   30367 A    7592 TIP4 H2   HW0      0.679100        1.0080           
   30368 A    7592 TIP4 BD1  LP0     -1.358200        0.0000           
   30369 A    7593 TIP4 O1   OW0      0.000000       15.9990           
   30370 A    7593 TIP4 H1   HW0      0.679100        1.0080           
   30371 A    7593 TIP4 H2   HW0      0.679100        1.0080           
   30372 A    7593 TIP4 BD1  LP0     -1.358200        0.0000           
   30373 A    7594 TIP4 O1   OW0      0.000000       15.9990           
   30374 A    7594 TIP4 H1   HW0      0.679100        1.0080           
   30375 A    7594 TIP4 H2   HW0      0.679100        1.0080           
   30376 A    7594 TIP4 BD1  LP0     -1.358200        0.0000           
   30377 A    7595 TIP4 O1   OW0      0.000000       15.9990           
   30378 A    7595 TIP4 H1   HW0      0.679100        1.0080           
   30379 A    7595 TIP4 H2   HW0      0.679100        1.0080           
   30380 A    7595 TIP4 BD1  LP0     -1.358200        0.0000           
   30381 A    7596 TIP4 O1   OW0      0.000000       15.9990           
   30382 A    7596 TIP4 H1   HW0      0.679100        1.0080           
   30383 A    7596 TIP4 H2   HW0      0.679100        1.0080           
   30384 A    7596 TIP4 BD1  LP0     -1.358200        0.0000           
   30385 A    7597 TIP4 O1   OW0      0.000000       15.9990           
   30386 A    7597 TIP4 H1   HW0      0.679100        1.0080           
   30387 A    7597 TIP4 H2   HW0      0.679100        1.0080           
   30388 A    7597 TIP4 BD1  LP0     -1.358200        0.0000           
   30389 A    7598 TIP4 O1   OW0      0.000000       15.9990           
   30390 A    7598 TIP4 H1   HW0      0.679100        1.0080           
   30391 A    7598 TIP4 H2   HW0      0.679100        1.0080           
   30392 A    7598 TIP4 BD1  LP0     -1.358200        0.0000           
   30393 A    7599 TIP4 O1   OW0      0.000000       15.9990           
   30394 A    7599 TIP4 H1   HW0      0.679100        1.0080           
   30395 A    7599 TIP4 H2   HW0      0.679100        1.0080           
   30396 A    7599 TIP4 BD1  LP0     -1.358200        0.0000           
   30397 A    7600 TIP4 O1   OW0      0.000000       15.9990           
   30398 A    7600 TIP4 H1   HW0      0.679100        1.0080           
   30399 A    7600 TIP4 H2   HW0      0.679100        1.0080           
   30400 A    7600 TIP4 BD1  LP0     -1.358200        0.0000           
   30401 A    7601 TIP4 O1   OW0      0.000000       15.9990           
   30402 A    7601 TIP4 H1   HW0      0.679100        1.0080           
   30403 A    7601 TIP4 H2   HW0      0.679100        1.0080           
   30404 A    7601 TIP4 BD1  LP0     -1.358200        0.0000           
   30405 A    7602 TIP4 O1   OW0      0.000000       15.9990           
   30406 A    7602 TIP4 H1   HW0      0.679100        1.0080           
   30407 A    7602 TIP4 H2   HW0      0.679100        1.0080           
   30408 A    7602 TIP4 BD1  LP0     -1.358200        0.0000           
   30409 A    7603 TIP4 O1   OW0      0.000000       15.9990           
   30410 A    7603 TIP4 H1   HW0      0.679100        1.0080           
   30411 A    7603 TIP4 H2   HW0      0.679100        1.0080           
   30412 A    7603 TIP4 BD1  LP0     -1.358200        0.0000           
   30413 A    7604 TIP4 O1   OW0      0.000000       15.9990           
   30414 A    7604 TIP4 H1   HW0      0.679100        1.0080           
   30415 A    7604 TIP4 H2   HW0      0.679100        1.0080           
   30416 A    7604 TIP4 BD1  LP0     -1.358200        0.0000           
   30417 A    7605 TIP4 O1   OW0      0.000000       15.9990           
   30418 A    7605 TIP4 H1   HW0      0.679100        1.0080           
   30419 A    7605 TIP4 H2   HW0      0.679100        1.0080           
   30420 A    7605 TIP4 BD1  LP0     -1.358200        0.0000           
   30421 A    7606 TIP4 O1   OW0      0.000000       15.9990           
   30422 A    7606 TIP4 H1   HW0      0.679100        1.0080           
   30423 A    7606 TIP4 H2   HW0      0.679100        1.0080           
   30424 A    7606 TIP4 BD1  LP0     -1.358200        0.0000           
   30425 A    7607 TIP4 O1   OW0      0.000000       15.9990           
   30426 A    7607 TIP4 H1   HW0      0.679100        1.0080           
   30427 A    7607 TIP4 H2   HW0      0.679100        1.0080           
   30428 A    7607 TIP4 BD1  LP0     -1.358200        0.0000           
   30429 A    7608 TIP4 O1   OW0      0.000000       15.9990           
   30430 A    7608 TIP4 H1   HW0      0.679100        1.0080           
   30431 A    7608 TIP4 H2   HW0      0.679100        1.0080           
   30432 A    7608 TIP4 BD1  LP0     -1.358200        0.0000           
   30433 A    7609 TIP4 O1   OW0      0.000000       15.9990           
   30434 A    7609 TIP4 H1   HW0      0.679100        1.0080           
   30435 A    7609 TIP4 H2   HW0      0.679100        1.0080           
   30436 A    7609 TIP4 BD1  LP0     -1.358200        0.0000           
   30437 A    7610 TIP4 O1   OW0      0.000000       15.9990           
   30438 A    7610 TIP4 H1   HW0      0.679100        1.0080           
   30439 A    7610 TIP4 H2   HW0      0.679100        1.0080           
   30440 A    7610 TIP4 BD1  LP0     -1.358200        0.0000           
   30441 A    7611 TIP4 O1   OW0      0.000000       15.9990           
   30442 A    7611 TIP4 H1   HW0      0.679100        1.0080           
   30443 A    7611 TIP4 H2   HW0      0.679100        1.0080           
   30444 A    7611 TIP4 BD1  LP0     -1.358200        0.0000           
   30445 A    7612 TIP4 O1   OW0      0.000000       15.9990           
   30446 A    7612 TIP4 H1   HW0      0.679100        1.0080           
   30447 A    7612 TIP4 H2   HW0      0.679100        1.0080           
   30448 A    7612 TIP4 BD1  LP0     -1.358200        0.0000           
   30449 A    7613 TIP4 O1   OW0      0.000000       15.9990           
   30450 A    7613 TIP4 H1   HW0      0.679100        1.0080           
   30451 A    7613 TIP4 H2   HW0      0.679100        1.0080           
   30452 A    7613 TIP4 BD1  LP0     -1.358200        0.0000           
   30453 A    7614 TIP4 O1   OW0      0.000000       15.9990           
   30454 A    7614 TIP4 H1   HW0      0.679100        1.0080           
   30455 A    7614 TIP4 H2   HW0      0.679100        1.0080           
   30456 A    7614 TIP4 BD1  LP0     -1.358200        0.0000           
   30457 A    7615 TIP4 O1   OW0      0.000000       15.9990           
   30458 A    7615 TIP4 H1   HW0      0.679100        1.0080           
   30459 A    7615 TIP4 H2   HW0      0.679100        1.0080           
   30460 A    7615 TIP4 BD1  LP0     -1.358200        0.0000           
   30461 A    7616 TIP4 O1   OW0      0.000000       15.9990           
   30462 A    7616 TIP4 H1   HW0      0.679100        1.0080           
   30463 A    7616 TIP4 H2   HW0      0.679100        1.0080           
   30464 A    7616 TIP4 BD1  LP0     -1.358200        0.0000           
   30465 A    7617 TIP4 O1   OW0      0.000000       15.9990           
   30466 A    7617 TIP4 H1   HW0      0.679100        1.0080           
   30467 A    7617 TIP4 H2   HW0      0.679100        1.0080           
   30468 A    7617 TIP4 BD1  LP0     -1.358200        0.0000           
   30469 A    7618 TIP4 O1   OW0      0.000000       15.9990           
   30470 A    7618 TIP4 H1   HW0      0.679100        1.0080           
   30471 A    7618 TIP4 H2   HW0      0.679100        1.0080           
   30472 A    7618 TIP4 BD1  LP0     -1.358200        0.0000           
   30473 A    7619 TIP4 O1   OW0      0.000000       15.9990           
   30474 A    7619 TIP4 H1   HW0      0.679100        1.0080           
   30475 A    7619 TIP4 H2   HW0      0.679100        1.0080           
   30476 A    7619 TIP4 BD1  LP0     -1.358200        0.0000           
   30477 A    7620 TIP4 O1   OW0      0.000000       15.9990           
   30478 A    7620 TIP4 H1   HW0      0.679100        1.0080           
   30479 A    7620 TIP4 H2   HW0      0.679100        1.0080           
   30480 A    7620 TIP4 BD1  LP0     -1.358200        0.0000           
   30481 A    7621 TIP4 O1   OW0      0.000000       15.9990           
   30482 A    7621 TIP4 H1   HW0      0.679100        1.0080           
   30483 A    7621 TIP4 H2   HW0      0.679100        1.0080           
   30484 A    7621 TIP4 BD1  LP0     -1.358200        0.0000           
   30485 A    7622 TIP4 O1   OW0      0.000000       15.9990           
   30486 A    7622 TIP4 H1   HW0      0.679100        1.0080           
   30487 A    7622 TIP4 H2   HW0      0.679100        1.0080           
   30488 A    7622 TIP4 BD1  LP0     -1.358200        0.0000           
   30489 A    7623 TIP4 O1   OW0      0.000000       15.9990           
   30490 A    7623 TIP4 H1   HW0      0.679100        1.0080           
   30491 A    7623 TIP4 H2   HW0      0.679100        1.0080           
   30492 A    7623 TIP4 BD1  LP0     -1.358200        0.0000           
   30493 A    7624 TIP4 O1   OW0      0.000000       15.9990           
   30494 A    7624 TIP4 H1   HW0      0.679100        1.0080           
   30495 A    7624 TIP4 H2   HW0      0.679100        1.0080           
   30496 A    7624 TIP4 BD1  LP0     -1.358200        0.0000           
   30497 A    7625 TIP4 O1   OW0      0.000000       15.9990           
   30498 A    7625 TIP4 H1   HW0      0.679100        1.0080           
   30499 A    7625 TIP4 H2   HW0      0.679100        1.0080           
   30500 A    7625 TIP4 BD1  LP0     -1.358200        0.0000           
   30501 A    7626 TIP4 O1   OW0      0.000000       15.9990           
   30502 A    7626 TIP4 H1   HW0      0.679100        1.0080           
   30503 A    7626 TIP4 H2   HW0      0.679100        1.0080           
   30504 A    7626 TIP4 BD1  LP0     -1.358200        0.0000           
   30505 A    7627 TIP4 O1   OW0      0.000000       15.9990           
   30506 A    7627 TIP4 H1   HW0      0.679100        1.0080           
   30507 A    7627 TIP4 H2   HW0      0.679100        1.0080           
   30508 A    7627 TIP4 BD1  LP0     -1.358200        0.0000           
   30509 A    7628 TIP4 O1   OW0      0.000000       15.9990           
   30510 A    7628 TIP4 H1   HW0      0.679100        1.0080           
   30511 A    7628 TIP4 H2   HW0      0.679100        1.0080           
   30512 A    7628 TIP4 BD1  LP0     -1.358200        0.0000           
   30513 A    7629 TIP4 O1   OW0      0.000000       15.9990           
   30514 A    7629 TIP4 H1   HW0      0.679100        1.0080           
   30515 A    7629 TIP4 H2   HW0      0.679100        1.0080           
   30516 A    7629 TIP4 BD1  LP0     -1.358200        0.0000           
   30517 A    7630 TIP4 O1   OW0      0.000000       15.9990           
   30518 A    7630 TIP4 H1   HW0      0.679100        1.0080           
   30519 A    7630 TIP4 H2   HW0      0.679100        1.0080           
   30520 A    7630 TIP4 BD1  LP0     -1.358200        0.0000           
   30521 A    7631 TIP4 O1   OW0      0.000000       15.9990           
   30522 A    7631 TIP4 H1   HW0      0.679100        1.0080           
   30523 A    7631 TIP4 H2   HW0      0.679100        1.0080           
   30524 A    7631 TIP4 BD1  LP0     -1.358200        0.0000           
   30525 A    7632 TIP4 O1   OW0      0.000000       15.9990           
   30526 A    7632 TIP4 H1   HW0      0.679100        1.0080           
   30527 A    7632 TIP4 H2   HW0      0.679100        1.0080           
   30528 A    7632 TIP4 BD1  LP0     -1.358200        0.0000           
   30529 A    7633 TIP4 O1   OW0      0.000000       15.9990           
   30530 A    7633 TIP4 H1   HW0      0.679100        1.0080           
   30531 A    7633 TIP4 H2   HW0      0.679100        1.0080           
   30532 A    7633 TIP4 BD1  LP0     -1.358200        0.0000           
   30533 A    7634 TIP4 O1   OW0      0.000000       15.9990           
   30534 A    7634 TIP4 H1   HW0      0.679100        1.0080           
   30535 A    7634 TIP4 H2   HW0      0.679100        1.0080           
   30536 A    7634 TIP4 BD1  LP0     -1.358200        0.0000           
   30537 A    7635 TIP4 O1   OW0      0.000000       15.9990           
   30538 A    7635 TIP4 H1   HW0      0.679100        1.0080           
   30539 A    7635 TIP4 H2   HW0      0.679100        1.0080           
   30540 A    7635 TIP4 BD1  LP0     -1.358200        0.0000           
   30541 A    7636 TIP4 O1   OW0      0.000000       15.9990           
   30542 A    7636 TIP4 H1   HW0      0.679100        1.0080           
   30543 A    7636 TIP4 H2   HW0      0.679100        1.0080           
   30544 A    7636 TIP4 BD1  LP0     -1.358200        0.0000           
   30545 A    7637 TIP4 O1   OW0      0.000000       15.9990           
   30546 A    7637 TIP4 H1   HW0      0.679100        1.0080           
   30547 A    7637 TIP4 H2   HW0      0.679100        1.0080           
   30548 A    7637 TIP4 BD1  LP0     -1.358200        0.0000           
   30549 A    7638 TIP4 O1   OW0      0.000000       15.9990           
   30550 A    7638 TIP4 H1   HW0      0.679100        1.0080           
   30551 A    7638 TIP4 H2   HW0      0.679100        1.0080           
   30552 A    7638 TIP4 BD1  LP0     -1.358200        0.0000           
   30553 A    7639 TIP4 O1   OW0      0.000000       15.9990           
   30554 A    7639 TIP4 H1   HW0      0.679100        1.0080           
   30555 A    7639 TIP4 H2   HW0      0.679100        1.0080           
   30556 A    7639 TIP4 BD1  LP0     -1.358200        0.0000           
   30557 A    7640 TIP4 O1   OW0      0.000000       15.9990           
   30558 A    7640 TIP4 H1   HW0      0.679100        1.0080           
   30559 A    7640 TIP4 H2   HW0      0.679100        1.0080           
   30560 A    7640 TIP4 BD1  LP0     -1.358200        0.0000           
   30561 A    7641 TIP4 O1   OW0      0.000000       15.9990           
   30562 A    7641 TIP4 H1   HW0      0.679100        1.0080           
   30563 A    7641 TIP4 H2   HW0      0.679100        1.0080           
   30564 A    7641 TIP4 BD1  LP0     -1.358200        0.0000           
   30565 A    7642 TIP4 O1   OW0      0.000000       15.9990           
   30566 A    7642 TIP4 H1   HW0      0.679100        1.0080           
   30567 A    7642 TIP4 H2   HW0      0.679100        1.0080           
   30568 A    7642 TIP4 BD1  LP0     -1.358200        0.0000           
   30569 A    7643 TIP4 O1   OW0      0.000000       15.9990           
   30570 A    7643 TIP4 H1   HW0      0.679100        1.0080           
   30571 A    7643 TIP4 H2   HW0      0.679100        1.0080           
   30572 A    7643 TIP4 BD1  LP0     -1.358200        0.0000           
   30573 A    7644 TIP4 O1   OW0      0.000000       15.9990           
   30574 A    7644 TIP4 H1   HW0      0.679100        1.0080           
   30575 A    7644 TIP4 H2   HW0      0.679100        1.0080           
   30576 A    7644 TIP4 BD1  LP0     -1.358200        0.0000           
   30577 A    7645 TIP4 O1   OW0      0.000000       15.9990           
   30578 A    7645 TIP4 H1   HW0      0.679100        1.0080           
   30579 A    7645 TIP4 H2   HW0      0.679100        1.0080           
   30580 A    7645 TIP4 BD1  LP0     -1.358200        0.0000           
   30581 A    7646 TIP4 O1   OW0      0.000000       15.9990           
   30582 A    7646 TIP4 H1   HW0      0.679100        1.0080           
   30583 A    7646 TIP4 H2   HW0      0.679100        1.0080           
   30584 A    7646 TIP4 BD1  LP0     -1.358200        0.0000           
   30585 A    7647 TIP4 O1   OW0      0.000000       15.9990           
   30586 A    7647 TIP4 H1   HW0      0.679100        1.0080           
   30587 A    7647 TIP4 H2   HW0      0.679100        1.0080           
   30588 A    7647 TIP4 BD1  LP0     -1.358200        0.0000           
   30589 A    7648 TIP4 O1   OW0      0.000000       15.9990           
   30590 A    7648 TIP4 H1   HW0      0.679100        1.0080           
   30591 A    7648 TIP4 H2   HW0      0.679100        1.0080           
   30592 A    7648 TIP4 BD1  LP0     -1.358200        0.0000           
   30593 A    7649 TIP4 O1   OW0      0.000000       15.9990           
   30594 A    7649 TIP4 H1   HW0      0.679100        1.0080           
   30595 A    7649 TIP4 H2   HW0      0.679100        1.0080           
   30596 A    7649 TIP4 BD1  LP0     -1.358200        0.0000           
   30597 A    7650 TIP4 O1   OW0      0.000000       15.9990           
   30598 A    7650 TIP4 H1   HW0      0.679100        1.0080           
   30599 A    7650 TIP4 H2   HW0      0.679100        1.0080           
   30600 A    7650 TIP4 BD1  LP0     -1.358200        0.0000           
   30601 A    7651 TIP4 O1   OW0      0.000000       15.9990           
   30602 A    7651 TIP4 H1   HW0      0.679100        1.0080           
   30603 A    7651 TIP4 H2   HW0      0.679100        1.0080           
   30604 A    7651 TIP4 BD1  LP0     -1.358200        0.0000           
   30605 A    7652 TIP4 O1   OW0      0.000000       15.9990           
   30606 A    7652 TIP4 H1   HW0      0.679100        1.0080           
   30607 A    7652 TIP4 H2   HW0      0.679100        1.0080           
   30608 A    7652 TIP4 BD1  LP0     -1.358200        0.0000           
   30609 A    7653 TIP4 O1   OW0      0.000000       15.9990           
   30610 A    7653 TIP4 H1   HW0      0.679100        1.0080           
   30611 A    7653 TIP4 H2   HW0      0.679100        1.0080           
   30612 A    7653 TIP4 BD1  LP0     -1.358200        0.0000           
   30613 A    7654 TIP4 O1   OW0      0.000000       15.9990           
   30614 A    7654 TIP4 H1   HW0      0.679100        1.0080           
   30615 A    7654 TIP4 H2   HW0      0.679100        1.0080           
   30616 A    7654 TIP4 BD1  LP0     -1.358200        0.0000           
   30617 A    7655 TIP4 O1   OW0      0.000000       15.9990           
   30618 A    7655 TIP4 H1   HW0      0.679100        1.0080           
   30619 A    7655 TIP4 H2   HW0      0.679100        1.0080           
   30620 A    7655 TIP4 BD1  LP0     -1.358200        0.0000           
   30621 A    7656 TIP4 O1   OW0      0.000000       15.9990           
   30622 A    7656 TIP4 H1   HW0      0.679100        1.0080           
   30623 A    7656 TIP4 H2   HW0      0.679100        1.0080           
   30624 A    7656 TIP4 BD1  LP0     -1.358200        0.0000           
   30625 A    7657 TIP4 O1   OW0      0.000000       15.9990           
   30626 A    7657 TIP4 H1   HW0      0.679100        1.0080           
   30627 A    7657 TIP4 H2   HW0      0.679100        1.0080           
   30628 A    7657 TIP4 BD1  LP0     -1.358200        0.0000           
   30629 A    7658 TIP4 O1   OW0      0.000000       15.9990           
   30630 A    7658 TIP4 H1   HW0      0.679100        1.0080           
   30631 A    7658 TIP4 H2   HW0      0.679100        1.0080           
   30632 A    7658 TIP4 BD1  LP0     -1.358200        0.0000           
   30633 A    7659 TIP4 O1   OW0      0.000000       15.9990           
   30634 A    7659 TIP4 H1   HW0      0.679100        1.0080           
   30635 A    7659 TIP4 H2   HW0      0.679100        1.0080           
   30636 A    7659 TIP4 BD1  LP0     -1.358200        0.0000           
   30637 A    7660 TIP4 O1   OW0      0.000000       15.9990           
   30638 A    7660 TIP4 H1   HW0      0.679100        1.0080           
   30639 A    7660 TIP4 H2   HW0      0.679100        1.0080           
   30640 A    7660 TIP4 BD1  LP0     -1.358200        0.0000           
   30641 A    7661 TIP4 O1   OW0      0.000000       15.9990           
   30642 A    7661 TIP4 H1   HW0      0.679100        1.0080           
   30643 A    7661 TIP4 H2   HW0      0.679100        1.0080           
   30644 A    7661 TIP4 BD1  LP0     -1.358200        0.0000           
   30645 A    7662 TIP4 O1   OW0      0.000000       15.9990           
   30646 A    7662 TIP4 H1   HW0      0.679100        1.0080           
   30647 A    7662 TIP4 H2   HW0      0.679100        1.0080           
   30648 A    7662 TIP4 BD1  LP0     -1.358200        0.0000           
   30649 A    7663 TIP4 O1   OW0      0.000000       15.9990           
   30650 A    7663 TIP4 H1   HW0      0.679100        1.0080           
   30651 A    7663 TIP4 H2   HW0      0.679100        1.0080           
   30652 A    7663 TIP4 BD1  LP0     -1.358200        0.0000           
   30653 A    7664 TIP4 O1   OW0      0.000000       15.9990           
   30654 A    7664 TIP4 H1   HW0      0.679100        1.0080           
   30655 A    7664 TIP4 H2   HW0      0.679100        1.0080           
   30656 A    7664 TIP4 BD1  LP0     -1.358200        0.0000           
   30657 A    7665 TIP4 O1   OW0      0.000000       15.9990           
   30658 A    7665 TIP4 H1   HW0      0.679100        1.0080           
   30659 A    7665 TIP4 H2   HW0      0.679100        1.0080           
   30660 A    7665 TIP4 BD1  LP0     -1.358200        0.0000           
   30661 A    7666 TIP4 O1   OW0      0.000000       15.9990           
   30662 A    7666 TIP4 H1   HW0      0.679100        1.0080           
   30663 A    7666 TIP4 H2   HW0      0.679100        1.0080           
   30664 A    7666 TIP4 BD1  LP0     -1.358200        0.0000           
   30665 A    7667 TIP4 O1   OW0      0.000000       15.9990           
   30666 A    7667 TIP4 H1   HW0      0.679100        1.0080           
   30667 A    7667 TIP4 H2   HW0      0.679100        1.0080           
   30668 A    7667 TIP4 BD1  LP0     -1.358200        0.0000           
   30669 A    7668 TIP4 O1   OW0      0.000000       15.9990           
   30670 A    7668 TIP4 H1   HW0      0.679100        1.0080           
   30671 A    7668 TIP4 H2   HW0      0.679100        1.0080           
   30672 A    7668 TIP4 BD1  LP0     -1.358200        0.0000           
   30673 A    7669 TIP4 O1   OW0      0.000000       15.9990           
   30674 A    7669 TIP4 H1   HW0      0.679100        1.0080           
   30675 A    7669 TIP4 H2   HW0      0.679100        1.0080           
   30676 A    7669 TIP4 BD1  LP0     -1.358200        0.0000           
   30677 A    7670 TIP4 O1   OW0      0.000000       15.9990           
   30678 A    7670 TIP4 H1   HW0      0.679100        1.0080           
   30679 A    7670 TIP4 H2   HW0      0.679100        1.0080           
   30680 A    7670 TIP4 BD1  LP0     -1.358200        0.0000           
   30681 A    7671 TIP4 O1   OW0      0.000000       15.9990           
   30682 A    7671 TIP4 H1   HW0      0.679100        1.0080           
   30683 A    7671 TIP4 H2   HW0      0.679100        1.0080           
   30684 A    7671 TIP4 BD1  LP0     -1.358200        0.0000           
   30685 A    7672 TIP4 O1   OW0      0.000000       15.9990           
   30686 A    7672 TIP4 H1   HW0      0.679100        1.0080           
   30687 A    7672 TIP4 H2   HW0      0.679100        1.0080           
   30688 A    7672 TIP4 BD1  LP0     -1.358200        0.0000           
   30689 A    7673 TIP4 O1   OW0      0.000000       15.9990           
   30690 A    7673 TIP4 H1   HW0      0.679100        1.0080           
   30691 A    7673 TIP4 H2   HW0      0.679100        1.0080           
   30692 A    7673 TIP4 BD1  LP0     -1.358200        0.0000           
   30693 A    7674 TIP4 O1   OW0      0.000000       15.9990           
   30694 A    7674 TIP4 H1   HW0      0.679100        1.0080           
   30695 A    7674 TIP4 H2   HW0      0.679100        1.0080           
   30696 A    7674 TIP4 BD1  LP0     -1.358200        0.0000           
   30697 A    7675 TIP4 O1   OW0      0.000000       15.9990           
   30698 A    7675 TIP4 H1   HW0      0.679100        1.0080           
   30699 A    7675 TIP4 H2   HW0      0.679100        1.0080           
   30700 A    7675 TIP4 BD1  LP0     -1.358200        0.0000           
   30701 A    7676 TIP4 O1   OW0      0.000000       15.9990           
   30702 A    7676 TIP4 H1   HW0      0.679100        1.0080           
   30703 A    7676 TIP4 H2   HW0      0.679100        1.0080           
   30704 A    7676 TIP4 BD1  LP0     -1.358200        0.0000           
   30705 A    7677 TIP4 O1   OW0      0.000000       15.9990           
   30706 A    7677 TIP4 H1   HW0      0.679100        1.0080           
   30707 A    7677 TIP4 H2   HW0      0.679100        1.0080           
   30708 A    7677 TIP4 BD1  LP0     -1.358200        0.0000           
   30709 A    7678 TIP4 O1   OW0      0.000000       15.9990           
   30710 A    7678 TIP4 H1   HW0      0.679100        1.0080           
   30711 A    7678 TIP4 H2   HW0      0.679100        1.0080           
   30712 A    7678 TIP4 BD1  LP0     -1.358200        0.0000           
   30713 A    7679 TIP4 O1   OW0      0.000000       15.9990           
   30714 A    7679 TIP4 H1   HW0      0.679100        1.0080           
   30715 A    7679 TIP4 H2   HW0      0.679100        1.0080           
   30716 A    7679 TIP4 BD1  LP0     -1.358200        0.0000           
   30717 A    7680 TIP4 O1   OW0      0.000000       15.9990           
   30718 A    7680 TIP4 H1   HW0      0.679100        1.0080           
   30719 A    7680 TIP4 H2   HW0      0.679100        1.0080           
   30720 A    7680 TIP4 BD1  LP0     -1.358200        0.0000           
   30721 A    7681 TIP4 O1   OW0      0.000000       15.9990           
   30722 A    7681 TIP4 H1   HW0      0.679100        1.0080           
   30723 A    7681 TIP4 H2   HW0      0.679100        1.0080           
   30724 A    7681 TIP4 BD1  LP0     -1.358200        0.0000           
   30725 A    7682 TIP4 O1   OW0      0.000000       15.9990           
   30726 A    7682 TIP4 H1   HW0      0.679100        1.0080           
   30727 A    7682 TIP4 H2   HW0      0.679100        1.0080           
   30728 A    7682 TIP4 BD1  LP0     -1.358200        0.0000           
   30729 A    7683 TIP4 O1   OW0      0.000000       15.9990           
   30730 A    7683 TIP4 H1   HW0      0.679100        1.0080           
   30731 A    7683 TIP4 H2   HW0      0.679100        1.0080           
   30732 A    7683 TIP4 BD1  LP0     -1.358200        0.0000           
   30733 A    7684 TIP4 O1   OW0      0.000000       15.9990           
   30734 A    7684 TIP4 H1   HW0      0.679100        1.0080           
   30735 A    7684 TIP4 H2   HW0      0.679100        1.0080           
   30736 A    7684 TIP4 BD1  LP0     -1.358200        0.0000           
   30737 A    7685 TIP4 O1   OW0      0.000000       15.9990           
   30738 A    7685 TIP4 H1   HW0      0.679100        1.0080           
   30739 A    7685 TIP4 H2   HW0      0.679100        1.0080           
   30740 A    7685 TIP4 BD1  LP0     -1.358200        0.0000           
   30741 A    7686 TIP4 O1   OW0      0.000000       15.9990           
   30742 A    7686 TIP4 H1   HW0      0.679100        1.0080           
   30743 A    7686 TIP4 H2   HW0      0.679100        1.0080           
   30744 A    7686 TIP4 BD1  LP0     -1.358200        0.0000           
   30745 A    7687 TIP4 O1   OW0      0.000000       15.9990           
   30746 A    7687 TIP4 H1   HW0      0.679100        1.0080           
   30747 A    7687 TIP4 H2   HW0      0.679100        1.0080           
   30748 A    7687 TIP4 BD1  LP0     -1.358200        0.0000           
   30749 A    7688 TIP4 O1   OW0      0.000000       15.9990           
   30750 A    7688 TIP4 H1   HW0      0.679100        1.0080           
   30751 A    7688 TIP4 H2   HW0      0.679100        1.0080           
   30752 A    7688 TIP4 BD1  LP0     -1.358200        0.0000           
   30753 A    7689 TIP4 O1   OW0      0.000000       15.9990           
   30754 A    7689 TIP4 H1   HW0      0.679100        1.0080           
   30755 A    7689 TIP4 H2   HW0      0.679100        1.0080           
   30756 A    7689 TIP4 BD1  LP0     -1.358200        0.0000           
   30757 A    7690 TIP4 O1   OW0      0.000000       15.9990           
   30758 A    7690 TIP4 H1   HW0      0.679100        1.0080           
   30759 A    7690 TIP4 H2   HW0      0.679100        1.0080           
   30760 A    7690 TIP4 BD1  LP0     -1.358200        0.0000           
   30761 A    7691 TIP4 O1   OW0      0.000000       15.9990           
   30762 A    7691 TIP4 H1   HW0      0.679100        1.0080           
   30763 A    7691 TIP4 H2   HW0      0.679100        1.0080           
   30764 A    7691 TIP4 BD1  LP0     -1.358200        0.0000           
   30765 A    7692 TIP4 O1   OW0      0.000000       15.9990           
   30766 A    7692 TIP4 H1   HW0      0.679100        1.0080           
   30767 A    7692 TIP4 H2   HW0      0.679100        1.0080           
   30768 A    7692 TIP4 BD1  LP0     -1.358200        0.0000           
   30769 A    7693 TIP4 O1   OW0      0.000000       15.9990           
   30770 A    7693 TIP4 H1   HW0      0.679100        1.0080           
   30771 A    7693 TIP4 H2   HW0      0.679100        1.0080           
   30772 A    7693 TIP4 BD1  LP0     -1.358200        0.0000           
   30773 A    7694 TIP4 O1   OW0      0.000000       15.9990           
   30774 A    7694 TIP4 H1   HW0      0.679100        1.0080           
   30775 A    7694 TIP4 H2   HW0      0.679100        1.0080           
   30776 A    7694 TIP4 BD1  LP0     -1.358200        0.0000           
   30777 A    7695 TIP4 O1   OW0      0.000000       15.9990           
   30778 A    7695 TIP4 H1   HW0      0.679100        1.0080           
   30779 A    7695 TIP4 H2   HW0      0.679100        1.0080           
   30780 A    7695 TIP4 BD1  LP0     -1.358200        0.0000           
   30781 A    7696 TIP4 O1   OW0      0.000000       15.9990           
   30782 A    7696 TIP4 H1   HW0      0.679100        1.0080           
   30783 A    7696 TIP4 H2   HW0      0.679100        1.0080           
   30784 A    7696 TIP4 BD1  LP0     -1.358200        0.0000           
   30785 A    7697 TIP4 O1   OW0      0.000000       15.9990           
   30786 A    7697 TIP4 H1   HW0      0.679100        1.0080           
   30787 A    7697 TIP4 H2   HW0      0.679100        1.0080           
   30788 A    7697 TIP4 BD1  LP0     -1.358200        0.0000           
   30789 A    7698 TIP4 O1   OW0      0.000000       15.9990           
   30790 A    7698 TIP4 H1   HW0      0.679100        1.0080           
   30791 A    7698 TIP4 H2   HW0      0.679100        1.0080           
   30792 A    7698 TIP4 BD1  LP0     -1.358200        0.0000           
   30793 A    7699 TIP4 O1   OW0      0.000000       15.9990           
   30794 A    7699 TIP4 H1   HW0      0.679100        1.0080           
   30795 A    7699 TIP4 H2   HW0      0.679100        1.0080           
   30796 A    7699 TIP4 BD1  LP0     -1.358200        0.0000           
   30797 A    7700 TIP4 O1   OW0      0.000000       15.9990           
   30798 A    7700 TIP4 H1   HW0      0.679100        1.0080           
   30799 A    7700 TIP4 H2   HW0      0.679100        1.0080           
   30800 A    7700 TIP4 BD1  LP0     -1.358200        0.0000           
   30801 A    7701 TIP4 O1   OW0      0.000000       15.9990           
   30802 A    7701 TIP4 H1   HW0      0.679100        1.0080           
   30803 A    7701 TIP4 H2   HW0      0.679100        1.0080           
   30804 A    7701 TIP4 BD1  LP0     -1.358200        0.0000           
   30805 A    7702 TIP4 O1   OW0      0.000000       15.9990           
   30806 A    7702 TIP4 H1   HW0      0.679100        1.0080           
   30807 A    7702 TIP4 H2   HW0      0.679100        1.0080           
   30808 A    7702 TIP4 BD1  LP0     -1.358200        0.0000           
   30809 A    7703 TIP4 O1   OW0      0.000000       15.9990           
   30810 A    7703 TIP4 H1   HW0      0.679100        1.0080           
   30811 A    7703 TIP4 H2   HW0      0.679100        1.0080           
   30812 A    7703 TIP4 BD1  LP0     -1.358200        0.0000           
   30813 A    7704 TIP4 O1   OW0      0.000000       15.9990           
   30814 A    7704 TIP4 H1   HW0      0.679100        1.0080           
   30815 A    7704 TIP4 H2   HW0      0.679100        1.0080           
   30816 A    7704 TIP4 BD1  LP0     -1.358200        0.0000           
   30817 A    7705 TIP4 O1   OW0      0.000000       15.9990           
   30818 A    7705 TIP4 H1   HW0      0.679100        1.0080           
   30819 A    7705 TIP4 H2   HW0      0.679100        1.0080           
   30820 A    7705 TIP4 BD1  LP0     -1.358200        0.0000           
   30821 A    7706 TIP4 O1   OW0      0.000000       15.9990           
   30822 A    7706 TIP4 H1   HW0      0.679100        1.0080           
   30823 A    7706 TIP4 H2   HW0      0.679100        1.0080           
   30824 A    7706 TIP4 BD1  LP0     -1.358200        0.0000           
   30825 A    7707 TIP4 O1   OW0      0.000000       15.9990           
   30826 A    7707 TIP4 H1   HW0      0.679100        1.0080           
   30827 A    7707 TIP4 H2   HW0      0.679100        1.0080           
   30828 A    7707 TIP4 BD1  LP0     -1.358200        0.0000           
   30829 A    7708 TIP4 O1   OW0      0.000000       15.9990           
   30830 A    7708 TIP4 H1   HW0      0.679100        1.0080           
   30831 A    7708 TIP4 H2   HW0      0.679100        1.0080           
   30832 A    7708 TIP4 BD1  LP0     -1.358200        0.0000           
   30833 A    7709 TIP4 O1   OW0      0.000000       15.9990           
   30834 A    7709 TIP4 H1   HW0      0.679100        1.0080           
   30835 A    7709 TIP4 H2   HW0      0.679100        1.0080           
   30836 A    7709 TIP4 BD1  LP0     -1.358200        0.0000           
   30837 A    7710 TIP4 O1   OW0      0.000000       15.9990           
   30838 A    7710 TIP4 H1   HW0      0.679100        1.0080           
   30839 A    7710 TIP4 H2   HW0      0.679100        1.0080           
   30840 A    7710 TIP4 BD1  LP0     -1.358200        0.0000           
   30841 A    7711 TIP4 O1   OW0      0.000000       15.9990           
   30842 A    7711 TIP4 H1   HW0      0.679100        1.0080           
   30843 A    7711 TIP4 H2   HW0      0.679100        1.0080           
   30844 A    7711 TIP4 BD1  LP0     -1.358200        0.0000           
   30845 A    7712 TIP4 O1   OW0      0.000000       15.9990           
   30846 A    7712 TIP4 H1   HW0      0.679100        1.0080           
   30847 A    7712 TIP4 H2   HW0      0.679100        1.0080           
   30848 A    7712 TIP4 BD1  LP0     -1.358200        0.0000           
   30849 A    7713 TIP4 O1   OW0      0.000000       15.9990           
   30850 A    7713 TIP4 H1   HW0      0.679100        1.0080           
   30851 A    7713 TIP4 H2   HW0      0.679100        1.0080           
   30852 A    7713 TIP4 BD1  LP0     -1.358200        0.0000           
   30853 A    7714 TIP4 O1   OW0      0.000000       15.9990           
   30854 A    7714 TIP4 H1   HW0      0.679100        1.0080           
   30855 A    7714 TIP4 H2   HW0      0.679100        1.0080           
   30856 A    7714 TIP4 BD1  LP0     -1.358200        0.0000           
   30857 A    7715 TIP4 O1   OW0      0.000000       15.9990           
   30858 A    7715 TIP4 H1   HW0      0.679100        1.0080           
   30859 A    7715 TIP4 H2   HW0      0.679100        1.0080           
   30860 A    7715 TIP4 BD1  LP0     -1.358200        0.0000           
   30861 A    7716 TIP4 O1   OW0      0.000000       15.9990           
   30862 A    7716 TIP4 H1   HW0      0.679100        1.0080           
   30863 A    7716 TIP4 H2   HW0      0.679100        1.0080           
   30864 A    7716 TIP4 BD1  LP0     -1.358200        0.0000           
   30865 A    7717 TIP4 O1   OW0      0.000000       15.9990           
   30866 A    7717 TIP4 H1   HW0      0.679100        1.0080           
   30867 A    7717 TIP4 H2   HW0      0.679100        1.0080           
   30868 A    7717 TIP4 BD1  LP0     -1.358200        0.0000           
   30869 A    7718 TIP4 O1   OW0      0.000000       15.9990           
   30870 A    7718 TIP4 H1   HW0      0.679100        1.0080           
   30871 A    7718 TIP4 H2   HW0      0.679100        1.0080           
   30872 A    7718 TIP4 BD1  LP0     -1.358200        0.0000           
   30873 A    7719 TIP4 O1   OW0      0.000000       15.9990           
   30874 A    7719 TIP4 H1   HW0      0.679100        1.0080           
   30875 A    7719 TIP4 H2   HW0      0.679100        1.0080           
   30876 A    7719 TIP4 BD1  LP0     -1.358200        0.0000           
   30877 A    7720 TIP4 O1   OW0      0.000000       15.9990           
   30878 A    7720 TIP4 H1   HW0      0.679100        1.0080           
   30879 A    7720 TIP4 H2   HW0      0.679100        1.0080           
   30880 A    7720 TIP4 BD1  LP0     -1.358200        0.0000           
   30881 A    7721 TIP4 O1   OW0      0.000000       15.9990           
   30882 A    7721 TIP4 H1   HW0      0.679100        1.0080           
   30883 A    7721 TIP4 H2   HW0      0.679100        1.0080           
   30884 A    7721 TIP4 BD1  LP0     -1.358200        0.0000           
   30885 A    7722 TIP4 O1   OW0      0.000000       15.9990           
   30886 A    7722 TIP4 H1   HW0      0.679100        1.0080           
   30887 A    7722 TIP4 H2   HW0      0.679100        1.0080           
   30888 A    7722 TIP4 BD1  LP0     -1.358200        0.0000           
   30889 A    7723 TIP4 O1   OW0      0.000000       15.9990           
   30890 A    7723 TIP4 H1   HW0      0.679100        1.0080           
   30891 A    7723 TIP4 H2   HW0      0.679100        1.0080           
   30892 A    7723 TIP4 BD1  LP0     -1.358200        0.0000           
   30893 A    7724 TIP4 O1   OW0      0.000000       15.9990           
   30894 A    7724 TIP4 H1   HW0      0.679100        1.0080           
   30895 A    7724 TIP4 H2   HW0      0.679100        1.0080           
   30896 A    7724 TIP4 BD1  LP0     -1.358200        0.0000           
   30897 A    7725 TIP4 O1   OW0      0.000000       15.9990           
   30898 A    7725 TIP4 H1   HW0      0.679100        1.0080           
   30899 A    7725 TIP4 H2   HW0      0.679100        1.0080           
   30900 A    7725 TIP4 BD1  LP0     -1.358200        0.0000           
   30901 A    7726 TIP4 O1   OW0      0.000000       15.9990           
   30902 A    7726 TIP4 H1   HW0      0.679100        1.0080           
   30903 A    7726 TIP4 H2   HW0      0.679100        1.0080           
   30904 A    7726 TIP4 BD1  LP0     -1.358200        0.0000           
   30905 A    7727 TIP4 O1   OW0      0.000000       15.9990           
   30906 A    7727 TIP4 H1   HW0      0.679100        1.0080           
   30907 A    7727 TIP4 H2   HW0      0.679100        1.0080           
   30908 A    7727 TIP4 BD1  LP0     -1.358200        0.0000           
   30909 A    7728 TIP4 O1   OW0      0.000000       15.9990           
   30910 A    7728 TIP4 H1   HW0      0.679100        1.0080           
   30911 A    7728 TIP4 H2   HW0      0.679100        1.0080           
   30912 A    7728 TIP4 BD1  LP0     -1.358200        0.0000           
   30913 A    7729 TIP4 O1   OW0      0.000000       15.9990           
   30914 A    7729 TIP4 H1   HW0      0.679100        1.0080           
   30915 A    7729 TIP4 H2   HW0      0.679100        1.0080           
   30916 A    7729 TIP4 BD1  LP0     -1.358200        0.0000           
   30917 A    7730 TIP4 O1   OW0      0.000000       15.9990           
   30918 A    7730 TIP4 H1   HW0      0.679100        1.0080           
   30919 A    7730 TIP4 H2   HW0      0.679100        1.0080           
   30920 A    7730 TIP4 BD1  LP0     -1.358200        0.0000           
   30921 A    7731 TIP4 O1   OW0      0.000000       15.9990           
   30922 A    7731 TIP4 H1   HW0      0.679100        1.0080           
   30923 A    7731 TIP4 H2   HW0      0.679100        1.0080           
   30924 A    7731 TIP4 BD1  LP0     -1.358200        0.0000           
   30925 A    7732 TIP4 O1   OW0      0.000000       15.9990           
   30926 A    7732 TIP4 H1   HW0      0.679100        1.0080           
   30927 A    7732 TIP4 H2   HW0      0.679100        1.0080           
   30928 A    7732 TIP4 BD1  LP0     -1.358200        0.0000           
   30929 A    7733 TIP4 O1   OW0      0.000000       15.9990           
   30930 A    7733 TIP4 H1   HW0      0.679100        1.0080           
   30931 A    7733 TIP4 H2   HW0      0.679100        1.0080           
   30932 A    7733 TIP4 BD1  LP0     -1.358200        0.0000           
   30933 A    7734 TIP4 O1   OW0      0.000000       15.9990           
   30934 A    7734 TIP4 H1   HW0      0.679100        1.0080           
   30935 A    7734 TIP4 H2   HW0      0.679100        1.0080           
   30936 A    7734 TIP4 BD1  LP0     -1.358200        0.0000           
   30937 A    7735 TIP4 O1   OW0      0.000000       15.9990           
   30938 A    7735 TIP4 H1   HW0      0.679100        1.0080           
   30939 A    7735 TIP4 H2   HW0      0.679100        1.0080           
   30940 A    7735 TIP4 BD1  LP0     -1.358200        0.0000           
   30941 A    7736 TIP4 O1   OW0      0.000000       15.9990           
   30942 A    7736 TIP4 H1   HW0      0.679100        1.0080           
   30943 A    7736 TIP4 H2   HW0      0.679100        1.0080           
   30944 A    7736 TIP4 BD1  LP0     -1.358200        0.0000           
   30945 A    7737 TIP4 O1   OW0      0.000000       15.9990           
   30946 A    7737 TIP4 H1   HW0      0.679100        1.0080           
   30947 A    7737 TIP4 H2   HW0      0.679100        1.0080           
   30948 A    7737 TIP4 BD1  LP0     -1.358200        0.0000           
   30949 A    7738 TIP4 O1   OW0      0.000000       15.9990           
   30950 A    7738 TIP4 H1   HW0      0.679100        1.0080           
   30951 A    7738 TIP4 H2   HW0      0.679100        1.0080           
   30952 A    7738 TIP4 BD1  LP0     -1.358200        0.0000           
   30953 A    7739 TIP4 O1   OW0      0.000000       15.9990           
   30954 A    7739 TIP4 H1   HW0      0.679100        1.0080           
   30955 A    7739 TIP4 H2   HW0      0.679100        1.0080           
   30956 A    7739 TIP4 BD1  LP0     -1.358200        0.0000           
   30957 A    7740 TIP4 O1   OW0      0.000000       15.9990           
   30958 A    7740 TIP4 H1   HW0      0.679100        1.0080           
   30959 A    7740 TIP4 H2   HW0      0.679100        1.0080           
   30960 A    7740 TIP4 BD1  LP0     -1.358200        0.0000           
   30961 A    7741 TIP4 O1   OW0      0.000000       15.9990           
   30962 A    7741 TIP4 H1   HW0      0.679100        1.0080           
   30963 A    7741 TIP4 H2   HW0      0.679100        1.0080           
   30964 A    7741 TIP4 BD1  LP0     -1.358200        0.0000           
   30965 A    7742 TIP4 O1   OW0      0.000000       15.9990           
   30966 A    7742 TIP4 H1   HW0      0.679100        1.0080           
   30967 A    7742 TIP4 H2   HW0      0.679100        1.0080           
   30968 A    7742 TIP4 BD1  LP0     -1.358200        0.0000           
   30969 A    7743 TIP4 O1   OW0      0.000000       15.9990           
   30970 A    7743 TIP4 H1   HW0      0.679100        1.0080           
   30971 A    7743 TIP4 H2   HW0      0.679100        1.0080           
   30972 A    7743 TIP4 BD1  LP0     -1.358200        0.0000           
   30973 A    7744 TIP4 O1   OW0      0.000000       15.9990           
   30974 A    7744 TIP4 H1   HW0      0.679100        1.0080           
   30975 A    7744 TIP4 H2   HW0      0.679100        1.0080           
   30976 A    7744 TIP4 BD1  LP0     -1.358200        0.0000           
   30977 A    7745 TIP4 O1   OW0      0.000000       15.9990           
   30978 A    7745 TIP4 H1   HW0      0.679100        1.0080           
   30979 A    7745 TIP4 H2   HW0      0.679100        1.0080           
   30980 A    7745 TIP4 BD1  LP0     -1.358200        0.0000           
   30981 A    7746 TIP4 O1   OW0      0.000000       15.9990           
   30982 A    7746 TIP4 H1   HW0      0.679100        1.0080           
   30983 A    7746 TIP4 H2   HW0      0.679100        1.0080           
   30984 A    7746 TIP4 BD1  LP0     -1.358200        0.0000           
   30985 A    7747 TIP4 O1   OW0      0.000000       15.9990           
   30986 A    7747 TIP4 H1   HW0      0.679100        1.0080           
   30987 A    7747 TIP4 H2   HW0      0.679100        1.0080           
   30988 A    7747 TIP4 BD1  LP0     -1.358200        0.0000           
   30989 A    7748 TIP4 O1   OW0      0.000000       15.9990           
   30990 A    7748 TIP4 H1   HW0      0.679100        1.0080           
   30991 A    7748 TIP4 H2   HW0      0.679100        1.0080           
   30992 A    7748 TIP4 BD1  LP0     -1.358200        0.0000           
   30993 A    7749 TIP4 O1   OW0      0.000000       15.9990           
   30994 A    7749 TIP4 H1   HW0      0.679100        1.0080           
   30995 A    7749 TIP4 H2   HW0      0.679100        1.0080           
   30996 A    7749 TIP4 BD1  LP0     -1.358200        0.0000           
   30997 A    7750 TIP4 O1   OW0      0.000000       15.9990           
   30998 A    7750 TIP4 H1   HW0      0.679100        1.0080           
   30999 A    7750 TIP4 H2   HW0      0.679100        1.0080           
   31000 A    7750 TIP4 BD1  LP0     -1.358200        0.0000           
   31001 A    7751 TIP4 O1   OW0      0.000000       15.9990           
   31002 A    7751 TIP4 H1   HW0      0.679100        1.0080           
   31003 A    7751 TIP4 H2   HW0      0.679100        1.0080           
   31004 A    7751 TIP4 BD1  LP0     -1.358200        0.0000           
   31005 A    7752 TIP4 O1   OW0      0.000000       15.9990           
   31006 A    7752 TIP4 H1   HW0      0.679100        1.0080           
   31007 A    7752 TIP4 H2   HW0      0.679100        1.0080           
   31008 A    7752 TIP4 BD1  LP0     -1.358200        0.0000           
   31009 A    7753 TIP4 O1   OW0      0.000000       15.9990           
   31010 A    7753 TIP4 H1   HW0      0.679100        1.0080           
   31011 A    7753 TIP4 H2   HW0      0.679100        1.0080           
   31012 A    7753 TIP4 BD1  LP0     -1.358200        0.0000           
   31013 A    7754 TIP4 O1   OW0      0.000000       15.9990           
   31014 A    7754 TIP4 H1   HW0      0.679100        1.0080           
   31015 A    7754 TIP4 H2   HW0      0.679100        1.0080           
   31016 A    7754 TIP4 BD1  LP0     -1.358200        0.0000           
   31017 A    7755 TIP4 O1   OW0      0.000000       15.9990           
   31018 A    7755 TIP4 H1   HW0      0.679100        1.0080           
   31019 A    7755 TIP4 H2   HW0      0.679100        1.0080           
   31020 A    7755 TIP4 BD1  LP0     -1.358200        0.0000           
   31021 A    7756 TIP4 O1   OW0      0.000000       15.9990           
   31022 A    7756 TIP4 H1   HW0      0.679100        1.0080           
   31023 A    7756 TIP4 H2   HW0      0.679100        1.0080           
   31024 A    7756 TIP4 BD1  LP0     -1.358200        0.0000           
   31025 A    7757 TIP4 O1   OW0      0.000000       15.9990           
   31026 A    7757 TIP4 H1   HW0      0.679100        1.0080           
   31027 A    7757 TIP4 H2   HW0      0.679100        1.0080           
   31028 A    7757 TIP4 BD1  LP0     -1.358200        0.0000           
   31029 A    7758 TIP4 O1   OW0      0.000000       15.9990           
   31030 A    7758 TIP4 H1   HW0      0.679100        1.0080           
   31031 A    7758 TIP4 H2   HW0      0.679100        1.0080           
   31032 A    7758 TIP4 BD1  LP0     -1.358200        0.0000           
   31033 A    7759 TIP4 O1   OW0      0.000000       15.9990           
   31034 A    7759 TIP4 H1   HW0      0.679100        1.0080           
   31035 A    7759 TIP4 H2   HW0      0.679100        1.0080           
   31036 A    7759 TIP4 BD1  LP0     -1.358200        0.0000           
   31037 A    7760 TIP4 O1   OW0      0.000000       15.9990           
   31038 A    7760 TIP4 H1   HW0      0.679100        1.0080           
   31039 A    7760 TIP4 H2   HW0      0.679100        1.0080           
   31040 A    7760 TIP4 BD1  LP0     -1.358200        0.0000           
   31041 A    7761 TIP4 O1   OW0      0.000000       15.9990           
   31042 A    7761 TIP4 H1   HW0      0.679100        1.0080           
   31043 A    7761 TIP4 H2   HW0      0.679100        1.0080           
   31044 A    7761 TIP4 BD1  LP0     -1.358200        0.0000           
   31045 A    7762 TIP4 O1   OW0      0.000000       15.9990           
   31046 A    7762 TIP4 H1   HW0      0.679100        1.0080           
   31047 A    7762 TIP4 H2   HW0      0.679100        1.0080           
   31048 A    7762 TIP4 BD1  LP0     -1.358200        0.0000           
   31049 A    7763 TIP4 O1   OW0      0.000000       15.9990           
   31050 A    7763 TIP4 H1   HW0      0.679100        1.0080           
   31051 A    7763 TIP4 H2   HW0      0.679100        1.0080           
   31052 A    7763 TIP4 BD1  LP0     -1.358200        0.0000           
   31053 A    7764 TIP4 O1   OW0      0.000000       15.9990           
   31054 A    7764 TIP4 H1   HW0      0.679100        1.0080           
   31055 A    7764 TIP4 H2   HW0      0.679100        1.0080           
   31056 A    7764 TIP4 BD1  LP0     -1.358200        0.0000           
   31057 A    7765 TIP4 O1   OW0      0.000000       15.9990           
   31058 A    7765 TIP4 H1   HW0      0.679100        1.0080           
   31059 A    7765 TIP4 H2   HW0      0.679100        1.0080           
   31060 A    7765 TIP4 BD1  LP0     -1.358200        0.0000           
   31061 A    7766 TIP4 O1   OW0      0.000000       15.9990           
   31062 A    7766 TIP4 H1   HW0      0.679100        1.0080           
   31063 A    7766 TIP4 H2   HW0      0.679100        1.0080           
   31064 A    7766 TIP4 BD1  LP0     -1.358200        0.0000           
   31065 A    7767 TIP4 O1   OW0      0.000000       15.9990           
   31066 A    7767 TIP4 H1   HW0      0.679100        1.0080           
   31067 A    7767 TIP4 H2   HW0      0.679100        1.0080           
   31068 A    7767 TIP4 BD1  LP0     -1.358200        0.0000           
   31069 A    7768 TIP4 O1   OW0      0.000000       15.9990           
   31070 A    7768 TIP4 H1   HW0      0.679100        1.0080           
   31071 A    7768 TIP4 H2   HW0      0.679100        1.0080           
   31072 A    7768 TIP4 BD1  LP0     -1.358200        0.0000           
   31073 A    7769 TIP4 O1   OW0      0.000000       15.9990           
   31074 A    7769 TIP4 H1   HW0      0.679100        1.0080           
   31075 A    7769 TIP4 H2   HW0      0.679100        1.0080           
   31076 A    7769 TIP4 BD1  LP0     -1.358200        0.0000           
   31077 A    7770 TIP4 O1   OW0      0.000000       15.9990           
   31078 A    7770 TIP4 H1   HW0      0.679100        1.0080           
   31079 A    7770 TIP4 H2   HW0      0.679100        1.0080           
   31080 A    7770 TIP4 BD1  LP0     -1.358200        0.0000           
   31081 A    7771 TIP4 O1   OW0      0.000000       15.9990           
   31082 A    7771 TIP4 H1   HW0      0.679100        1.0080           
   31083 A    7771 TIP4 H2   HW0      0.679100        1.0080           
   31084 A    7771 TIP4 BD1  LP0     -1.358200        0.0000           
   31085 A    7772 TIP4 O1   OW0      0.000000       15.9990           
   31086 A    7772 TIP4 H1   HW0      0.679100        1.0080           
   31087 A    7772 TIP4 H2   HW0      0.679100        1.0080           
   31088 A    7772 TIP4 BD1  LP0     -1.358200        0.0000           
   31089 A    7773 TIP4 O1   OW0      0.000000       15.9990           
   31090 A    7773 TIP4 H1   HW0      0.679100        1.0080           
   31091 A    7773 TIP4 H2   HW0      0.679100        1.0080           
   31092 A    7773 TIP4 BD1  LP0     -1.358200        0.0000           
   31093 A    7774 TIP4 O1   OW0      0.000000       15.9990           
   31094 A    7774 TIP4 H1   HW0      0.679100        1.0080           
   31095 A    7774 TIP4 H2   HW0      0.679100        1.0080           
   31096 A    7774 TIP4 BD1  LP0     -1.358200        0.0000           
   31097 A    7775 TIP4 O1   OW0      0.000000       15.9990           
   31098 A    7775 TIP4 H1   HW0      0.679100        1.0080           
   31099 A    7775 TIP4 H2   HW0      0.679100        1.0080           
   31100 A    7775 TIP4 BD1  LP0     -1.358200        0.0000           
   31101 A    7776 TIP4 O1   OW0      0.000000       15.9990           
   31102 A    7776 TIP4 H1   HW0      0.679100        1.0080           
   31103 A    7776 TIP4 H2   HW0      0.679100        1.0080           
   31104 A    7776 TIP4 BD1  LP0     -1.358200        0.0000           
   31105 A    7777 TIP4 O1   OW0      0.000000       15.9990           
   31106 A    7777 TIP4 H1   HW0      0.679100        1.0080           
   31107 A    7777 TIP4 H2   HW0      0.679100        1.0080           
   31108 A    7777 TIP4 BD1  LP0     -1.358200        0.0000           
   31109 A    7778 TIP4 O1   OW0      0.000000       15.9990           
   31110 A    7778 TIP4 H1   HW0      0.679100        1.0080           
   31111 A    7778 TIP4 H2   HW0      0.679100        1.0080           
   31112 A    7778 TIP4 BD1  LP0     -1.358200        0.0000           
   31113 A    7779 TIP4 O1   OW0      0.000000       15.9990           
   31114 A    7779 TIP4 H1   HW0      0.679100        1.0080           
   31115 A    7779 TIP4 H2   HW0      0.679100        1.0080           
   31116 A    7779 TIP4 BD1  LP0     -1.358200        0.0000           
   31117 A    7780 TIP4 O1   OW0      0.000000       15.9990           
   31118 A    7780 TIP4 H1   HW0      0.679100        1.0080           
   31119 A    7780 TIP4 H2   HW0      0.679100        1.0080           
   31120 A    7780 TIP4 BD1  LP0     -1.358200        0.0000           
   31121 A    7781 TIP4 O1   OW0      0.000000       15.9990           
   31122 A    7781 TIP4 H1   HW0      0.679100        1.0080           
   31123 A    7781 TIP4 H2   HW0      0.679100        1.0080           
   31124 A    7781 TIP4 BD1  LP0     -1.358200        0.0000           
   31125 A    7782 TIP4 O1   OW0      0.000000       15.9990           
   31126 A    7782 TIP4 H1   HW0      0.679100        1.0080           
   31127 A    7782 TIP4 H2   HW0      0.679100        1.0080           
   31128 A    7782 TIP4 BD1  LP0     -1.358200        0.0000           
   31129 A    7783 TIP4 O1   OW0      0.000000       15.9990           
   31130 A    7783 TIP4 H1   HW0      0.679100        1.0080           
   31131 A    7783 TIP4 H2   HW0      0.679100        1.0080           
   31132 A    7783 TIP4 BD1  LP0     -1.358200        0.0000           
   31133 A    7784 TIP4 O1   OW0      0.000000       15.9990           
   31134 A    7784 TIP4 H1   HW0      0.679100        1.0080           
   31135 A    7784 TIP4 H2   HW0      0.679100        1.0080           
   31136 A    7784 TIP4 BD1  LP0     -1.358200        0.0000           
   31137 A    7785 TIP4 O1   OW0      0.000000       15.9990           
   31138 A    7785 TIP4 H1   HW0      0.679100        1.0080           
   31139 A    7785 TIP4 H2   HW0      0.679100        1.0080           
   31140 A    7785 TIP4 BD1  LP0     -1.358200        0.0000           
   31141 A    7786 TIP4 O1   OW0      0.000000       15.9990           
   31142 A    7786 TIP4 H1   HW0      0.679100        1.0080           
   31143 A    7786 TIP4 H2   HW0      0.679100        1.0080           
   31144 A    7786 TIP4 BD1  LP0     -1.358200        0.0000           
   31145 A    7787 TIP4 O1   OW0      0.000000       15.9990           
   31146 A    7787 TIP4 H1   HW0      0.679100        1.0080           
   31147 A    7787 TIP4 H2   HW0      0.679100        1.0080           
   31148 A    7787 TIP4 BD1  LP0     -1.358200        0.0000           
   31149 A    7788 TIP4 O1   OW0      0.000000       15.9990           
   31150 A    7788 TIP4 H1   HW0      0.679100        1.0080           
   31151 A    7788 TIP4 H2   HW0      0.679100        1.0080           
   31152 A    7788 TIP4 BD1  LP0     -1.358200        0.0000           
   31153 A    7789 TIP4 O1   OW0      0.000000       15.9990           
   31154 A    7789 TIP4 H1   HW0      0.679100        1.0080           
   31155 A    7789 TIP4 H2   HW0      0.679100        1.0080           
   31156 A    7789 TIP4 BD1  LP0     -1.358200        0.0000           
   31157 A    7790 TIP4 O1   OW0      0.000000       15.9990           
   31158 A    7790 TIP4 H1   HW0      0.679100        1.0080           
   31159 A    7790 TIP4 H2   HW0      0.679100        1.0080           
   31160 A    7790 TIP4 BD1  LP0     -1.358200        0.0000           
   31161 A    7791 TIP4 O1   OW0      0.000000       15.9990           
   31162 A    7791 TIP4 H1   HW0      0.679100        1.0080           
   31163 A    7791 TIP4 H2   HW0      0.679100        1.0080           
   31164 A    7791 TIP4 BD1  LP0     -1.358200        0.0000           
   31165 A    7792 TIP4 O1   OW0      0.000000       15.9990           
   31166 A    7792 TIP4 H1   HW0      0.679100        1.0080           
   31167 A    7792 TIP4 H2   HW0      0.679100        1.0080           
   31168 A    7792 TIP4 BD1  LP0     -1.358200        0.0000           
   31169 A    7793 TIP4 O1   OW0      0.000000       15.9990           
   31170 A    7793 TIP4 H1   HW0      0.679100        1.0080           
   31171 A    7793 TIP4 H2   HW0      0.679100        1.0080           
   31172 A    7793 TIP4 BD1  LP0     -1.358200        0.0000           
   31173 A    7794 TIP4 O1   OW0      0.000000       15.9990           
   31174 A    7794 TIP4 H1   HW0      0.679100        1.0080           
   31175 A    7794 TIP4 H2   HW0      0.679100        1.0080           
   31176 A    7794 TIP4 BD1  LP0     -1.358200        0.0000           
   31177 A    7795 TIP4 O1   OW0      0.000000       15.9990           
   31178 A    7795 TIP4 H1   HW0      0.679100        1.0080           
   31179 A    7795 TIP4 H2   HW0      0.679100        1.0080           
   31180 A    7795 TIP4 BD1  LP0     -1.358200        0.0000           
   31181 A    7796 TIP4 O1   OW0      0.000000       15.9990           
   31182 A    7796 TIP4 H1   HW0      0.679100        1.0080           
   31183 A    7796 TIP4 H2   HW0      0.679100        1.0080           
   31184 A    7796 TIP4 BD1  LP0     -1.358200        0.0000           
   31185 A    7797 TIP4 O1   OW0      0.000000       15.9990           
   31186 A    7797 TIP4 H1   HW0      0.679100        1.0080           
   31187 A    7797 TIP4 H2   HW0      0.679100        1.0080           
   31188 A    7797 TIP4 BD1  LP0     -1.358200        0.0000           
   31189 A    7798 TIP4 O1   OW0      0.000000       15.9990           
   31190 A    7798 TIP4 H1   HW0      0.679100        1.0080           
   31191 A    7798 TIP4 H2   HW0      0.679100        1.0080           
   31192 A    7798 TIP4 BD1  LP0     -1.358200        0.0000           
   31193 A    7799 TIP4 O1   OW0      0.000000       15.9990           
   31194 A    7799 TIP4 H1   HW0      0.679100        1.0080           
   31195 A    7799 TIP4 H2   HW0      0.679100        1.0080           
   31196 A    7799 TIP4 BD1  LP0     -1.358200        0.0000           
   31197 A    7800 TIP4 O1   OW0      0.000000       15.9990           
   31198 A    7800 TIP4 H1   HW0      0.679100        1.0080           
   31199 A    7800 TIP4 H2   HW0      0.679100        1.0080           
   31200 A    7800 TIP4 BD1  LP0     -1.358200        0.0000           
   31201 A    7801 TIP4 O1   OW0      0.000000       15.9990           
   31202 A    7801 TIP4 H1   HW0      0.679100        1.0080           
   31203 A    7801 TIP4 H2   HW0      0.679100        1.0080           
   31204 A    7801 TIP4 BD1  LP0     -1.358200        0.0000           
   31205 A    7802 TIP4 O1   OW0      0.000000       15.9990           
   31206 A    7802 TIP4 H1   HW0      0.679100        1.0080           
   31207 A    7802 TIP4 H2   HW0      0.679100        1.0080           
   31208 A    7802 TIP4 BD1  LP0     -1.358200        0.0000           
   31209 A    7803 TIP4 O1   OW0      0.000000       15.9990           
   31210 A    7803 TIP4 H1   HW0      0.679100        1.0080           
   31211 A    7803 TIP4 H2   HW0      0.679100        1.0080           
   31212 A    7803 TIP4 BD1  LP0     -1.358200        0.0000           
   31213 A    7804 TIP4 O1   OW0      0.000000       15.9990           
   31214 A    7804 TIP4 H1   HW0      0.679100        1.0080           
   31215 A    7804 TIP4 H2   HW0      0.679100        1.0080           
   31216 A    7804 TIP4 BD1  LP0     -1.358200        0.0000           
   31217 A    7805 TIP4 O1   OW0      0.000000       15.9990           
   31218 A    7805 TIP4 H1   HW0      0.679100        1.0080           
   31219 A    7805 TIP4 H2   HW0      0.679100        1.0080           
   31220 A    7805 TIP4 BD1  LP0     -1.358200        0.0000           
   31221 A    7806 TIP4 O1   OW0      0.000000       15.9990           
   31222 A    7806 TIP4 H1   HW0      0.679100        1.0080           
   31223 A    7806 TIP4 H2   HW0      0.679100        1.0080           
   31224 A    7806 TIP4 BD1  LP0     -1.358200        0.0000           
   31225 A    7807 TIP4 O1   OW0      0.000000       15.9990           
   31226 A    7807 TIP4 H1   HW0      0.679100        1.0080           
   31227 A    7807 TIP4 H2   HW0      0.679100        1.0080           
   31228 A    7807 TIP4 BD1  LP0     -1.358200        0.0000           
   31229 A    7808 TIP4 O1   OW0      0.000000       15.9990           
   31230 A    7808 TIP4 H1   HW0      0.679100        1.0080           
   31231 A    7808 TIP4 H2   HW0      0.679100        1.0080           
   31232 A    7808 TIP4 BD1  LP0     -1.358200        0.0000           
   31233 A    7809 TIP4 O1   OW0      0.000000       15.9990           
   31234 A    7809 TIP4 H1   HW0      0.679100        1.0080           
   31235 A    7809 TIP4 H2   HW0      0.679100        1.0080           
   31236 A    7809 TIP4 BD1  LP0     -1.358200        0.0000           
   31237 A    7810 TIP4 O1   OW0      0.000000       15.9990           
   31238 A    7810 TIP4 H1   HW0      0.679100        1.0080           
   31239 A    7810 TIP4 H2   HW0      0.679100        1.0080           
   31240 A    7810 TIP4 BD1  LP0     -1.358200        0.0000           
   31241 A    7811 TIP4 O1   OW0      0.000000       15.9990           
   31242 A    7811 TIP4 H1   HW0      0.679100        1.0080           
   31243 A    7811 TIP4 H2   HW0      0.679100        1.0080           
   31244 A    7811 TIP4 BD1  LP0     -1.358200        0.0000           
   31245 A    7812 TIP4 O1   OW0      0.000000       15.9990           
   31246 A    7812 TIP4 H1   HW0      0.679100        1.0080           
   31247 A    7812 TIP4 H2   HW0      0.679100        1.0080           
   31248 A    7812 TIP4 BD1  LP0     -1.358200        0.0000           
   31249 A    7813 TIP4 O1   OW0      0.000000       15.9990           
   31250 A    7813 TIP4 H1   HW0      0.679100        1.0080           
   31251 A    7813 TIP4 H2   HW0      0.679100        1.0080           
   31252 A    7813 TIP4 BD1  LP0     -1.358200        0.0000           
   31253 A    7814 TIP4 O1   OW0      0.000000       15.9990           
   31254 A    7814 TIP4 H1   HW0      0.679100        1.0080           
   31255 A    7814 TIP4 H2   HW0      0.679100        1.0080           
   31256 A    7814 TIP4 BD1  LP0     -1.358200        0.0000           
   31257 A    7815 TIP4 O1   OW0      0.000000       15.9990           
   31258 A    7815 TIP4 H1   HW0      0.679100        1.0080           
   31259 A    7815 TIP4 H2   HW0      0.679100        1.0080           
   31260 A    7815 TIP4 BD1  LP0     -1.358200        0.0000           
   31261 A    7816 TIP4 O1   OW0      0.000000       15.9990           
   31262 A    7816 TIP4 H1   HW0      0.679100        1.0080           
   31263 A    7816 TIP4 H2   HW0      0.679100        1.0080           
   31264 A    7816 TIP4 BD1  LP0     -1.358200        0.0000           
   31265 A    7817 TIP4 O1   OW0      0.000000       15.9990           
   31266 A    7817 TIP4 H1   HW0      0.679100        1.0080           
   31267 A    7817 TIP4 H2   HW0      0.679100        1.0080           
   31268 A    7817 TIP4 BD1  LP0     -1.358200        0.0000           
   31269 A    7818 TIP4 O1   OW0      0.000000       15.9990           
   31270 A    7818 TIP4 H1   HW0      0.679100        1.0080           
   31271 A    7818 TIP4 H2   HW0      0.679100        1.0080           
   31272 A    7818 TIP4 BD1  LP0     -1.358200        0.0000           
   31273 A    7819 TIP4 O1   OW0      0.000000       15.9990           
   31274 A    7819 TIP4 H1   HW0      0.679100        1.0080           
   31275 A    7819 TIP4 H2   HW0      0.679100        1.0080           
   31276 A    7819 TIP4 BD1  LP0     -1.358200        0.0000           
   31277 A    7820 TIP4 O1   OW0      0.000000       15.9990           
   31278 A    7820 TIP4 H1   HW0      0.679100        1.0080           
   31279 A    7820 TIP4 H2   HW0      0.679100        1.0080           
   31280 A    7820 TIP4 BD1  LP0     -1.358200        0.0000           
   31281 A    7821 TIP4 O1   OW0      0.000000       15.9990           
   31282 A    7821 TIP4 H1   HW0      0.679100        1.0080           
   31283 A    7821 TIP4 H2   HW0      0.679100        1.0080           
   31284 A    7821 TIP4 BD1  LP0     -1.358200        0.0000           
   31285 A    7822 TIP4 O1   OW0      0.000000       15.9990           
   31286 A    7822 TIP4 H1   HW0      0.679100        1.0080           
   31287 A    7822 TIP4 H2   HW0      0.679100        1.0080           
   31288 A    7822 TIP4 BD1  LP0     -1.358200        0.0000           
   31289 A    7823 TIP4 O1   OW0      0.000000       15.9990           
   31290 A    7823 TIP4 H1   HW0      0.679100        1.0080           
   31291 A    7823 TIP4 H2   HW0      0.679100        1.0080           
   31292 A    7823 TIP4 BD1  LP0     -1.358200        0.0000           
   31293 A    7824 TIP4 O1   OW0      0.000000       15.9990           
   31294 A    7824 TIP4 H1   HW0      0.679100        1.0080           
   31295 A    7824 TIP4 H2   HW0      0.679100        1.0080           
   31296 A    7824 TIP4 BD1  LP0     -1.358200        0.0000           
   31297 A    7825 TIP4 O1   OW0      0.000000       15.9990           
   31298 A    7825 TIP4 H1   HW0      0.679100        1.0080           
   31299 A    7825 TIP4 H2   HW0      0.679100        1.0080           
   31300 A    7825 TIP4 BD1  LP0     -1.358200        0.0000           
   31301 A    7826 TIP4 O1   OW0      0.000000       15.9990           
   31302 A    7826 TIP4 H1   HW0      0.679100        1.0080           
   31303 A    7826 TIP4 H2   HW0      0.679100        1.0080           
   31304 A    7826 TIP4 BD1  LP0     -1.358200        0.0000           
   31305 A    7827 TIP4 O1   OW0      0.000000       15.9990           
   31306 A    7827 TIP4 H1   HW0      0.679100        1.0080           
   31307 A    7827 TIP4 H2   HW0      0.679100        1.0080           
   31308 A    7827 TIP4 BD1  LP0     -1.358200        0.0000           
   31309 A    7828 TIP4 O1   OW0      0.000000       15.9990           
   31310 A    7828 TIP4 H1   HW0      0.679100        1.0080           
   31311 A    7828 TIP4 H2   HW0      0.679100        1.0080           
   31312 A    7828 TIP4 BD1  LP0     -1.358200        0.0000           
   31313 A    7829 TIP4 O1   OW0      0.000000       15.9990           
   31314 A    7829 TIP4 H1   HW0      0.679100        1.0080           
   31315 A    7829 TIP4 H2   HW0      0.679100        1.0080           
   31316 A    7829 TIP4 BD1  LP0     -1.358200        0.0000           
   31317 A    7830 TIP4 O1   OW0      0.000000       15.9990           
   31318 A    7830 TIP4 H1   HW0      0.679100        1.0080           
   31319 A    7830 TIP4 H2   HW0      0.679100        1.0080           
   31320 A    7830 TIP4 BD1  LP0     -1.358200        0.0000           
   31321 A    7831 TIP4 O1   OW0      0.000000       15.9990           
   31322 A    7831 TIP4 H1   HW0      0.679100        1.0080           
   31323 A    7831 TIP4 H2   HW0      0.679100        1.0080           
   31324 A    7831 TIP4 BD1  LP0     -1.358200        0.0000           
   31325 A    7832 TIP4 O1   OW0      0.000000       15.9990           
   31326 A    7832 TIP4 H1   HW0      0.679100        1.0080           
   31327 A    7832 TIP4 H2   HW0      0.679100        1.0080           
   31328 A    7832 TIP4 BD1  LP0     -1.358200        0.0000           
   31329 A    7833 TIP4 O1   OW0      0.000000       15.9990           
   31330 A    7833 TIP4 H1   HW0      0.679100        1.0080           
   31331 A    7833 TIP4 H2   HW0      0.679100        1.0080           
   31332 A    7833 TIP4 BD1  LP0     -1.358200        0.0000           
   31333 A    7834 TIP4 O1   OW0      0.000000       15.9990           
   31334 A    7834 TIP4 H1   HW0      0.679100        1.0080           
   31335 A    7834 TIP4 H2   HW0      0.679100        1.0080           
   31336 A    7834 TIP4 BD1  LP0     -1.358200        0.0000           
   31337 A    7835 TIP4 O1   OW0      0.000000       15.9990           
   31338 A    7835 TIP4 H1   HW0      0.679100        1.0080           
   31339 A    7835 TIP4 H2   HW0      0.679100        1.0080           
   31340 A    7835 TIP4 BD1  LP0     -1.358200        0.0000           
   31341 A    7836 TIP4 O1   OW0      0.000000       15.9990           
   31342 A    7836 TIP4 H1   HW0      0.679100        1.0080           
   31343 A    7836 TIP4 H2   HW0      0.679100        1.0080           
   31344 A    7836 TIP4 BD1  LP0     -1.358200        0.0000           
   31345 A    7837 TIP4 O1   OW0      0.000000       15.9990           
   31346 A    7837 TIP4 H1   HW0      0.679100        1.0080           
   31347 A    7837 TIP4 H2   HW0      0.679100        1.0080           
   31348 A    7837 TIP4 BD1  LP0     -1.358200        0.0000           
   31349 A    7838 TIP4 O1   OW0      0.000000       15.9990           
   31350 A    7838 TIP4 H1   HW0      0.679100        1.0080           
   31351 A    7838 TIP4 H2   HW0      0.679100        1.0080           
   31352 A    7838 TIP4 BD1  LP0     -1.358200        0.0000           
   31353 A    7839 TIP4 O1   OW0      0.000000       15.9990           
   31354 A    7839 TIP4 H1   HW0      0.679100        1.0080           
   31355 A    7839 TIP4 H2   HW0      0.679100        1.0080           
   31356 A    7839 TIP4 BD1  LP0     -1.358200        0.0000           
   31357 A    7840 TIP4 O1   OW0      0.000000       15.9990           
   31358 A    7840 TIP4 H1   HW0      0.679100        1.0080           
   31359 A    7840 TIP4 H2   HW0      0.679100        1.0080           
   31360 A    7840 TIP4 BD1  LP0     -1.358200        0.0000           
   31361 A    7841 TIP4 O1   OW0      0.000000       15.9990           
   31362 A    7841 TIP4 H1   HW0      0.679100        1.0080           
   31363 A    7841 TIP4 H2   HW0      0.679100        1.0080           
   31364 A    7841 TIP4 BD1  LP0     -1.358200        0.0000           
   31365 A    7842 TIP4 O1   OW0      0.000000       15.9990           
   31366 A    7842 TIP4 H1   HW0      0.679100        1.0080           
   31367 A    7842 TIP4 H2   HW0      0.679100        1.0080           
   31368 A    7842 TIP4 BD1  LP0     -1.358200        0.0000           
   31369 A    7843 TIP4 O1   OW0      0.000000       15.9990           
   31370 A    7843 TIP4 H1   HW0      0.679100        1.0080           
   31371 A    7843 TIP4 H2   HW0      0.679100        1.0080           
   31372 A    7843 TIP4 BD1  LP0     -1.358200        0.0000           
   31373 A    7844 TIP4 O1   OW0      0.000000       15.9990           
   31374 A    7844 TIP4 H1   HW0      0.679100        1.0080           
   31375 A    7844 TIP4 H2   HW0      0.679100        1.0080           
   31376 A    7844 TIP4 BD1  LP0     -1.358200        0.0000           
   31377 A    7845 TIP4 O1   OW0      0.000000       15.9990           
   31378 A    7845 TIP4 H1   HW0      0.679100        1.0080           
   31379 A    7845 TIP4 H2   HW0      0.679100        1.0080           
   31380 A    7845 TIP4 BD1  LP0     -1.358200        0.0000           
   31381 A    7846 TIP4 O1   OW0      0.000000       15.9990           
   31382 A    7846 TIP4 H1   HW0      0.679100        1.0080           
   31383 A    7846 TIP4 H2   HW0      0.679100        1.0080           
   31384 A    7846 TIP4 BD1  LP0     -1.358200        0.0000           
   31385 A    7847 TIP4 O1   OW0      0.000000       15.9990           
   31386 A    7847 TIP4 H1   HW0      0.679100        1.0080           
   31387 A    7847 TIP4 H2   HW0      0.679100        1.0080           
   31388 A    7847 TIP4 BD1  LP0     -1.358200        0.0000           
   31389 A    7848 TIP4 O1   OW0      0.000000       15.9990           
   31390 A    7848 TIP4 H1   HW0      0.679100        1.0080           
   31391 A    7848 TIP4 H2   HW0      0.679100        1.0080           
   31392 A    7848 TIP4 BD1  LP0     -1.358200        0.0000           
   31393 A    7849 TIP4 O1   OW0      0.000000       15.9990           
   31394 A    7849 TIP4 H1   HW0      0.679100        1.0080           
   31395 A    7849 TIP4 H2   HW0      0.679100        1.0080           
   31396 A    7849 TIP4 BD1  LP0     -1.358200        0.0000           
   31397 A    7850 TIP4 O1   OW0      0.000000       15.9990           
   31398 A    7850 TIP4 H1   HW0      0.679100        1.0080           
   31399 A    7850 TIP4 H2   HW0      0.679100        1.0080           
   31400 A    7850 TIP4 BD1  LP0     -1.358200        0.0000           
   31401 A    7851 TIP4 O1   OW0      0.000000       15.9990           
   31402 A    7851 TIP4 H1   HW0      0.679100        1.0080           
   31403 A    7851 TIP4 H2   HW0      0.679100        1.0080           
   31404 A    7851 TIP4 BD1  LP0     -1.358200        0.0000           
   31405 A    7852 TIP4 O1   OW0      0.000000       15.9990           
   31406 A    7852 TIP4 H1   HW0      0.679100        1.0080           
   31407 A    7852 TIP4 H2   HW0      0.679100        1.0080           
   31408 A    7852 TIP4 BD1  LP0     -1.358200        0.0000           
   31409 A    7853 TIP4 O1   OW0      0.000000       15.9990           
   31410 A    7853 TIP4 H1   HW0      0.679100        1.0080           
   31411 A    7853 TIP4 H2   HW0      0.679100        1.0080           
   31412 A    7853 TIP4 BD1  LP0     -1.358200        0.0000           
   31413 A    7854 TIP4 O1   OW0      0.000000       15.9990           
   31414 A    7854 TIP4 H1   HW0      0.679100        1.0080           
   31415 A    7854 TIP4 H2   HW0      0.679100        1.0080           
   31416 A    7854 TIP4 BD1  LP0     -1.358200        0.0000           
   31417 A    7855 TIP4 O1   OW0      0.000000       15.9990           
   31418 A    7855 TIP4 H1   HW0      0.679100        1.0080           
   31419 A    7855 TIP4 H2   HW0      0.679100        1.0080           
   31420 A    7855 TIP4 BD1  LP0     -1.358200        0.0000           
   31421 A    7856 TIP4 O1   OW0      0.000000       15.9990           
   31422 A    7856 TIP4 H1   HW0      0.679100        1.0080           
   31423 A    7856 TIP4 H2   HW0      0.679100        1.0080           
   31424 A    7856 TIP4 BD1  LP0     -1.358200        0.0000           
   31425 A    7857 TIP4 O1   OW0      0.000000       15.9990           
   31426 A    7857 TIP4 H1   HW0      0.679100        1.0080           
   31427 A    7857 TIP4 H2   HW0      0.679100        1.0080           
   31428 A    7857 TIP4 BD1  LP0     -1.358200        0.0000           
   31429 A    7858 TIP4 O1   OW0      0.000000       15.9990           
   31430 A    7858 TIP4 H1   HW0      0.679100        1.0080           
   31431 A    7858 TIP4 H2   HW0      0.679100        1.0080           
   31432 A    7858 TIP4 BD1  LP0     -1.358200        0.0000           
   31433 A    7859 TIP4 O1   OW0      0.000000       15.9990           
   31434 A    7859 TIP4 H1   HW0      0.679100        1.0080           
   31435 A    7859 TIP4 H2   HW0      0.679100        1.0080           
   31436 A    7859 TIP4 BD1  LP0     -1.358200        0.0000           
   31437 A    7860 TIP4 O1   OW0      0.000000       15.9990           
   31438 A    7860 TIP4 H1   HW0      0.679100        1.0080           
   31439 A    7860 TIP4 H2   HW0      0.679100        1.0080           
   31440 A    7860 TIP4 BD1  LP0     -1.358200        0.0000           
   31441 A    7861 TIP4 O1   OW0      0.000000       15.9990           
   31442 A    7861 TIP4 H1   HW0      0.679100        1.0080           
   31443 A    7861 TIP4 H2   HW0      0.679100        1.0080           
   31444 A    7861 TIP4 BD1  LP0     -1.358200        0.0000           
   31445 A    7862 TIP4 O1   OW0      0.000000       15.9990           
   31446 A    7862 TIP4 H1   HW0      0.679100        1.0080           
   31447 A    7862 TIP4 H2   HW0      0.679100        1.0080           
   31448 A    7862 TIP4 BD1  LP0     -1.358200        0.0000           
   31449 A    7863 TIP4 O1   OW0      0.000000       15.9990           
   31450 A    7863 TIP4 H1   HW0      0.679100        1.0080           
   31451 A    7863 TIP4 H2   HW0      0.679100        1.0080           
   31452 A    7863 TIP4 BD1  LP0     -1.358200        0.0000           
   31453 A    7864 TIP4 O1   OW0      0.000000       15.9990           
   31454 A    7864 TIP4 H1   HW0      0.679100        1.0080           
   31455 A    7864 TIP4 H2   HW0      0.679100        1.0080           
   31456 A    7864 TIP4 BD1  LP0     -1.358200        0.0000           
   31457 A    7865 TIP4 O1   OW0      0.000000       15.9990           
   31458 A    7865 TIP4 H1   HW0      0.679100        1.0080           
   31459 A    7865 TIP4 H2   HW0      0.679100        1.0080           
   31460 A    7865 TIP4 BD1  LP0     -1.358200        0.0000           
   31461 A    7866 TIP4 O1   OW0      0.000000       15.9990           
   31462 A    7866 TIP4 H1   HW0      0.679100        1.0080           
   31463 A    7866 TIP4 H2   HW0      0.679100        1.0080           
   31464 A    7866 TIP4 BD1  LP0     -1.358200        0.0000           
   31465 A    7867 TIP4 O1   OW0      0.000000       15.9990           
   31466 A    7867 TIP4 H1   HW0      0.679100        1.0080           
   31467 A    7867 TIP4 H2   HW0      0.679100        1.0080           
   31468 A    7867 TIP4 BD1  LP0     -1.358200        0.0000           
   31469 A    7868 TIP4 O1   OW0      0.000000       15.9990           
   31470 A    7868 TIP4 H1   HW0      0.679100        1.0080           
   31471 A    7868 TIP4 H2   HW0      0.679100        1.0080           
   31472 A    7868 TIP4 BD1  LP0     -1.358200        0.0000           
   31473 A    7869 TIP4 O1   OW0      0.000000       15.9990           
   31474 A    7869 TIP4 H1   HW0      0.679100        1.0080           
   31475 A    7869 TIP4 H2   HW0      0.679100        1.0080           
   31476 A    7869 TIP4 BD1  LP0     -1.358200        0.0000           
   31477 A    7870 TIP4 O1   OW0      0.000000       15.9990           
   31478 A    7870 TIP4 H1   HW0      0.679100        1.0080           
   31479 A    7870 TIP4 H2   HW0      0.679100        1.0080           
   31480 A    7870 TIP4 BD1  LP0     -1.358200        0.0000           
   31481 A    7871 TIP4 O1   OW0      0.000000       15.9990           
   31482 A    7871 TIP4 H1   HW0      0.679100        1.0080           
   31483 A    7871 TIP4 H2   HW0      0.679100        1.0080           
   31484 A    7871 TIP4 BD1  LP0     -1.358200        0.0000           
   31485 A    7872 TIP4 O1   OW0      0.000000       15.9990           
   31486 A    7872 TIP4 H1   HW0      0.679100        1.0080           
   31487 A    7872 TIP4 H2   HW0      0.679100        1.0080           
   31488 A    7872 TIP4 BD1  LP0     -1.358200        0.0000           
   31489 A    7873 TIP4 O1   OW0      0.000000       15.9990           
   31490 A    7873 TIP4 H1   HW0      0.679100        1.0080           
   31491 A    7873 TIP4 H2   HW0      0.679100        1.0080           
   31492 A    7873 TIP4 BD1  LP0     -1.358200        0.0000           
   31493 A    7874 TIP4 O1   OW0      0.000000       15.9990           
   31494 A    7874 TIP4 H1   HW0      0.679100        1.0080           
   31495 A    7874 TIP4 H2   HW0      0.679100        1.0080           
   31496 A    7874 TIP4 BD1  LP0     -1.358200        0.0000           
   31497 A    7875 TIP4 O1   OW0      0.000000       15.9990           
   31498 A    7875 TIP4 H1   HW0      0.679100        1.0080           
   31499 A    7875 TIP4 H2   HW0      0.679100        1.0080           
   31500 A    7875 TIP4 BD1  LP0     -1.358200        0.0000           
   31501 A    7876 TIP4 O1   OW0      0.000000       15.9990           
   31502 A    7876 TIP4 H1   HW0      0.679100        1.0080           
   31503 A    7876 TIP4 H2   HW0      0.679100        1.0080           
   31504 A    7876 TIP4 BD1  LP0     -1.358200        0.0000           
   31505 A    7877 TIP4 O1   OW0      0.000000       15.9990           
   31506 A    7877 TIP4 H1   HW0      0.679100        1.0080           
   31507 A    7877 TIP4 H2   HW0      0.679100        1.0080           
   31508 A    7877 TIP4 BD1  LP0     -1.358200        0.0000           
   31509 A    7878 TIP4 O1   OW0      0.000000       15.9990           
   31510 A    7878 TIP4 H1   HW0      0.679100        1.0080           
   31511 A    7878 TIP4 H2   HW0      0.679100        1.0080           
   31512 A    7878 TIP4 BD1  LP0     -1.358200        0.0000           
   31513 A    7879 TIP4 O1   OW0      0.000000       15.9990           
   31514 A    7879 TIP4 H1   HW0      0.679100        1.0080           
   31515 A    7879 TIP4 H2   HW0      0.679100        1.0080           
   31516 A    7879 TIP4 BD1  LP0     -1.358200        0.0000           
   31517 A    7880 TIP4 O1   OW0      0.000000       15.9990           
   31518 A    7880 TIP4 H1   HW0      0.679100        1.0080           
   31519 A    7880 TIP4 H2   HW0      0.679100        1.0080           
   31520 A    7880 TIP4 BD1  LP0     -1.358200        0.0000           
   31521 A    7881 TIP4 O1   OW0      0.000000       15.9990           
   31522 A    7881 TIP4 H1   HW0      0.679100        1.0080           
   31523 A    7881 TIP4 H2   HW0      0.679100        1.0080           
   31524 A    7881 TIP4 BD1  LP0     -1.358200        0.0000           
   31525 A    7882 TIP4 O1   OW0      0.000000       15.9990           
   31526 A    7882 TIP4 H1   HW0      0.679100        1.0080           
   31527 A    7882 TIP4 H2   HW0      0.679100        1.0080           
   31528 A    7882 TIP4 BD1  LP0     -1.358200        0.0000           
   31529 A    7883 TIP4 O1   OW0      0.000000       15.9990           
   31530 A    7883 TIP4 H1   HW0      0.679100        1.0080           
   31531 A    7883 TIP4 H2   HW0      0.679100        1.0080           
   31532 A    7883 TIP4 BD1  LP0     -1.358200        0.0000           
   31533 A    7884 TIP4 O1   OW0      0.000000       15.9990           
   31534 A    7884 TIP4 H1   HW0      0.679100        1.0080           
   31535 A    7884 TIP4 H2   HW0      0.679100        1.0080           
   31536 A    7884 TIP4 BD1  LP0     -1.358200        0.0000           
   31537 A    7885 TIP4 O1   OW0      0.000000       15.9990           
   31538 A    7885 TIP4 H1   HW0      0.679100        1.0080           
   31539 A    7885 TIP4 H2   HW0      0.679100        1.0080           
   31540 A    7885 TIP4 BD1  LP0     -1.358200        0.0000           
   31541 A    7886 TIP4 O1   OW0      0.000000       15.9990           
   31542 A    7886 TIP4 H1   HW0      0.679100        1.0080           
   31543 A    7886 TIP4 H2   HW0      0.679100        1.0080           
   31544 A    7886 TIP4 BD1  LP0     -1.358200        0.0000           
   31545 A    7887 TIP4 O1   OW0      0.000000       15.9990           
   31546 A    7887 TIP4 H1   HW0      0.679100        1.0080           
   31547 A    7887 TIP4 H2   HW0      0.679100        1.0080           
   31548 A    7887 TIP4 BD1  LP0     -1.358200        0.0000           
   31549 A    7888 TIP4 O1   OW0      0.000000       15.9990           
   31550 A    7888 TIP4 H1   HW0      0.679100        1.0080           
   31551 A    7888 TIP4 H2   HW0      0.679100        1.0080           
   31552 A    7888 TIP4 BD1  LP0     -1.358200        0.0000           
   31553 A    7889 TIP4 O1   OW0      0.000000       15.9990           
   31554 A    7889 TIP4 H1   HW0      0.679100        1.0080           
   31555 A    7889 TIP4 H2   HW0      0.679100        1.0080           
   31556 A    7889 TIP4 BD1  LP0     -1.358200        0.0000           
   31557 A    7890 TIP4 O1   OW0      0.000000       15.9990           
   31558 A    7890 TIP4 H1   HW0      0.679100        1.0080           
   31559 A    7890 TIP4 H2   HW0      0.679100        1.0080           
   31560 A    7890 TIP4 BD1  LP0     -1.358200        0.0000           
   31561 A    7891 TIP4 O1   OW0      0.000000       15.9990           
   31562 A    7891 TIP4 H1   HW0      0.679100        1.0080           
   31563 A    7891 TIP4 H2   HW0      0.679100        1.0080           
   31564 A    7891 TIP4 BD1  LP0     -1.358200        0.0000           
   31565 A    7892 TIP4 O1   OW0      0.000000       15.9990           
   31566 A    7892 TIP4 H1   HW0      0.679100        1.0080           
   31567 A    7892 TIP4 H2   HW0      0.679100        1.0080           
   31568 A    7892 TIP4 BD1  LP0     -1.358200        0.0000           
   31569 A    7893 TIP4 O1   OW0      0.000000       15.9990           
   31570 A    7893 TIP4 H1   HW0      0.679100        1.0080           
   31571 A    7893 TIP4 H2   HW0      0.679100        1.0080           
   31572 A    7893 TIP4 BD1  LP0     -1.358200        0.0000           
   31573 A    7894 TIP4 O1   OW0      0.000000       15.9990           
   31574 A    7894 TIP4 H1   HW0      0.679100        1.0080           
   31575 A    7894 TIP4 H2   HW0      0.679100        1.0080           
   31576 A    7894 TIP4 BD1  LP0     -1.358200        0.0000           
   31577 A    7895 TIP4 O1   OW0      0.000000       15.9990           
   31578 A    7895 TIP4 H1   HW0      0.679100        1.0080           
   31579 A    7895 TIP4 H2   HW0      0.679100        1.0080           
   31580 A    7895 TIP4 BD1  LP0     -1.358200        0.0000           
   31581 A    7896 TIP4 O1   OW0      0.000000       15.9990           
   31582 A    7896 TIP4 H1   HW0      0.679100        1.0080           
   31583 A    7896 TIP4 H2   HW0      0.679100        1.0080           
   31584 A    7896 TIP4 BD1  LP0     -1.358200        0.0000           
   31585 A    7897 TIP4 O1   OW0      0.000000       15.9990           
   31586 A    7897 TIP4 H1   HW0      0.679100        1.0080           
   31587 A    7897 TIP4 H2   HW0      0.679100        1.0080           
   31588 A    7897 TIP4 BD1  LP0     -1.358200        0.0000           
   31589 A    7898 TIP4 O1   OW0      0.000000       15.9990           
   31590 A    7898 TIP4 H1   HW0      0.679100        1.0080           
   31591 A    7898 TIP4 H2   HW0      0.679100        1.0080           
   31592 A    7898 TIP4 BD1  LP0     -1.358200        0.0000           
   31593 A    7899 TIP4 O1   OW0      0.000000       15.9990           
   31594 A    7899 TIP4 H1   HW0      0.679100        1.0080           
   31595 A    7899 TIP4 H2   HW0      0.679100        1.0080           
   31596 A    7899 TIP4 BD1  LP0     -1.358200        0.0000           
   31597 A    7900 TIP4 O1   OW0      0.000000       15.9990           
   31598 A    7900 TIP4 H1   HW0      0.679100        1.0080           
   31599 A    7900 TIP4 H2   HW0      0.679100        1.0080           
   31600 A    7900 TIP4 BD1  LP0     -1.358200        0.0000           
   31601 A    7901 TIP4 O1   OW0      0.000000       15.9990           
   31602 A    7901 TIP4 H1   HW0      0.679100        1.0080           
   31603 A    7901 TIP4 H2   HW0      0.679100        1.0080           
   31604 A    7901 TIP4 BD1  LP0     -1.358200        0.0000           
   31605 A    7902 TIP4 O1   OW0      0.000000       15.9990           
   31606 A    7902 TIP4 H1   HW0      0.679100        1.0080           
   31607 A    7902 TIP4 H2   HW0      0.679100        1.0080           
   31608 A    7902 TIP4 BD1  LP0     -1.358200        0.0000           
   31609 A    7903 TIP4 O1   OW0      0.000000       15.9990           
   31610 A    7903 TIP4 H1   HW0      0.679100        1.0080           
   31611 A    7903 TIP4 H2   HW0      0.679100        1.0080           
   31612 A    7903 TIP4 BD1  LP0     -1.358200        0.0000           
   31613 A    7904 TIP4 O1   OW0      0.000000       15.9990           
   31614 A    7904 TIP4 H1   HW0      0.679100        1.0080           
   31615 A    7904 TIP4 H2   HW0      0.679100        1.0080           
   31616 A    7904 TIP4 BD1  LP0     -1.358200        0.0000           
   31617 A    7905 TIP4 O1   OW0      0.000000       15.9990           
   31618 A    7905 TIP4 H1   HW0      0.679100        1.0080           
   31619 A    7905 TIP4 H2   HW0      0.679100        1.0080           
   31620 A    7905 TIP4 BD1  LP0     -1.358200        0.0000           
   31621 A    7906 TIP4 O1   OW0      0.000000       15.9990           
   31622 A    7906 TIP4 H1   HW0      0.679100        1.0080           
   31623 A    7906 TIP4 H2   HW0      0.679100        1.0080           
   31624 A    7906 TIP4 BD1  LP0     -1.358200        0.0000           
   31625 A    7907 TIP4 O1   OW0      0.000000       15.9990           
   31626 A    7907 TIP4 H1   HW0      0.679100        1.0080           
   31627 A    7907 TIP4 H2   HW0      0.679100        1.0080           
   31628 A    7907 TIP4 BD1  LP0     -1.358200        0.0000           
   31629 A    7908 TIP4 O1   OW0      0.000000       15.9990           
   31630 A    7908 TIP4 H1   HW0      0.679100        1.0080           
   31631 A    7908 TIP4 H2   HW0      0.679100        1.0080           
   31632 A    7908 TIP4 BD1  LP0     -1.358200        0.0000           
   31633 A    7909 TIP4 O1   OW0      0.000000       15.9990           
   31634 A    7909 TIP4 H1   HW0      0.679100        1.0080           
   31635 A    7909 TIP4 H2   HW0      0.679100        1.0080           
   31636 A    7909 TIP4 BD1  LP0     -1.358200        0.0000           
   31637 A    7910 TIP4 O1   OW0      0.000000       15.9990           
   31638 A    7910 TIP4 H1   HW0      0.679100        1.0080           
   31639 A    7910 TIP4 H2   HW0      0.679100        1.0080           
   31640 A    7910 TIP4 BD1  LP0     -1.358200        0.0000           
   31641 A    7911 TIP4 O1   OW0      0.000000       15.9990           
   31642 A    7911 TIP4 H1   HW0      0.679100        1.0080           
   31643 A    7911 TIP4 H2   HW0      0.679100        1.0080           
   31644 A    7911 TIP4 BD1  LP0     -1.358200        0.0000           
   31645 A    7912 TIP4 O1   OW0      0.000000       15.9990           
   31646 A    7912 TIP4 H1   HW0      0.679100        1.0080           
   31647 A    7912 TIP4 H2   HW0      0.679100        1.0080           
   31648 A    7912 TIP4 BD1  LP0     -1.358200        0.0000           
   31649 A    7913 TIP4 O1   OW0      0.000000       15.9990           
   31650 A    7913 TIP4 H1   HW0      0.679100        1.0080           
   31651 A    7913 TIP4 H2   HW0      0.679100        1.0080           
   31652 A    7913 TIP4 BD1  LP0     -1.358200        0.0000           
   31653 A    7914 TIP4 O1   OW0      0.000000       15.9990           
   31654 A    7914 TIP4 H1   HW0      0.679100        1.0080           
   31655 A    7914 TIP4 H2   HW0      0.679100        1.0080           
   31656 A    7914 TIP4 BD1  LP0     -1.358200        0.0000           
   31657 A    7915 TIP4 O1   OW0      0.000000       15.9990           
   31658 A    7915 TIP4 H1   HW0      0.679100        1.0080           
   31659 A    7915 TIP4 H2   HW0      0.679100        1.0080           
   31660 A    7915 TIP4 BD1  LP0     -1.358200        0.0000           
   31661 A    7916 TIP4 O1   OW0      0.000000       15.9990           
   31662 A    7916 TIP4 H1   HW0      0.679100        1.0080           
   31663 A    7916 TIP4 H2   HW0      0.679100        1.0080           
   31664 A    7916 TIP4 BD1  LP0     -1.358200        0.0000           
   31665 A    7917 TIP4 O1   OW0      0.000000       15.9990           
   31666 A    7917 TIP4 H1   HW0      0.679100        1.0080           
   31667 A    7917 TIP4 H2   HW0      0.679100        1.0080           
   31668 A    7917 TIP4 BD1  LP0     -1.358200        0.0000           
   31669 A    7918 TIP4 O1   OW0      0.000000       15.9990           
   31670 A    7918 TIP4 H1   HW0      0.679100        1.0080           
   31671 A    7918 TIP4 H2   HW0      0.679100        1.0080           
   31672 A    7918 TIP4 BD1  LP0     -1.358200        0.0000           
   31673 A    7919 TIP4 O1   OW0      0.000000       15.9990           
   31674 A    7919 TIP4 H1   HW0      0.679100        1.0080           
   31675 A    7919 TIP4 H2   HW0      0.679100        1.0080           
   31676 A    7919 TIP4 BD1  LP0     -1.358200        0.0000           
   31677 A    7920 TIP4 O1   OW0      0.000000       15.9990           
   31678 A    7920 TIP4 H1   HW0      0.679100        1.0080           
   31679 A    7920 TIP4 H2   HW0      0.679100        1.0080           
   31680 A    7920 TIP4 BD1  LP0     -1.358200        0.0000           
   31681 A    7921 TIP4 O1   OW0      0.000000       15.9990           
   31682 A    7921 TIP4 H1   HW0      0.679100        1.0080           
   31683 A    7921 TIP4 H2   HW0      0.679100        1.0080           
   31684 A    7921 TIP4 BD1  LP0     -1.358200        0.0000           
   31685 A    7922 TIP4 O1   OW0      0.000000       15.9990           
   31686 A    7922 TIP4 H1   HW0      0.679100        1.0080           
   31687 A    7922 TIP4 H2   HW0      0.679100        1.0080           
   31688 A    7922 TIP4 BD1  LP0     -1.358200        0.0000           
   31689 A    7923 TIP4 O1   OW0      0.000000       15.9990           
   31690 A    7923 TIP4 H1   HW0      0.679100        1.0080           
   31691 A    7923 TIP4 H2   HW0      0.679100        1.0080           
   31692 A    7923 TIP4 BD1  LP0     -1.358200        0.0000           
   31693 A    7924 TIP4 O1   OW0      0.000000       15.9990           
   31694 A    7924 TIP4 H1   HW0      0.679100        1.0080           
   31695 A    7924 TIP4 H2   HW0      0.679100        1.0080           
   31696 A    7924 TIP4 BD1  LP0     -1.358200        0.0000           
   31697 A    7925 TIP4 O1   OW0      0.000000       15.9990           
   31698 A    7925 TIP4 H1   HW0      0.679100        1.0080           
   31699 A    7925 TIP4 H2   HW0      0.679100        1.0080           
   31700 A    7925 TIP4 BD1  LP0     -1.358200        0.0000           
   31701 A    7926 TIP4 O1   OW0      0.000000       15.9990           
   31702 A    7926 TIP4 H1   HW0      0.679100        1.0080           
   31703 A    7926 TIP4 H2   HW0      0.679100        1.0080           
   31704 A    7926 TIP4 BD1  LP0     -1.358200        0.0000           
   31705 A    7927 TIP4 O1   OW0      0.000000       15.9990           
   31706 A    7927 TIP4 H1   HW0      0.679100        1.0080           
   31707 A    7927 TIP4 H2   HW0      0.679100        1.0080           
   31708 A    7927 TIP4 BD1  LP0     -1.358200        0.0000           
   31709 A    7928 TIP4 O1   OW0      0.000000       15.9990           
   31710 A    7928 TIP4 H1   HW0      0.679100        1.0080           
   31711 A    7928 TIP4 H2   HW0      0.679100        1.0080           
   31712 A    7928 TIP4 BD1  LP0     -1.358200        0.0000           
   31713 A    7929 TIP4 O1   OW0      0.000000       15.9990           
   31714 A    7929 TIP4 H1   HW0      0.679100        1.0080           
   31715 A    7929 TIP4 H2   HW0      0.679100        1.0080           
   31716 A    7929 TIP4 BD1  LP0     -1.358200        0.0000           
   31717 A    7930 TIP4 O1   OW0      0.000000       15.9990           
   31718 A    7930 TIP4 H1   HW0      0.679100        1.0080           
   31719 A    7930 TIP4 H2   HW0      0.679100        1.0080           
   31720 A    7930 TIP4 BD1  LP0     -1.358200        0.0000           
   31721 A    7931 TIP4 O1   OW0      0.000000       15.9990           
   31722 A    7931 TIP4 H1   HW0      0.679100        1.0080           
   31723 A    7931 TIP4 H2   HW0      0.679100        1.0080           
   31724 A    7931 TIP4 BD1  LP0     -1.358200        0.0000           
   31725 A    7932 TIP4 O1   OW0      0.000000       15.9990           
   31726 A    7932 TIP4 H1   HW0      0.679100        1.0080           
   31727 A    7932 TIP4 H2   HW0      0.679100        1.0080           
   31728 A    7932 TIP4 BD1  LP0     -1.358200        0.0000           
   31729 A    7933 TIP4 O1   OW0      0.000000       15.9990           
   31730 A    7933 TIP4 H1   HW0      0.679100        1.0080           
   31731 A    7933 TIP4 H2   HW0      0.679100        1.0080           
   31732 A    7933 TIP4 BD1  LP0     -1.358200        0.0000           
   31733 A    7934 TIP4 O1   OW0      0.000000       15.9990           
   31734 A    7934 TIP4 H1   HW0      0.679100        1.0080           
   31735 A    7934 TIP4 H2   HW0      0.679100        1.0080           
   31736 A    7934 TIP4 BD1  LP0     -1.358200        0.0000           
   31737 A    7935 TIP4 O1   OW0      0.000000       15.9990           
   31738 A    7935 TIP4 H1   HW0      0.679100        1.0080           
   31739 A    7935 TIP4 H2   HW0      0.679100        1.0080           
   31740 A    7935 TIP4 BD1  LP0     -1.358200        0.0000           
   31741 A    7936 TIP4 O1   OW0      0.000000       15.9990           
   31742 A    7936 TIP4 H1   HW0      0.679100        1.0080           
   31743 A    7936 TIP4 H2   HW0      0.679100        1.0080           
   31744 A    7936 TIP4 BD1  LP0     -1.358200        0.0000           
   31745 A    7937 TIP4 O1   OW0      0.000000       15.9990           
   31746 A    7937 TIP4 H1   HW0      0.679100        1.0080           
   31747 A    7937 TIP4 H2   HW0      0.679100        1.0080           
   31748 A    7937 TIP4 BD1  LP0     -1.358200        0.0000           
   31749 A    7938 TIP4 O1   OW0      0.000000       15.9990           
   31750 A    7938 TIP4 H1   HW0      0.679100        1.0080           
   31751 A    7938 TIP4 H2   HW0      0.679100        1.0080           
   31752 A    7938 TIP4 BD1  LP0     -1.358200        0.0000           
   31753 A    7939 TIP4 O1   OW0      0.000000       15.9990           
   31754 A    7939 TIP4 H1   HW0      0.679100        1.0080           
   31755 A    7939 TIP4 H2   HW0      0.679100        1.0080           
   31756 A    7939 TIP4 BD1  LP0     -1.358200        0.0000           
   31757 A    7940 TIP4 O1   OW0      0.000000       15.9990           
   31758 A    7940 TIP4 H1   HW0      0.679100        1.0080           
   31759 A    7940 TIP4 H2   HW0      0.679100        1.0080           
   31760 A    7940 TIP4 BD1  LP0     -1.358200        0.0000           
   31761 A    7941 TIP4 O1   OW0      0.000000       15.9990           
   31762 A    7941 TIP4 H1   HW0      0.679100        1.0080           
   31763 A    7941 TIP4 H2   HW0      0.679100        1.0080           
   31764 A    7941 TIP4 BD1  LP0     -1.358200        0.0000           
   31765 A    7942 TIP4 O1   OW0      0.000000       15.9990           
   31766 A    7942 TIP4 H1   HW0      0.679100        1.0080           
   31767 A    7942 TIP4 H2   HW0      0.679100        1.0080           
   31768 A    7942 TIP4 BD1  LP0     -1.358200        0.0000           
   31769 A    7943 TIP4 O1   OW0      0.000000       15.9990           
   31770 A    7943 TIP4 H1   HW0      0.679100        1.0080           
   31771 A    7943 TIP4 H2   HW0      0.679100        1.0080           
   31772 A    7943 TIP4 BD1  LP0     -1.358200        0.0000           
   31773 A    7944 TIP4 O1   OW0      0.000000       15.9990           
   31774 A    7944 TIP4 H1   HW0      0.679100        1.0080           
   31775 A    7944 TIP4 H2   HW0      0.679100        1.0080           
   31776 A    7944 TIP4 BD1  LP0     -1.358200        0.0000           
   31777 A    7945 TIP4 O1   OW0      0.000000       15.9990           
   31778 A    7945 TIP4 H1   HW0      0.679100        1.0080           
   31779 A    7945 TIP4 H2   HW0      0.679100        1.0080           
   31780 A    7945 TIP4 BD1  LP0     -1.358200        0.0000           
   31781 A    7946 TIP4 O1   OW0      0.000000       15.9990           
   31782 A    7946 TIP4 H1   HW0      0.679100        1.0080           
   31783 A    7946 TIP4 H2   HW0      0.679100        1.0080           
   31784 A    7946 TIP4 BD1  LP0     -1.358200        0.0000           
   31785 A    7947 TIP4 O1   OW0      0.000000       15.9990           
   31786 A    7947 TIP4 H1   HW0      0.679100        1.0080           
   31787 A    7947 TIP4 H2   HW0      0.679100        1.0080           
   31788 A    7947 TIP4 BD1  LP0     -1.358200        0.0000           
   31789 A    7948 TIP4 O1   OW0      0.000000       15.9990           
   31790 A    7948 TIP4 H1   HW0      0.679100        1.0080           
   31791 A    7948 TIP4 H2   HW0      0.679100        1.0080           
   31792 A    7948 TIP4 BD1  LP0     -1.358200        0.0000           
   31793 A    7949 TIP4 O1   OW0      0.000000       15.9990           
   31794 A    7949 TIP4 H1   HW0      0.679100        1.0080           
   31795 A    7949 TIP4 H2   HW0      0.679100        1.0080           
   31796 A    7949 TIP4 BD1  LP0     -1.358200        0.0000           
   31797 A    7950 TIP4 O1   OW0      0.000000       15.9990           
   31798 A    7950 TIP4 H1   HW0      0.679100        1.0080           
   31799 A    7950 TIP4 H2   HW0      0.679100        1.0080           
   31800 A    7950 TIP4 BD1  LP0     -1.358200        0.0000           
   31801 A    7951 TIP4 O1   OW0      0.000000       15.9990           
   31802 A    7951 TIP4 H1   HW0      0.679100        1.0080           
   31803 A    7951 TIP4 H2   HW0      0.679100        1.0080           
   31804 A    7951 TIP4 BD1  LP0     -1.358200        0.0000           
   31805 A    7952 TIP4 O1   OW0      0.000000       15.9990           
   31806 A    7952 TIP4 H1   HW0      0.679100        1.0080           
   31807 A    7952 TIP4 H2   HW0      0.679100        1.0080           
   31808 A    7952 TIP4 BD1  LP0     -1.358200        0.0000           
   31809 A    7953 TIP4 O1   OW0      0.000000       15.9990           
   31810 A    7953 TIP4 H1   HW0      0.679100        1.0080           
   31811 A    7953 TIP4 H2   HW0      0.679100        1.0080           
   31812 A    7953 TIP4 BD1  LP0     -1.358200        0.0000           
   31813 A    7954 TIP4 O1   OW0      0.000000       15.9990           
   31814 A    7954 TIP4 H1   HW0      0.679100        1.0080           
   31815 A    7954 TIP4 H2   HW0      0.679100        1.0080           
   31816 A    7954 TIP4 BD1  LP0     -1.358200        0.0000           
   31817 A    7955 TIP4 O1   OW0      0.000000       15.9990           
   31818 A    7955 TIP4 H1   HW0      0.679100        1.0080           
   31819 A    7955 TIP4 H2   HW0      0.679100        1.0080           
   31820 A    7955 TIP4 BD1  LP0     -1.358200        0.0000           
   31821 A    7956 TIP4 O1   OW0      0.000000       15.9990           
   31822 A    7956 TIP4 H1   HW0      0.679100        1.0080           
   31823 A    7956 TIP4 H2   HW0      0.679100        1.0080           
   31824 A    7956 TIP4 BD1  LP0     -1.358200        0.0000           
   31825 A    7957 TIP4 O1   OW0      0.000000       15.9990           
   31826 A    7957 TIP4 H1   HW0      0.679100        1.0080           
   31827 A    7957 TIP4 H2   HW0      0.679100        1.0080           
   31828 A    7957 TIP4 BD1  LP0     -1.358200        0.0000           
   31829 A    7958 TIP4 O1   OW0      0.000000       15.9990           
   31830 A    7958 TIP4 H1   HW0      0.679100        1.0080           
   31831 A    7958 TIP4 H2   HW0      0.679100        1.0080           
   31832 A    7958 TIP4 BD1  LP0     -1.358200        0.0000           
   31833 A    7959 TIP4 O1   OW0      0.000000       15.9990           
   31834 A    7959 TIP4 H1   HW0      0.679100        1.0080           
   31835 A    7959 TIP4 H2   HW0      0.679100        1.0080           
   31836 A    7959 TIP4 BD1  LP0     -1.358200        0.0000           
   31837 A    7960 TIP4 O1   OW0      0.000000       15.9990           
   31838 A    7960 TIP4 H1   HW0      0.679100        1.0080           
   31839 A    7960 TIP4 H2   HW0      0.679100        1.0080           
   31840 A    7960 TIP4 BD1  LP0     -1.358200        0.0000           
   31841 A    7961 TIP4 O1   OW0      0.000000       15.9990           
   31842 A    7961 TIP4 H1   HW0      0.679100        1.0080           
   31843 A    7961 TIP4 H2   HW0      0.679100        1.0080           
   31844 A    7961 TIP4 BD1  LP0     -1.358200        0.0000           
   31845 A    7962 TIP4 O1   OW0      0.000000       15.9990           
   31846 A    7962 TIP4 H1   HW0      0.679100        1.0080           
   31847 A    7962 TIP4 H2   HW0      0.679100        1.0080           
   31848 A    7962 TIP4 BD1  LP0     -1.358200        0.0000           
   31849 A    7963 TIP4 O1   OW0      0.000000       15.9990           
   31850 A    7963 TIP4 H1   HW0      0.679100        1.0080           
   31851 A    7963 TIP4 H2   HW0      0.679100        1.0080           
   31852 A    7963 TIP4 BD1  LP0     -1.358200        0.0000           
   31853 A    7964 TIP4 O1   OW0      0.000000       15.9990           
   31854 A    7964 TIP4 H1   HW0      0.679100        1.0080           
   31855 A    7964 TIP4 H2   HW0      0.679100        1.0080           
   31856 A    7964 TIP4 BD1  LP0     -1.358200        0.0000           
   31857 A    7965 TIP4 O1   OW0      0.000000       15.9990           
   31858 A    7965 TIP4 H1   HW0      0.679100        1.0080           
   31859 A    7965 TIP4 H2   HW0      0.679100        1.0080           
   31860 A    7965 TIP4 BD1  LP0     -1.358200        0.0000           
   31861 A    7966 TIP4 O1   OW0      0.000000       15.9990           
   31862 A    7966 TIP4 H1   HW0      0.679100        1.0080           
   31863 A    7966 TIP4 H2   HW0      0.679100        1.0080           
   31864 A    7966 TIP4 BD1  LP0     -1.358200        0.0000           
   31865 A    7967 TIP4 O1   OW0      0.000000       15.9990           
   31866 A    7967 TIP4 H1   HW0      0.679100        1.0080           
   31867 A    7967 TIP4 H2   HW0      0.679100        1.0080           
   31868 A    7967 TIP4 BD1  LP0     -1.358200        0.0000           
   31869 A    7968 TIP4 O1   OW0      0.000000       15.9990           
   31870 A    7968 TIP4 H1   HW0      0.679100        1.0080           
   31871 A    7968 TIP4 H2   HW0      0.679100        1.0080           
   31872 A    7968 TIP4 BD1  LP0     -1.358200        0.0000           
   31873 A    7969 TIP4 O1   OW0      0.000000       15.9990           
   31874 A    7969 TIP4 H1   HW0      0.679100        1.0080           
   31875 A    7969 TIP4 H2   HW0      0.679100        1.0080           
   31876 A    7969 TIP4 BD1  LP0     -1.358200        0.0000           
   31877 A    7970 TIP4 O1   OW0      0.000000       15.9990           
   31878 A    7970 TIP4 H1   HW0      0.679100        1.0080           
   31879 A    7970 TIP4 H2   HW0      0.679100        1.0080           
   31880 A    7970 TIP4 BD1  LP0     -1.358200        0.0000           
   31881 A    7971 TIP4 O1   OW0      0.000000       15.9990           
   31882 A    7971 TIP4 H1   HW0      0.679100        1.0080           
   31883 A    7971 TIP4 H2   HW0      0.679100        1.0080           
   31884 A    7971 TIP4 BD1  LP0     -1.358200        0.0000           
   31885 A    7972 TIP4 O1   OW0      0.000000       15.9990           
   31886 A    7972 TIP4 H1   HW0      0.679100        1.0080           
   31887 A    7972 TIP4 H2   HW0      0.679100        1.0080           
   31888 A    7972 TIP4 BD1  LP0     -1.358200        0.0000           
   31889 A    7973 TIP4 O1   OW0      0.000000       15.9990           
   31890 A    7973 TIP4 H1   HW0      0.679100        1.0080           
   31891 A    7973 TIP4 H2   HW0      0.679100        1.0080           
   31892 A    7973 TIP4 BD1  LP0     -1.358200        0.0000           
   31893 A    7974 TIP4 O1   OW0      0.000000       15.9990           
   31894 A    7974 TIP4 H1   HW0      0.679100        1.0080           
   31895 A    7974 TIP4 H2   HW0      0.679100        1.0080           
   31896 A    7974 TIP4 BD1  LP0     -1.358200        0.0000           
   31897 A    7975 TIP4 O1   OW0      0.000000       15.9990           
   31898 A    7975 TIP4 H1   HW0      0.679100        1.0080           
   31899 A    7975 TIP4 H2   HW0      0.679100        1.0080           
   31900 A    7975 TIP4 BD1  LP0     -1.358200        0.0000           
   31901 A    7976 TIP4 O1   OW0      0.000000       15.9990           
   31902 A    7976 TIP4 H1   HW0      0.679100        1.0080           
   31903 A    7976 TIP4 H2   HW0      0.679100        1.0080           
   31904 A    7976 TIP4 BD1  LP0     -1.358200        0.0000           
   31905 A    7977 TIP4 O1   OW0      0.000000       15.9990           
   31906 A    7977 TIP4 H1   HW0      0.679100        1.0080           
   31907 A    7977 TIP4 H2   HW0      0.679100        1.0080           
   31908 A    7977 TIP4 BD1  LP0     -1.358200        0.0000           
   31909 A    7978 TIP4 O1   OW0      0.000000       15.9990           
   31910 A    7978 TIP4 H1   HW0      0.679100        1.0080           
   31911 A    7978 TIP4 H2   HW0      0.679100        1.0080           
   31912 A    7978 TIP4 BD1  LP0     -1.358200        0.0000           
   31913 A    7979 TIP4 O1   OW0      0.000000       15.9990           
   31914 A    7979 TIP4 H1   HW0      0.679100        1.0080           
   31915 A    7979 TIP4 H2   HW0      0.679100        1.0080           
   31916 A    7979 TIP4 BD1  LP0     -1.358200        0.0000           
   31917 A    7980 TIP4 O1   OW0      0.000000       15.9990           
   31918 A    7980 TIP4 H1   HW0      0.679100        1.0080           
   31919 A    7980 TIP4 H2   HW0      0.679100        1.0080           
   31920 A    7980 TIP4 BD1  LP0     -1.358200        0.0000           
   31921 A    7981 TIP4 O1   OW0      0.000000       15.9990           
   31922 A    7981 TIP4 H1   HW0      0.679100        1.0080           
   31923 A    7981 TIP4 H2   HW0      0.679100        1.0080           
   31924 A    7981 TIP4 BD1  LP0     -1.358200        0.0000           
   31925 A    7982 TIP4 O1   OW0      0.000000       15.9990           
   31926 A    7982 TIP4 H1   HW0      0.679100        1.0080           
   31927 A    7982 TIP4 H2   HW0      0.679100        1.0080           
   31928 A    7982 TIP4 BD1  LP0     -1.358200        0.0000           
   31929 A    7983 TIP4 O1   OW0      0.000000       15.9990           
   31930 A    7983 TIP4 H1   HW0      0.679100        1.0080           
   31931 A    7983 TIP4 H2   HW0      0.679100        1.0080           
   31932 A    7983 TIP4 BD1  LP0     -1.358200        0.0000           
   31933 A    7984 TIP4 O1   OW0      0.000000       15.9990           
   31934 A    7984 TIP4 H1   HW0      0.679100        1.0080           
   31935 A    7984 TIP4 H2   HW0      0.679100        1.0080           
   31936 A    7984 TIP4 BD1  LP0     -1.358200        0.0000           
   31937 A    7985 TIP4 O1   OW0      0.000000       15.9990           
   31938 A    7985 TIP4 H1   HW0      0.679100        1.0080           
   31939 A    7985 TIP4 H2   HW0      0.679100        1.0080           
   31940 A    7985 TIP4 BD1  LP0     -1.358200        0.0000           
   31941 A    7986 TIP4 O1   OW0      0.000000       15.9990           
   31942 A    7986 TIP4 H1   HW0      0.679100        1.0080           
   31943 A    7986 TIP4 H2   HW0      0.679100        1.0080           
   31944 A    7986 TIP4 BD1  LP0     -1.358200        0.0000           
   31945 A    7987 TIP4 O1   OW0      0.000000       15.9990           
   31946 A    7987 TIP4 H1   HW0      0.679100        1.0080           
   31947 A    7987 TIP4 H2   HW0      0.679100        1.0080           
   31948 A    7987 TIP4 BD1  LP0     -1.358200        0.0000           
   31949 A    7988 TIP4 O1   OW0      0.000000       15.9990           
   31950 A    7988 TIP4 H1   HW0      0.679100        1.0080           
   31951 A    7988 TIP4 H2   HW0      0.679100        1.0080           
   31952 A    7988 TIP4 BD1  LP0     -1.358200        0.0000           
   31953 A    7989 TIP4 O1   OW0      0.000000       15.9990           
   31954 A    7989 TIP4 H1   HW0      0.679100        1.0080           
   31955 A    7989 TIP4 H2   HW0      0.679100        1.0080           
   31956 A    7989 TIP4 BD1  LP0     -1.358200        0.0000           
   31957 A    7990 TIP4 O1   OW0      0.000000       15.9990           
   31958 A    7990 TIP4 H1   HW0      0.679100        1.0080           
   31959 A    7990 TIP4 H2   HW0      0.679100        1.0080           
   31960 A    7990 TIP4 BD1  LP0     -1.358200        0.0000           
   31961 A    7991 TIP4 O1   OW0      0.000000       15.9990           
   31962 A    7991 TIP4 H1   HW0      0.679100        1.0080           
   31963 A    7991 TIP4 H2   HW0      0.679100        1.0080           
   31964 A    7991 TIP4 BD1  LP0     -1.358200        0.0000           
   31965 A    7992 TIP4 O1   OW0      0.000000       15.9990           
   31966 A    7992 TIP4 H1   HW0      0.679100        1.0080           
   31967 A    7992 TIP4 H2   HW0      0.679100        1.0080           
   31968 A    7992 TIP4 BD1  LP0     -1.358200        0.0000           
   31969 A    7993 TIP4 O1   OW0      0.000000       15.9990           
   31970 A    7993 TIP4 H1   HW0      0.679100        1.0080           
   31971 A    7993 TIP4 H2   HW0      0.679100        1.0080           
   31972 A    7993 TIP4 BD1  LP0     -1.358200        0.0000           
   31973 A    7994 TIP4 O1   OW0      0.000000       15.9990           
   31974 A    7994 TIP4 H1   HW0      0.679100        1.0080           
   31975 A    7994 TIP4 H2   HW0      0.679100        1.0080           
   31976 A    7994 TIP4 BD1  LP0     -1.358200        0.0000           
   31977 A    7995 TIP4 O1   OW0      0.000000       15.9990           
   31978 A    7995 TIP4 H1   HW0      0.679100        1.0080           
   31979 A    7995 TIP4 H2   HW0      0.679100        1.0080           
   31980 A    7995 TIP4 BD1  LP0     -1.358200        0.0000           
   31981 A    7996 TIP4 O1   OW0      0.000000       15.9990           
   31982 A    7996 TIP4 H1   HW0      0.679100        1.0080           
   31983 A    7996 TIP4 H2   HW0      0.679100        1.0080           
   31984 A    7996 TIP4 BD1  LP0     -1.358200        0.0000           
   31985 A    7997 TIP4 O1   OW0      0.000000       15.9990           
   31986 A    7997 TIP4 H1   HW0      0.679100        1.0080           
   31987 A    7997 TIP4 H2   HW0      0.679100        1.0080           
   31988 A    7997 TIP4 BD1  LP0     -1.358200        0.0000           
   31989 A    7998 TIP4 O1   OW0      0.000000       15.9990           
   31990 A    7998 TIP4 H1   HW0      0.679100        1.0080           
   31991 A    7998 TIP4 H2   HW0      0.679100        1.0080           
   31992 A    7998 TIP4 BD1  LP0     -1.358200        0.0000           
   31993 A    7999 TIP4 O1   OW0      0.000000       15.9990           
   31994 A    7999 TIP4 H1   HW0      0.679100        1.0080           
   31995 A    7999 TIP4 H2   HW0      0.679100        1.0080           
   31996 A    7999 TIP4 BD1  LP0     -1.358200        0.0000           
   31997 A    8000 TIP4 O1   OW0      0.000000       15.9990           
   31998 A    8000 TIP4 H1   HW0      0.679100        1.0080           
   31999 A    8000 TIP4 H2   HW0      0.679100        1.0080           
   32000 A    8000 TIP4 BD1  LP0     -1.358200        0.0000           
   32001 A    8001 TIP4 O1   OW0      0.000000       15.9990           
   32002 A    8001 TIP4 H1   HW0      0.679100        1.0080           
   32003 A    8001 TIP4 H2   HW0      0.679100        1.0080           
   32004 A    8001 TIP4 BD1  LP0     -1.358200        0.0000           
   32005 A    8002 TIP4 O1   OW0      0.000000       15.9990           
   32006 A    8002 TIP4 H1   HW0      0.679100        1.0080           
   32007 A    8002 TIP4 H2   HW0      0.679100        1.0080           
   32008 A    8002 TIP4 BD1  LP0     -1.358200        0.0000           
   32009 A    8003 TIP4 O1   OW0      0.000000       15.9990           
   32010 A    8003 TIP4 H1   HW0      0.679100        1.0080           
   32011 A    8003 TIP4 H2   HW0      0.679100        1.0080           
   32012 A    8003 TIP4 BD1  LP0     -1.358200        0.0000           
   32013 A    8004 TIP4 O1   OW0      0.000000       15.9990           
   32014 A    8004 TIP4 H1   HW0      0.679100        1.0080           
   32015 A    8004 TIP4 H2   HW0      0.679100        1.0080           
   32016 A    8004 TIP4 BD1  LP0     -1.358200        0.0000           
   32017 A    8005 TIP4 O1   OW0      0.000000       15.9990           
   32018 A    8005 TIP4 H1   HW0      0.679100        1.0080           
   32019 A    8005 TIP4 H2   HW0      0.679100        1.0080           
   32020 A    8005 TIP4 BD1  LP0     -1.358200        0.0000           
   32021 A    8006 TIP4 O1   OW0      0.000000       15.9990           
   32022 A    8006 TIP4 H1   HW0      0.679100        1.0080           
   32023 A    8006 TIP4 H2   HW0      0.679100        1.0080           
   32024 A    8006 TIP4 BD1  LP0     -1.358200        0.0000           
   32025 A    8007 TIP4 O1   OW0      0.000000       15.9990           
   32026 A    8007 TIP4 H1   HW0      0.679100        1.0080           
   32027 A    8007 TIP4 H2   HW0      0.679100        1.0080           
   32028 A    8007 TIP4 BD1  LP0     -1.358200        0.0000           
   32029 A    8008 TIP4 O1   OW0      0.000000       15.9990           
   32030 A    8008 TIP4 H1   HW0      0.679100        1.0080           
   32031 A    8008 TIP4 H2   HW0      0.679100        1.0080           
   32032 A    8008 TIP4 BD1  LP0     -1.358200        0.0000           
   32033 A    8009 TIP4 O1   OW0      0.000000       15.9990           
   32034 A    8009 TIP4 H1   HW0      0.679100        1.0080           
   32035 A    8009 TIP4 H2   HW0      0.679100        1.0080           
   32036 A    8009 TIP4 BD1  LP0     -1.358200        0.0000           
   32037 A    8010 TIP4 O1   OW0      0.000000       15.9990           
   32038 A    8010 TIP4 H1   HW0      0.679100        1.0080           
   32039 A    8010 TIP4 H2   HW0      0.679100        1.0080           
   32040 A    8010 TIP4 BD1  LP0     -1.358200        0.0000           
   32041 A    8011 TIP4 O1   OW0      0.000000       15.9990           
   32042 A    8011 TIP4 H1   HW0      0.679100        1.0080           
   32043 A    8011 TIP4 H2   HW0      0.679100        1.0080           
   32044 A    8011 TIP4 BD1  LP0     -1.358200        0.0000           
   32045 A    8012 TIP4 O1   OW0      0.000000       15.9990           
   32046 A    8012 TIP4 H1   HW0      0.679100        1.0080           
   32047 A    8012 TIP4 H2   HW0      0.679100        1.0080           
   32048 A    8012 TIP4 BD1  LP0     -1.358200        0.0000           
   32049 A    8013 TIP4 O1   OW0      0.000000       15.9990           
   32050 A    8013 TIP4 H1   HW0      0.679100        1.0080           
   32051 A    8013 TIP4 H2   HW0      0.679100        1.0080           
   32052 A    8013 TIP4 BD1  LP0     -1.358200        0.0000           
   32053 A    8014 TIP4 O1   OW0      0.000000       15.9990           
   32054 A    8014 TIP4 H1   HW0      0.679100        1.0080           
   32055 A    8014 TIP4 H2   HW0      0.679100        1.0080           
   32056 A    8014 TIP4 BD1  LP0     -1.358200        0.0000           
   32057 A    8015 TIP4 O1   OW0      0.000000       15.9990           
   32058 A    8015 TIP4 H1   HW0      0.679100        1.0080           
   32059 A    8015 TIP4 H2   HW0      0.679100        1.0080           
   32060 A    8015 TIP4 BD1  LP0     -1.358200        0.0000           
   32061 A    8016 TIP4 O1   OW0      0.000000       15.9990           
   32062 A    8016 TIP4 H1   HW0      0.679100        1.0080           
   32063 A    8016 TIP4 H2   HW0      0.679100        1.0080           
   32064 A    8016 TIP4 BD1  LP0     -1.358200        0.0000           
   32065 A    8017 TIP4 O1   OW0      0.000000       15.9990           
   32066 A    8017 TIP4 H1   HW0      0.679100        1.0080           
   32067 A    8017 TIP4 H2   HW0      0.679100        1.0080           
   32068 A    8017 TIP4 BD1  LP0     -1.358200        0.0000           
   32069 A    8018 TIP4 O1   OW0      0.000000       15.9990           
   32070 A    8018 TIP4 H1   HW0      0.679100        1.0080           
   32071 A    8018 TIP4 H2   HW0      0.679100        1.0080           
   32072 A    8018 TIP4 BD1  LP0     -1.358200        0.0000           
   32073 A    8019 TIP4 O1   OW0      0.000000       15.9990           
   32074 A    8019 TIP4 H1   HW0      0.679100        1.0080           
   32075 A    8019 TIP4 H2   HW0      0.679100        1.0080           
   32076 A    8019 TIP4 BD1  LP0     -1.358200        0.0000           
   32077 A    8020 TIP4 O1   OW0      0.000000       15.9990           
   32078 A    8020 TIP4 H1   HW0      0.679100        1.0080           
   32079 A    8020 TIP4 H2   HW0      0.679100        1.0080           
   32080 A    8020 TIP4 BD1  LP0     -1.358200        0.0000           
   32081 A    8021 TIP4 O1   OW0      0.000000       15.9990           
   32082 A    8021 TIP4 H1   HW0      0.679100        1.0080           
   32083 A    8021 TIP4 H2   HW0      0.679100        1.0080           
   32084 A    8021 TIP4 BD1  LP0     -1.358200        0.0000           
   32085 A    8022 TIP4 O1   OW0      0.000000       15.9990           
   32086 A    8022 TIP4 H1   HW0      0.679100        1.0080           
   32087 A    8022 TIP4 H2   HW0      0.679100        1.0080           
   32088 A    8022 TIP4 BD1  LP0     -1.358200        0.0000           
   32089 A    8023 TIP4 O1   OW0      0.000000       15.9990           
   32090 A    8023 TIP4 H1   HW0      0.679100        1.0080           
   32091 A    8023 TIP4 H2   HW0      0.679100        1.0080           
   32092 A    8023 TIP4 BD1  LP0     -1.358200        0.0000           
   32093 A    8024 TIP4 O1   OW0      0.000000       15.9990           
   32094 A    8024 TIP4 H1   HW0      0.679100        1.0080           
   32095 A    8024 TIP4 H2   HW0      0.679100        1.0080           
   32096 A    8024 TIP4 BD1  LP0     -1.358200        0.0000           
   32097 A    8025 TIP4 O1   OW0      0.000000       15.9990           
   32098 A    8025 TIP4 H1   HW0      0.679100        1.0080           
   32099 A    8025 TIP4 H2   HW0      0.679100        1.0080           
   32100 A    8025 TIP4 BD1  LP0     -1.358200        0.0000           
   32101 A    8026 TIP4 O1   OW0      0.000000       15.9990           
   32102 A    8026 TIP4 H1   HW0      0.679100        1.0080           
   32103 A    8026 TIP4 H2   HW0      0.679100        1.0080           
   32104 A    8026 TIP4 BD1  LP0     -1.358200        0.0000           
   32105 A    8027 TIP4 O1   OW0      0.000000       15.9990           
   32106 A    8027 TIP4 H1   HW0      0.679100        1.0080           
   32107 A    8027 TIP4 H2   HW0      0.679100        1.0080           
   32108 A    8027 TIP4 BD1  LP0     -1.358200        0.0000           
   32109 A    8028 TIP4 O1   OW0      0.000000       15.9990           
   32110 A    8028 TIP4 H1   HW0      0.679100        1.0080           
   32111 A    8028 TIP4 H2   HW0      0.679100        1.0080           
   32112 A    8028 TIP4 BD1  LP0     -1.358200        0.0000           
   32113 A    8029 TIP4 O1   OW0      0.000000       15.9990           
   32114 A    8029 TIP4 H1   HW0      0.679100        1.0080           
   32115 A    8029 TIP4 H2   HW0      0.679100        1.0080           
   32116 A    8029 TIP4 BD1  LP0     -1.358200        0.0000           
   32117 A    8030 TIP4 O1   OW0      0.000000       15.9990           
   32118 A    8030 TIP4 H1   HW0      0.679100        1.0080           
   32119 A    8030 TIP4 H2   HW0      0.679100        1.0080           
   32120 A    8030 TIP4 BD1  LP0     -1.358200        0.0000           
   32121 A    8031 TIP4 O1   OW0      0.000000       15.9990           
   32122 A    8031 TIP4 H1   HW0      0.679100        1.0080           
   32123 A    8031 TIP4 H2   HW0      0.679100        1.0080           
   32124 A    8031 TIP4 BD1  LP0     -1.358200        0.0000           
   32125 A    8032 TIP4 O1   OW0      0.000000       15.9990           
   32126 A    8032 TIP4 H1   HW0      0.679100        1.0080           
   32127 A    8032 TIP4 H2   HW0      0.679100        1.0080           
   32128 A    8032 TIP4 BD1  LP0     -1.358200        0.0000           
   32129 A    8033 TIP4 O1   OW0      0.000000       15.9990           
   32130 A    8033 TIP4 H1   HW0      0.679100        1.0080           
   32131 A    8033 TIP4 H2   HW0      0.679100        1.0080           
   32132 A    8033 TIP4 BD1  LP0     -1.358200        0.0000           
   32133 A    8034 TIP4 O1   OW0      0.000000       15.9990           
   32134 A    8034 TIP4 H1   HW0      0.679100        1.0080           
   32135 A    8034 TIP4 H2   HW0      0.679100        1.0080           
   32136 A    8034 TIP4 BD1  LP0     -1.358200        0.0000           
   32137 A    8035 TIP4 O1   OW0      0.000000       15.9990           
   32138 A    8035 TIP4 H1   HW0      0.679100        1.0080           
   32139 A    8035 TIP4 H2   HW0      0.679100        1.0080           
   32140 A    8035 TIP4 BD1  LP0     -1.358200        0.0000           
   32141 A    8036 TIP4 O1   OW0      0.000000       15.9990           
   32142 A    8036 TIP4 H1   HW0      0.679100        1.0080           
   32143 A    8036 TIP4 H2   HW0      0.679100        1.0080           
   32144 A    8036 TIP4 BD1  LP0     -1.358200        0.0000           
   32145 A    8037 TIP4 O1   OW0      0.000000       15.9990           
   32146 A    8037 TIP4 H1   HW0      0.679100        1.0080           
   32147 A    8037 TIP4 H2   HW0      0.679100        1.0080           
   32148 A    8037 TIP4 BD1  LP0     -1.358200        0.0000           
   32149 A    8038 TIP4 O1   OW0      0.000000       15.9990           
   32150 A    8038 TIP4 H1   HW0      0.679100        1.0080           
   32151 A    8038 TIP4 H2   HW0      0.679100        1.0080           
   32152 A    8038 TIP4 BD1  LP0     -1.358200        0.0000           
   32153 A    8039 TIP4 O1   OW0      0.000000       15.9990           
   32154 A    8039 TIP4 H1   HW0      0.679100        1.0080           
   32155 A    8039 TIP4 H2   HW0      0.679100        1.0080           
   32156 A    8039 TIP4 BD1  LP0     -1.358200        0.0000           
   32157 A    8040 TIP4 O1   OW0      0.000000       15.9990           
   32158 A    8040 TIP4 H1   HW0      0.679100        1.0080           
   32159 A    8040 TIP4 H2   HW0      0.679100        1.0080           
   32160 A    8040 TIP4 BD1  LP0     -1.358200        0.0000           
   32161 A    8041 TIP4 O1   OW0      0.000000       15.9990           
   32162 A    8041 TIP4 H1   HW0      0.679100        1.0080           
   32163 A    8041 TIP4 H2   HW0      0.679100        1.0080           
   32164 A    8041 TIP4 BD1  LP0     -1.358200        0.0000           
   32165 A    8042 TIP4 O1   OW0      0.000000       15.9990           
   32166 A    8042 TIP4 H1   HW0      0.679100        1.0080           
   32167 A    8042 TIP4 H2   HW0      0.679100        1.0080           
   32168 A    8042 TIP4 BD1  LP0     -1.358200        0.0000           
   32169 A    8043 TIP4 O1   OW0      0.000000       15.9990           
   32170 A    8043 TIP4 H1   HW0      0.679100        1.0080           
   32171 A    8043 TIP4 H2   HW0      0.679100        1.0080           
   32172 A    8043 TIP4 BD1  LP0     -1.358200        0.0000           
   32173 A    8044 TIP4 O1   OW0      0.000000       15.9990           
   32174 A    8044 TIP4 H1   HW0      0.679100        1.0080           
   32175 A    8044 TIP4 H2   HW0      0.679100        1.0080           
   32176 A    8044 TIP4 BD1  LP0     -1.358200        0.0000           
   32177 A    8045 TIP4 O1   OW0      0.000000       15.9990           
   32178 A    8045 TIP4 H1   HW0      0.679100        1.0080           
   32179 A    8045 TIP4 H2   HW0      0.679100        1.0080           
   32180 A    8045 TIP4 BD1  LP0     -1.358200        0.0000           
   32181 A    8046 TIP4 O1   OW0      0.000000       15.9990           
   32182 A    8046 TIP4 H1   HW0      0.679100        1.0080           
   32183 A    8046 TIP4 H2   HW0      0.679100        1.0080           
   32184 A    8046 TIP4 BD1  LP0     -1.358200        0.0000           
   32185 A    8047 TIP4 O1   OW0      0.000000       15.9990           
   32186 A    8047 TIP4 H1   HW0      0.679100        1.0080           
   32187 A    8047 TIP4 H2   HW0      0.679100        1.0080           
   32188 A    8047 TIP4 BD1  LP0     -1.358200        0.0000           
   32189 A    8048 TIP4 O1   OW0      0.000000       15.9990           
   32190 A    8048 TIP4 H1   HW0      0.679100        1.0080           
   32191 A    8048 TIP4 H2   HW0      0.679100        1.0080           
   32192 A    8048 TIP4 BD1  LP0     -1.358200        0.0000           
   32193 A    8049 TIP4 O1   OW0      0.000000       15.9990           
   32194 A    8049 TIP4 H1   HW0      0.679100        1.0080           
   32195 A    8049 TIP4 H2   HW0      0.679100        1.0080           
   32196 A    8049 TIP4 BD1  LP0     -1.358200        0.0000           
   32197 A    8050 TIP4 O1   OW0      0.000000       15.9990           
   32198 A    8050 TIP4 H1   HW0      0.679100        1.0080           
   32199 A    8050 TIP4 H2   HW0      0.679100        1.0080           
   32200 A    8050 TIP4 BD1  LP0     -1.358200        0.0000           
   32201 A    8051 TIP4 O1   OW0      0.000000       15.9990           
   32202 A    8051 TIP4 H1   HW0      0.679100        1.0080           
   32203 A    8051 TIP4 H2   HW0      0.679100        1.0080           
   32204 A    8051 TIP4 BD1  LP0     -1.358200        0.0000           
   32205 A    8052 TIP4 O1   OW0      0.000000       15.9990           
   32206 A    8052 TIP4 H1   HW0      0.679100        1.0080           
   32207 A    8052 TIP4 H2   HW0      0.679100        1.0080           
   32208 A    8052 TIP4 BD1  LP0     -1.358200        0.0000           
   32209 A    8053 TIP4 O1   OW0      0.000000       15.9990           
   32210 A    8053 TIP4 H1   HW0      0.679100        1.0080           
   32211 A    8053 TIP4 H2   HW0      0.679100        1.0080           
   32212 A    8053 TIP4 BD1  LP0     -1.358200        0.0000           
   32213 A    8054 TIP4 O1   OW0      0.000000       15.9990           
   32214 A    8054 TIP4 H1   HW0      0.679100        1.0080           
   32215 A    8054 TIP4 H2   HW0      0.679100        1.0080           
   32216 A    8054 TIP4 BD1  LP0     -1.358200        0.0000           
   32217 A    8055 TIP4 O1   OW0      0.000000       15.9990           
   32218 A    8055 TIP4 H1   HW0      0.679100        1.0080           
   32219 A    8055 TIP4 H2   HW0      0.679100        1.0080           
   32220 A    8055 TIP4 BD1  LP0     -1.358200        0.0000           
   32221 A    8056 TIP4 O1   OW0      0.000000       15.9990           
   32222 A    8056 TIP4 H1   HW0      0.679100        1.0080           
   32223 A    8056 TIP4 H2   HW0      0.679100        1.0080           
   32224 A    8056 TIP4 BD1  LP0     -1.358200        0.0000           
   32225 A    8057 TIP4 O1   OW0      0.000000       15.9990           
   32226 A    8057 TIP4 H1   HW0      0.679100        1.0080           
   32227 A    8057 TIP4 H2   HW0      0.679100        1.0080           
   32228 A    8057 TIP4 BD1  LP0     -1.358200        0.0000           
   32229 A    8058 TIP4 O1   OW0      0.000000       15.9990           
   32230 A    8058 TIP4 H1   HW0      0.679100        1.0080           
   32231 A    8058 TIP4 H2   HW0      0.679100        1.0080           
   32232 A    8058 TIP4 BD1  LP0     -1.358200        0.0000           
   32233 A    8059 TIP4 O1   OW0      0.000000       15.9990           
   32234 A    8059 TIP4 H1   HW0      0.679100        1.0080           
   32235 A    8059 TIP4 H2   HW0      0.679100        1.0080           
   32236 A    8059 TIP4 BD1  LP0     -1.358200        0.0000           
   32237 A    8060 TIP4 O1   OW0      0.000000       15.9990           
   32238 A    8060 TIP4 H1   HW0      0.679100        1.0080           
   32239 A    8060 TIP4 H2   HW0      0.679100        1.0080           
   32240 A    8060 TIP4 BD1  LP0     -1.358200        0.0000           
   32241 A    8061 TIP4 O1   OW0      0.000000       15.9990           
   32242 A    8061 TIP4 H1   HW0      0.679100        1.0080           
   32243 A    8061 TIP4 H2   HW0      0.679100        1.0080           
   32244 A    8061 TIP4 BD1  LP0     -1.358200        0.0000           
   32245 A    8062 TIP4 O1   OW0      0.000000       15.9990           
   32246 A    8062 TIP4 H1   HW0      0.679100        1.0080           
   32247 A    8062 TIP4 H2   HW0      0.679100        1.0080           
   32248 A    8062 TIP4 BD1  LP0     -1.358200        0.0000           
   32249 A    8063 TIP4 O1   OW0      0.000000       15.9990           
   32250 A    8063 TIP4 H1   HW0      0.679100        1.0080           
   32251 A    8063 TIP4 H2   HW0      0.679100        1.0080           
   32252 A    8063 TIP4 BD1  LP0     -1.358200        0.0000           
   32253 A    8064 TIP4 O1   OW0      0.000000       15.9990           
   32254 A    8064 TIP4 H1   HW0      0.679100        1.0080           
   32255 A    8064 TIP4 H2   HW0      0.679100        1.0080           
   32256 A    8064 TIP4 BD1  LP0     -1.358200        0.0000           
   32257 A    8065 TIP4 O1   OW0      0.000000       15.9990           
   32258 A    8065 TIP4 H1   HW0      0.679100        1.0080           
   32259 A    8065 TIP4 H2   HW0      0.679100        1.0080           
   32260 A    8065 TIP4 BD1  LP0     -1.358200        0.0000           
   32261 A    8066 TIP4 O1   OW0      0.000000       15.9990           
   32262 A    8066 TIP4 H1   HW0      0.679100        1.0080           
   32263 A    8066 TIP4 H2   HW0      0.679100        1.0080           
   32264 A    8066 TIP4 BD1  LP0     -1.358200        0.0000           
   32265 A    8067 TIP4 O1   OW0      0.000000       15.9990           
   32266 A    8067 TIP4 H1   HW0      0.679100        1.0080           
   32267 A    8067 TIP4 H2   HW0      0.679100        1.0080           
   32268 A    8067 TIP4 BD1  LP0     -1.358200        0.0000           
   32269 A    8068 TIP4 O1   OW0      0.000000       15.9990           
   32270 A    8068 TIP4 H1   HW0      0.679100        1.0080           
   32271 A    8068 TIP4 H2   HW0      0.679100        1.0080           
   32272 A    8068 TIP4 BD1  LP0     -1.358200        0.0000           
   32273 A    8069 TIP4 O1   OW0      0.000000       15.9990           
   32274 A    8069 TIP4 H1   HW0      0.679100        1.0080           
   32275 A    8069 TIP4 H2   HW0      0.679100        1.0080           
   32276 A    8069 TIP4 BD1  LP0     -1.358200        0.0000           
   32277 A    8070 TIP4 O1   OW0      0.000000       15.9990           
   32278 A    8070 TIP4 H1   HW0      0.679100        1.0080           
   32279 A    8070 TIP4 H2   HW0      0.679100        1.0080           
   32280 A    8070 TIP4 BD1  LP0     -1.358200        0.0000           
   32281 A    8071 TIP4 O1   OW0      0.000000       15.9990           
   32282 A    8071 TIP4 H1   HW0      0.679100        1.0080           
   32283 A    8071 TIP4 H2   HW0      0.679100        1.0080           
   32284 A    8071 TIP4 BD1  LP0     -1.358200        0.0000           
   32285 A    8072 TIP4 O1   OW0      0.000000       15.9990           
   32286 A    8072 TIP4 H1   HW0      0.679100        1.0080           
   32287 A    8072 TIP4 H2   HW0      0.679100        1.0080           
   32288 A    8072 TIP4 BD1  LP0     -1.358200        0.0000           
   32289 A    8073 TIP4 O1   OW0      0.000000       15.9990           
   32290 A    8073 TIP4 H1   HW0      0.679100        1.0080           
   32291 A    8073 TIP4 H2   HW0      0.679100        1.0080           
   32292 A    8073 TIP4 BD1  LP0     -1.358200        0.0000           
   32293 A    8074 TIP4 O1   OW0      0.000000       15.9990           
   32294 A    8074 TIP4 H1   HW0      0.679100        1.0080           
   32295 A    8074 TIP4 H2   HW0      0.679100        1.0080           
   32296 A    8074 TIP4 BD1  LP0     -1.358200        0.0000           
   32297 A    8075 TIP4 O1   OW0      0.000000       15.9990           
   32298 A    8075 TIP4 H1   HW0      0.679100        1.0080           
   32299 A    8075 TIP4 H2   HW0      0.679100        1.0080           
   32300 A    8075 TIP4 BD1  LP0     -1.358200        0.0000           
   32301 A    8076 TIP4 O1   OW0      0.000000       15.9990           
   32302 A    8076 TIP4 H1   HW0      0.679100        1.0080           
   32303 A    8076 TIP4 H2   HW0      0.679100        1.0080           
   32304 A    8076 TIP4 BD1  LP0     -1.358200        0.0000           
   32305 A    8077 TIP4 O1   OW0      0.000000       15.9990           
   32306 A    8077 TIP4 H1   HW0      0.679100        1.0080           
   32307 A    8077 TIP4 H2   HW0      0.679100        1.0080           
   32308 A    8077 TIP4 BD1  LP0     -1.358200        0.0000           
   32309 A    8078 TIP4 O1   OW0      0.000000       15.9990           
   32310 A    8078 TIP4 H1   HW0      0.679100        1.0080           
   32311 A    8078 TIP4 H2   HW0      0.679100        1.0080           
   32312 A    8078 TIP4 BD1  LP0     -1.358200        0.0000           
   32313 A    8079 TIP4 O1   OW0      0.000000       15.9990           
   32314 A    8079 TIP4 H1   HW0      0.679100        1.0080           
   32315 A    8079 TIP4 H2   HW0      0.679100        1.0080           
   32316 A    8079 TIP4 BD1  LP0     -1.358200        0.0000           
   32317 A    8080 TIP4 O1   OW0      0.000000       15.9990           
   32318 A    8080 TIP4 H1   HW0      0.679100        1.0080           
   32319 A    8080 TIP4 H2   HW0      0.679100        1.0080           
   32320 A    8080 TIP4 BD1  LP0     -1.358200        0.0000           
   32321 A    8081 TIP4 O1   OW0      0.000000       15.9990           
   32322 A    8081 TIP4 H1   HW0      0.679100        1.0080           
   32323 A    8081 TIP4 H2   HW0      0.679100        1.0080           
   32324 A    8081 TIP4 BD1  LP0     -1.358200        0.0000           
   32325 A    8082 TIP4 O1   OW0      0.000000       15.9990           
   32326 A    8082 TIP4 H1   HW0      0.679100        1.0080           
   32327 A    8082 TIP4 H2   HW0      0.679100        1.0080           
   32328 A    8082 TIP4 BD1  LP0     -1.358200        0.0000           
   32329 A    8083 TIP4 O1   OW0      0.000000       15.9990           
   32330 A    8083 TIP4 H1   HW0      0.679100        1.0080           
   32331 A    8083 TIP4 H2   HW0      0.679100        1.0080           
   32332 A    8083 TIP4 BD1  LP0     -1.358200        0.0000           
   32333 A    8084 TIP4 O1   OW0      0.000000       15.9990           
   32334 A    8084 TIP4 H1   HW0      0.679100        1.0080           
   32335 A    8084 TIP4 H2   HW0      0.679100        1.0080           
   32336 A    8084 TIP4 BD1  LP0     -1.358200        0.0000           
   32337 A    8085 TIP4 O1   OW0      0.000000       15.9990           
   32338 A    8085 TIP4 H1   HW0      0.679100        1.0080           
   32339 A    8085 TIP4 H2   HW0      0.679100        1.0080           
   32340 A    8085 TIP4 BD1  LP0     -1.358200        0.0000           
   32341 A    8086 TIP4 O1   OW0      0.000000       15.9990           
   32342 A    8086 TIP4 H1   HW0      0.679100        1.0080           
   32343 A    8086 TIP4 H2   HW0      0.679100        1.0080           
   32344 A    8086 TIP4 BD1  LP0     -1.358200        0.0000           
   32345 A    8087 TIP4 O1   OW0      0.000000       15.9990           
   32346 A    8087 TIP4 H1   HW0      0.679100        1.0080           
   32347 A    8087 TIP4 H2   HW0      0.679100        1.0080           
   32348 A    8087 TIP4 BD1  LP0     -1.358200        0.0000           
   32349 A    8088 TIP4 O1   OW0      0.000000       15.9990           
   32350 A    8088 TIP4 H1   HW0      0.679100        1.0080           
   32351 A    8088 TIP4 H2   HW0      0.679100        1.0080           
   32352 A    8088 TIP4 BD1  LP0     -1.358200        0.0000           
   32353 A    8089 TIP4 O1   OW0      0.000000       15.9990           
   32354 A    8089 TIP4 H1   HW0      0.679100        1.0080           
   32355 A    8089 TIP4 H2   HW0      0.679100        1.0080           
   32356 A    8089 TIP4 BD1  LP0     -1.358200        0.0000           
   32357 A    8090 TIP4 O1   OW0      0.000000       15.9990           
   32358 A    8090 TIP4 H1   HW0      0.679100        1.0080           
   32359 A    8090 TIP4 H2   HW0      0.679100        1.0080           
   32360 A    8090 TIP4 BD1  LP0     -1.358200        0.0000           
   32361 A    8091 TIP4 O1   OW0      0.000000       15.9990           
   32362 A    8091 TIP4 H1   HW0      0.679100        1.0080           
   32363 A    8091 TIP4 H2   HW0      0.679100        1.0080           
   32364 A    8091 TIP4 BD1  LP0     -1.358200        0.0000           
   32365 A    8092 TIP4 O1   OW0      0.000000       15.9990           
   32366 A    8092 TIP4 H1   HW0      0.679100        1.0080           
   32367 A    8092 TIP4 H2   HW0      0.679100        1.0080           
   32368 A    8092 TIP4 BD1  LP0     -1.358200        0.0000           
   32369 A    8093 TIP4 O1   OW0      0.000000       15.9990           
   32370 A    8093 TIP4 H1   HW0      0.679100        1.0080           
   32371 A    8093 TIP4 H2   HW0      0.679100        1.0080           
   32372 A    8093 TIP4 BD1  LP0     -1.358200        0.0000           
   32373 A    8094 TIP4 O1   OW0      0.000000       15.9990           
   32374 A    8094 TIP4 H1   HW0      0.679100        1.0080           
   32375 A    8094 TIP4 H2   HW0      0.679100        1.0080           
   32376 A    8094 TIP4 BD1  LP0     -1.358200        0.0000           
   32377 A    8095 TIP4 O1   OW0      0.000000       15.9990           
   32378 A    8095 TIP4 H1   HW0      0.679100        1.0080           
   32379 A    8095 TIP4 H2   HW0      0.679100        1.0080           
   32380 A    8095 TIP4 BD1  LP0     -1.358200        0.0000           
   32381 A    8096 TIP4 O1   OW0      0.000000       15.9990           
   32382 A    8096 TIP4 H1   HW0      0.679100        1.0080           
   32383 A    8096 TIP4 H2   HW0      0.679100        1.0080           
   32384 A    8096 TIP4 BD1  LP0     -1.358200        0.0000           
   32385 A    8097 TIP4 O1   OW0      0.000000       15.9990           
   32386 A    8097 TIP4 H1   HW0      0.679100        1.0080           
   32387 A    8097 TIP4 H2   HW0      0.679100        1.0080           
   32388 A    8097 TIP4 BD1  LP0     -1.358200        0.0000           
   32389 A    8098 TIP4 O1   OW0      0.000000       15.9990           
   32390 A    8098 TIP4 H1   HW0      0.679100        1.0080           
   32391 A    8098 TIP4 H2   HW0      0.679100        1.0080           
   32392 A    8098 TIP4 BD1  LP0     -1.358200        0.0000           
   32393 A    8099 TIP4 O1   OW0      0.000000       15.9990           
   32394 A    8099 TIP4 H1   HW0      0.679100        1.0080           
   32395 A    8099 TIP4 H2   HW0      0.679100        1.0080           
   32396 A    8099 TIP4 BD1  LP0     -1.358200        0.0000           
   32397 A    8100 TIP4 O1   OW0      0.000000       15.9990           
   32398 A    8100 TIP4 H1   HW0      0.679100        1.0080           
   32399 A    8100 TIP4 H2   HW0      0.679100        1.0080           
   32400 A    8100 TIP4 BD1  LP0     -1.358200        0.0000           
   32401 A    8101 TIP4 O1   OW0      0.000000       15.9990           
   32402 A    8101 TIP4 H1   HW0      0.679100        1.0080           
   32403 A    8101 TIP4 H2   HW0      0.679100        1.0080           
   32404 A    8101 TIP4 BD1  LP0     -1.358200        0.0000           
   32405 A    8102 TIP4 O1   OW0      0.000000       15.9990           
   32406 A    8102 TIP4 H1   HW0      0.679100        1.0080           
   32407 A    8102 TIP4 H2   HW0      0.679100        1.0080           
   32408 A    8102 TIP4 BD1  LP0     -1.358200        0.0000           
   32409 A    8103 TIP4 O1   OW0      0.000000       15.9990           
   32410 A    8103 TIP4 H1   HW0      0.679100        1.0080           
   32411 A    8103 TIP4 H2   HW0      0.679100        1.0080           
   32412 A    8103 TIP4 BD1  LP0     -1.358200        0.0000           
   32413 A    8104 TIP4 O1   OW0      0.000000       15.9990           
   32414 A    8104 TIP4 H1   HW0      0.679100        1.0080           
   32415 A    8104 TIP4 H2   HW0      0.679100        1.0080           
   32416 A    8104 TIP4 BD1  LP0     -1.358200        0.0000           
   32417 A    8105 TIP4 O1   OW0      0.000000       15.9990           
   32418 A    8105 TIP4 H1   HW0      0.679100        1.0080           
   32419 A    8105 TIP4 H2   HW0      0.679100        1.0080           
   32420 A    8105 TIP4 BD1  LP0     -1.358200        0.0000           
   32421 A    8106 TIP4 O1   OW0      0.000000       15.9990           
   32422 A    8106 TIP4 H1   HW0      0.679100        1.0080           
   32423 A    8106 TIP4 H2   HW0      0.679100        1.0080           
   32424 A    8106 TIP4 BD1  LP0     -1.358200        0.0000           
   32425 A    8107 TIP4 O1   OW0      0.000000       15.9990           
   32426 A    8107 TIP4 H1   HW0      0.679100        1.0080           
   32427 A    8107 TIP4 H2   HW0      0.679100        1.0080           
   32428 A    8107 TIP4 BD1  LP0     -1.358200        0.0000           
   32429 A    8108 TIP4 O1   OW0      0.000000       15.9990           
   32430 A    8108 TIP4 H1   HW0      0.679100        1.0080           
   32431 A    8108 TIP4 H2   HW0      0.679100        1.0080           
   32432 A    8108 TIP4 BD1  LP0     -1.358200        0.0000           
   32433 A    8109 TIP4 O1   OW0      0.000000       15.9990           
   32434 A    8109 TIP4 H1   HW0      0.679100        1.0080           
   32435 A    8109 TIP4 H2   HW0      0.679100        1.0080           
   32436 A    8109 TIP4 BD1  LP0     -1.358200        0.0000           
   32437 A    8110 TIP4 O1   OW0      0.000000       15.9990           
   32438 A    8110 TIP4 H1   HW0      0.679100        1.0080           
   32439 A    8110 TIP4 H2   HW0      0.679100        1.0080           
   32440 A    8110 TIP4 BD1  LP0     -1.358200        0.0000           
   32441 A    8111 TIP4 O1   OW0      0.000000       15.9990           
   32442 A    8111 TIP4 H1   HW0      0.679100        1.0080           
   32443 A    8111 TIP4 H2   HW0      0.679100        1.0080           
   32444 A    8111 TIP4 BD1  LP0     -1.358200        0.0000           
   32445 A    8112 TIP4 O1   OW0      0.000000       15.9990           
   32446 A    8112 TIP4 H1   HW0      0.679100        1.0080           
   32447 A    8112 TIP4 H2   HW0      0.679100        1.0080           
   32448 A    8112 TIP4 BD1  LP0     -1.358200        0.0000           
   32449 A    8113 TIP4 O1   OW0      0.000000       15.9990           
   32450 A    8113 TIP4 H1   HW0      0.679100        1.0080           
   32451 A    8113 TIP4 H2   HW0      0.679100        1.0080           
   32452 A    8113 TIP4 BD1  LP0     -1.358200        0.0000           
   32453 A    8114 TIP4 O1   OW0      0.000000       15.9990           
   32454 A    8114 TIP4 H1   HW0      0.679100        1.0080           
   32455 A    8114 TIP4 H2   HW0      0.679100        1.0080           
   32456 A    8114 TIP4 BD1  LP0     -1.358200        0.0000           
   32457 A    8115 TIP4 O1   OW0      0.000000       15.9990           
   32458 A    8115 TIP4 H1   HW0      0.679100        1.0080           
   32459 A    8115 TIP4 H2   HW0      0.679100        1.0080           
   32460 A    8115 TIP4 BD1  LP0     -1.358200        0.0000           
   32461 A    8116 TIP4 O1   OW0      0.000000       15.9990           
   32462 A    8116 TIP4 H1   HW0      0.679100        1.0080           
   32463 A    8116 TIP4 H2   HW0      0.679100        1.0080           
   32464 A    8116 TIP4 BD1  LP0     -1.358200        0.0000           
   32465 A    8117 TIP4 O1   OW0      0.000000       15.9990           
   32466 A    8117 TIP4 H1   HW0      0.679100        1.0080           
   32467 A    8117 TIP4 H2   HW0      0.679100        1.0080           
   32468 A    8117 TIP4 BD1  LP0     -1.358200        0.0000           
   32469 A    8118 TIP4 O1   OW0      0.000000       15.9990           
   32470 A    8118 TIP4 H1   HW0      0.679100        1.0080           
   32471 A    8118 TIP4 H2   HW0      0.679100        1.0080           
   32472 A    8118 TIP4 BD1  LP0     -1.358200        0.0000           
   32473 A    8119 TIP4 O1   OW0      0.000000       15.9990           
   32474 A    8119 TIP4 H1   HW0      0.679100        1.0080           
   32475 A    8119 TIP4 H2   HW0      0.679100        1.0080           
   32476 A    8119 TIP4 BD1  LP0     -1.358200        0.0000           
   32477 A    8120 TIP4 O1   OW0      0.000000       15.9990           
   32478 A    8120 TIP4 H1   HW0      0.679100        1.0080           
   32479 A    8120 TIP4 H2   HW0      0.679100        1.0080           
   32480 A    8120 TIP4 BD1  LP0     -1.358200        0.0000           
   32481 A    8121 TIP4 O1   OW0      0.000000       15.9990           
   32482 A    8121 TIP4 H1   HW0      0.679100        1.0080           
   32483 A    8121 TIP4 H2   HW0      0.679100        1.0080           
   32484 A    8121 TIP4 BD1  LP0     -1.358200        0.0000           
   32485 A    8122 TIP4 O1   OW0      0.000000       15.9990           
   32486 A    8122 TIP4 H1   HW0      0.679100        1.0080           
   32487 A    8122 TIP4 H2   HW0      0.679100        1.0080           
   32488 A    8122 TIP4 BD1  LP0     -1.358200        0.0000           
   32489 A    8123 TIP4 O1   OW0      0.000000       15.9990           
   32490 A    8123 TIP4 H1   HW0      0.679100        1.0080           
   32491 A    8123 TIP4 H2   HW0      0.679100        1.0080           
   32492 A    8123 TIP4 BD1  LP0     -1.358200        0.0000           
   32493 A    8124 TIP4 O1   OW0      0.000000       15.9990           
   32494 A    8124 TIP4 H1   HW0      0.679100        1.0080           
   32495 A    8124 TIP4 H2   HW0      0.679100        1.0080           
   32496 A    8124 TIP4 BD1  LP0     -1.358200        0.0000           
   32497 A    8125 TIP4 O1   OW0      0.000000       15.9990           
   32498 A    8125 TIP4 H1   HW0      0.679100        1.0080           
   32499 A    8125 TIP4 H2   HW0      0.679100        1.0080           
   32500 A    8125 TIP4 BD1  LP0     -1.358200        0.0000           
   32501 A    8126 TIP4 O1   OW0      0.000000       15.9990           
   32502 A    8126 TIP4 H1   HW0      0.679100        1.0080           
   32503 A    8126 TIP4 H2   HW0      0.679100        1.0080           
   32504 A    8126 TIP4 BD1  LP0     -1.358200        0.0000           
   32505 A    8127 TIP4 O1   OW0      0.000000       15.9990           
   32506 A    8127 TIP4 H1   HW0      0.679100        1.0080           
   32507 A    8127 TIP4 H2   HW0      0.679100        1.0080           
   32508 A    8127 TIP4 BD1  LP0     -1.358200        0.0000           
   32509 A    8128 TIP4 O1   OW0      0.000000       15.9990           
   32510 A    8128 TIP4 H1   HW0      0.679100        1.0080           
   32511 A    8128 TIP4 H2   HW0      0.679100        1.0080           
   32512 A    8128 TIP4 BD1  LP0     -1.358200        0.0000           
   32513 A    8129 TIP4 O1   OW0      0.000000       15.9990           
   32514 A    8129 TIP4 H1   HW0      0.679100        1.0080           
   32515 A    8129 TIP4 H2   HW0      0.679100        1.0080           
   32516 A    8129 TIP4 BD1  LP0     -1.358200        0.0000           
   32517 A    8130 TIP4 O1   OW0      0.000000       15.9990           
   32518 A    8130 TIP4 H1   HW0      0.679100        1.0080           
   32519 A    8130 TIP4 H2   HW0      0.679100        1.0080           
   32520 A    8130 TIP4 BD1  LP0     -1.358200        0.0000           
   32521 A    8131 TIP4 O1   OW0      0.000000       15.9990           
   32522 A    8131 TIP4 H1   HW0      0.679100        1.0080           
   32523 A    8131 TIP4 H2   HW0      0.679100        1.0080           
   32524 A    8131 TIP4 BD1  LP0     -1.358200        0.0000           
   32525 A    8132 TIP4 O1   OW0      0.000000       15.9990           
   32526 A    8132 TIP4 H1   HW0      0.679100        1.0080           
   32527 A    8132 TIP4 H2   HW0      0.679100        1.0080           
   32528 A    8132 TIP4 BD1  LP0     -1.358200        0.0000           
   32529 A    8133 TIP4 O1   OW0      0.000000       15.9990           
   32530 A    8133 TIP4 H1   HW0      0.679100        1.0080           
   32531 A    8133 TIP4 H2   HW0      0.679100        1.0080           
   32532 A    8133 TIP4 BD1  LP0     -1.358200        0.0000           
   32533 A    8134 TIP4 O1   OW0      0.000000       15.9990           
   32534 A    8134 TIP4 H1   HW0      0.679100        1.0080           
   32535 A    8134 TIP4 H2   HW0      0.679100        1.0080           
   32536 A    8134 TIP4 BD1  LP0     -1.358200        0.0000           
   32537 A    8135 TIP4 O1   OW0      0.000000       15.9990           
   32538 A    8135 TIP4 H1   HW0      0.679100        1.0080           
   32539 A    8135 TIP4 H2   HW0      0.679100        1.0080           
   32540 A    8135 TIP4 BD1  LP0     -1.358200        0.0000           
   32541 A    8136 TIP4 O1   OW0      0.000000       15.9990           
   32542 A    8136 TIP4 H1   HW0      0.679100        1.0080           
   32543 A    8136 TIP4 H2   HW0      0.679100        1.0080           
   32544 A    8136 TIP4 BD1  LP0     -1.358200        0.0000           
   32545 A    8137 TIP4 O1   OW0      0.000000       15.9990           
   32546 A    8137 TIP4 H1   HW0      0.679100        1.0080           
   32547 A    8137 TIP4 H2   HW0      0.679100        1.0080           
   32548 A    8137 TIP4 BD1  LP0     -1.358200        0.0000           
   32549 A    8138 TIP4 O1   OW0      0.000000       15.9990           
   32550 A    8138 TIP4 H1   HW0      0.679100        1.0080           
   32551 A    8138 TIP4 H2   HW0      0.679100        1.0080           
   32552 A    8138 TIP4 BD1  LP0     -1.358200        0.0000           
   32553 A    8139 TIP4 O1   OW0      0.000000       15.9990           
   32554 A    8139 TIP4 H1   HW0      0.679100        1.0080           
   32555 A    8139 TIP4 H2   HW0      0.679100        1.0080           
   32556 A    8139 TIP4 BD1  LP0     -1.358200        0.0000           
   32557 A    8140 TIP4 O1   OW0      0.000000       15.9990           
   32558 A    8140 TIP4 H1   HW0      0.679100        1.0080           
   32559 A    8140 TIP4 H2   HW0      0.679100        1.0080           
   32560 A    8140 TIP4 BD1  LP0     -1.358200        0.0000           
   32561 A    8141 TIP4 O1   OW0      0.000000       15.9990           
   32562 A    8141 TIP4 H1   HW0      0.679100        1.0080           
   32563 A    8141 TIP4 H2   HW0      0.679100        1.0080           
   32564 A    8141 TIP4 BD1  LP0     -1.358200        0.0000           
   32565 A    8142 TIP4 O1   OW0      0.000000       15.9990           
   32566 A    8142 TIP4 H1   HW0      0.679100        1.0080           
   32567 A    8142 TIP4 H2   HW0      0.679100        1.0080           
   32568 A    8142 TIP4 BD1  LP0     -1.358200        0.0000           
   32569 A    8143 TIP4 O1   OW0      0.000000       15.9990           
   32570 A    8143 TIP4 H1   HW0      0.679100        1.0080           
   32571 A    8143 TIP4 H2   HW0      0.679100        1.0080           
   32572 A    8143 TIP4 BD1  LP0     -1.358200        0.0000           
   32573 A    8144 TIP4 O1   OW0      0.000000       15.9990           
   32574 A    8144 TIP4 H1   HW0      0.679100        1.0080           
   32575 A    8144 TIP4 H2   HW0      0.679100        1.0080           
   32576 A    8144 TIP4 BD1  LP0     -1.358200        0.0000           
   32577 A    8145 TIP4 O1   OW0      0.000000       15.9990           
   32578 A    8145 TIP4 H1   HW0      0.679100        1.0080           
   32579 A    8145 TIP4 H2   HW0      0.679100        1.0080           
   32580 A    8145 TIP4 BD1  LP0     -1.358200        0.0000           
   32581 A    8146 TIP4 O1   OW0      0.000000       15.9990           
   32582 A    8146 TIP4 H1   HW0      0.679100        1.0080           
   32583 A    8146 TIP4 H2   HW0      0.679100        1.0080           
   32584 A    8146 TIP4 BD1  LP0     -1.358200        0.0000           
   32585 A    8147 TIP4 O1   OW0      0.000000       15.9990           
   32586 A    8147 TIP4 H1   HW0      0.679100        1.0080           
   32587 A    8147 TIP4 H2   HW0      0.679100        1.0080           
   32588 A    8147 TIP4 BD1  LP0     -1.358200        0.0000           
   32589 A    8148 TIP4 O1   OW0      0.000000       15.9990           
   32590 A    8148 TIP4 H1   HW0      0.679100        1.0080           
   32591 A    8148 TIP4 H2   HW0      0.679100        1.0080           
   32592 A    8148 TIP4 BD1  LP0     -1.358200        0.0000           
   32593 A    8149 TIP4 O1   OW0      0.000000       15.9990           
   32594 A    8149 TIP4 H1   HW0      0.679100        1.0080           
   32595 A    8149 TIP4 H2   HW0      0.679100        1.0080           
   32596 A    8149 TIP4 BD1  LP0     -1.358200        0.0000           
   32597 A    8150 TIP4 O1   OW0      0.000000       15.9990           
   32598 A    8150 TIP4 H1   HW0      0.679100        1.0080           
   32599 A    8150 TIP4 H2   HW0      0.679100        1.0080           
   32600 A    8150 TIP4 BD1  LP0     -1.358200        0.0000           
   32601 A    8151 TIP4 O1   OW0      0.000000       15.9990           
   32602 A    8151 TIP4 H1   HW0      0.679100        1.0080           
   32603 A    8151 TIP4 H2   HW0      0.679100        1.0080           
   32604 A    8151 TIP4 BD1  LP0     -1.358200        0.0000           
   32605 A    8152 TIP4 O1   OW0      0.000000       15.9990           
   32606 A    8152 TIP4 H1   HW0      0.679100        1.0080           
   32607 A    8152 TIP4 H2   HW0      0.679100        1.0080           
   32608 A    8152 TIP4 BD1  LP0     -1.358200        0.0000           
   32609 A    8153 TIP4 O1   OW0      0.000000       15.9990           
   32610 A    8153 TIP4 H1   HW0      0.679100        1.0080           
   32611 A    8153 TIP4 H2   HW0      0.679100        1.0080           
   32612 A    8153 TIP4 BD1  LP0     -1.358200        0.0000           
   32613 A    8154 TIP4 O1   OW0      0.000000       15.9990           
   32614 A    8154 TIP4 H1   HW0      0.679100        1.0080           
   32615 A    8154 TIP4 H2   HW0      0.679100        1.0080           
   32616 A    8154 TIP4 BD1  LP0     -1.358200        0.0000           
   32617 A    8155 TIP4 O1   OW0      0.000000       15.9990           
   32618 A    8155 TIP4 H1   HW0      0.679100        1.0080           
   32619 A    8155 TIP4 H2   HW0      0.679100        1.0080           
   32620 A    8155 TIP4 BD1  LP0     -1.358200        0.0000           
   32621 A    8156 TIP4 O1   OW0      0.000000       15.9990           
   32622 A    8156 TIP4 H1   HW0      0.679100        1.0080           
   32623 A    8156 TIP4 H2   HW0      0.679100        1.0080           
   32624 A    8156 TIP4 BD1  LP0     -1.358200        0.0000           
   32625 A    8157 TIP4 O1   OW0      0.000000       15.9990           
   32626 A    8157 TIP4 H1   HW0      0.679100        1.0080           
   32627 A    8157 TIP4 H2   HW0      0.679100        1.0080           
   32628 A    8157 TIP4 BD1  LP0     -1.358200        0.0000           
   32629 A    8158 TIP4 O1   OW0      0.000000       15.9990           
   32630 A    8158 TIP4 H1   HW0      0.679100        1.0080           
   32631 A    8158 TIP4 H2   HW0      0.679100        1.0080           
   32632 A    8158 TIP4 BD1  LP0     -1.358200        0.0000           
   32633 A    8159 TIP4 O1   OW0      0.000000       15.9990           
   32634 A    8159 TIP4 H1   HW0      0.679100        1.0080           
   32635 A    8159 TIP4 H2   HW0      0.679100        1.0080           
   32636 A    8159 TIP4 BD1  LP0     -1.358200        0.0000           
   32637 A    8160 TIP4 O1   OW0      0.000000       15.9990           
   32638 A    8160 TIP4 H1   HW0      0.679100        1.0080           
   32639 A    8160 TIP4 H2   HW0      0.679100        1.0080           
   32640 A    8160 TIP4 BD1  LP0     -1.358200        0.0000           
   32641 A    8161 TIP4 O1   OW0      0.000000       15.9990           
   32642 A    8161 TIP4 H1   HW0      0.679100        1.0080           
   32643 A    8161 TIP4 H2   HW0      0.679100        1.0080           
   32644 A    8161 TIP4 BD1  LP0     -1.358200        0.0000           
   32645 A    8162 TIP4 O1   OW0      0.000000       15.9990           
   32646 A    8162 TIP4 H1   HW0      0.679100        1.0080           
   32647 A    8162 TIP4 H2   HW0      0.679100        1.0080           
   32648 A    8162 TIP4 BD1  LP0     -1.358200        0.0000           
   32649 A    8163 TIP4 O1   OW0      0.000000       15.9990           
   32650 A    8163 TIP4 H1   HW0      0.679100        1.0080           
   32651 A    8163 TIP4 H2   HW0      0.679100        1.0080           
   32652 A    8163 TIP4 BD1  LP0     -1.358200        0.0000           
   32653 A    8164 TIP4 O1   OW0      0.000000       15.9990           
   32654 A    8164 TIP4 H1   HW0      0.679100        1.0080           
   32655 A    8164 TIP4 H2   HW0      0.679100        1.0080           
   32656 A    8164 TIP4 BD1  LP0     -1.358200        0.0000           
   32657 A    8165 TIP4 O1   OW0      0.000000       15.9990           
   32658 A    8165 TIP4 H1   HW0      0.679100        1.0080           
   32659 A    8165 TIP4 H2   HW0      0.679100        1.0080           
   32660 A    8165 TIP4 BD1  LP0     -1.358200        0.0000           
   32661 A    8166 TIP4 O1   OW0      0.000000       15.9990           
   32662 A    8166 TIP4 H1   HW0      0.679100        1.0080           
   32663 A    8166 TIP4 H2   HW0      0.679100        1.0080           
   32664 A    8166 TIP4 BD1  LP0     -1.358200        0.0000           
   32665 A    8167 TIP4 O1   OW0      0.000000       15.9990           
   32666 A    8167 TIP4 H1   HW0      0.679100        1.0080           
   32667 A    8167 TIP4 H2   HW0      0.679100        1.0080           
   32668 A    8167 TIP4 BD1  LP0     -1.358200        0.0000           
   32669 A    8168 TIP4 O1   OW0      0.000000       15.9990           
   32670 A    8168 TIP4 H1   HW0      0.679100        1.0080           
   32671 A    8168 TIP4 H2   HW0      0.679100        1.0080           
   32672 A    8168 TIP4 BD1  LP0     -1.358200        0.0000           
   32673 A    8169 TIP4 O1   OW0      0.000000       15.9990           
   32674 A    8169 TIP4 H1   HW0      0.679100        1.0080           
   32675 A    8169 TIP4 H2   HW0      0.679100        1.0080           
   32676 A    8169 TIP4 BD1  LP0     -1.358200        0.0000           
   32677 A    8170 TIP4 O1   OW0      0.000000       15.9990           
   32678 A    8170 TIP4 H1   HW0      0.679100        1.0080           
   32679 A    8170 TIP4 H2   HW0      0.679100        1.0080           
   32680 A    8170 TIP4 BD1  LP0     -1.358200        0.0000           
   32681 A    8171 TIP4 O1   OW0      0.000000       15.9990           
   32682 A    8171 TIP4 H1   HW0      0.679100        1.0080           
   32683 A    8171 TIP4 H2   HW0      0.679100        1.0080           
   32684 A    8171 TIP4 BD1  LP0     -1.358200        0.0000           
   32685 A    8172 TIP4 O1   OW0      0.000000       15.9990           
   32686 A    8172 TIP4 H1   HW0      0.679100        1.0080           
   32687 A    8172 TIP4 H2   HW0      0.679100        1.0080           
   32688 A    8172 TIP4 BD1  LP0     -1.358200        0.0000           
   32689 A    8173 TIP4 O1   OW0      0.000000       15.9990           
   32690 A    8173 TIP4 H1   HW0      0.679100        1.0080           
   32691 A    8173 TIP4 H2   HW0      0.679100        1.0080           
   32692 A    8173 TIP4 BD1  LP0     -1.358200        0.0000           
   32693 A    8174 TIP4 O1   OW0      0.000000       15.9990           
   32694 A    8174 TIP4 H1   HW0      0.679100        1.0080           
   32695 A    8174 TIP4 H2   HW0      0.679100        1.0080           
   32696 A    8174 TIP4 BD1  LP0     -1.358200        0.0000           
   32697 A    8175 TIP4 O1   OW0      0.000000       15.9990           
   32698 A    8175 TIP4 H1   HW0      0.679100        1.0080           
   32699 A    8175 TIP4 H2   HW0      0.679100        1.0080           
   32700 A    8175 TIP4 BD1  LP0     -1.358200        0.0000           
   32701 A    8176 TIP4 O1   OW0      0.000000       15.9990           
   32702 A    8176 TIP4 H1   HW0      0.679100        1.0080           
   32703 A    8176 TIP4 H2   HW0      0.679100        1.0080           
   32704 A    8176 TIP4 BD1  LP0     -1.358200        0.0000           
   32705 A    8177 TIP4 O1   OW0      0.000000       15.9990           
   32706 A    8177 TIP4 H1   HW0      0.679100        1.0080           
   32707 A    8177 TIP4 H2   HW0      0.679100        1.0080           
   32708 A    8177 TIP4 BD1  LP0     -1.358200        0.0000           
   32709 A    8178 TIP4 O1   OW0      0.000000       15.9990           
   32710 A    8178 TIP4 H1   HW0      0.679100        1.0080           
   32711 A    8178 TIP4 H2   HW0      0.679100        1.0080           
   32712 A    8178 TIP4 BD1  LP0     -1.358200        0.0000           
   32713 A    8179 TIP4 O1   OW0      0.000000       15.9990           
   32714 A    8179 TIP4 H1   HW0      0.679100        1.0080           
   32715 A    8179 TIP4 H2   HW0      0.679100        1.0080           
   32716 A    8179 TIP4 BD1  LP0     -1.358200        0.0000           
   32717 A    8180 TIP4 O1   OW0      0.000000       15.9990           
   32718 A    8180 TIP4 H1   HW0      0.679100        1.0080           
   32719 A    8180 TIP4 H2   HW0      0.679100        1.0080           
   32720 A    8180 TIP4 BD1  LP0     -1.358200        0.0000           
   32721 A    8181 TIP4 O1   OW0      0.000000       15.9990           
   32722 A    8181 TIP4 H1   HW0      0.679100        1.0080           
   32723 A    8181 TIP4 H2   HW0      0.679100        1.0080           
   32724 A    8181 TIP4 BD1  LP0     -1.358200        0.0000           
   32725 A    8182 TIP4 O1   OW0      0.000000       15.9990           
   32726 A    8182 TIP4 H1   HW0      0.679100        1.0080           
   32727 A    8182 TIP4 H2   HW0      0.679100        1.0080           
   32728 A    8182 TIP4 BD1  LP0     -1.358200        0.0000           
   32729 A    8183 TIP4 O1   OW0      0.000000       15.9990           
   32730 A    8183 TIP4 H1   HW0      0.679100        1.0080           
   32731 A    8183 TIP4 H2   HW0      0.679100        1.0080           
   32732 A    8183 TIP4 BD1  LP0     -1.358200        0.0000           
   32733 A    8184 TIP4 O1   OW0      0.000000       15.9990           
   32734 A    8184 TIP4 H1   HW0      0.679100        1.0080           
   32735 A    8184 TIP4 H2   HW0      0.679100        1.0080           
   32736 A    8184 TIP4 BD1  LP0     -1.358200        0.0000           
   32737 A    8185 TIP4 O1   OW0      0.000000       15.9990           
   32738 A    8185 TIP4 H1   HW0      0.679100        1.0080           
   32739 A    8185 TIP4 H2   HW0      0.679100        1.0080           
   32740 A    8185 TIP4 BD1  LP0     -1.358200        0.0000           
   32741 A    8186 TIP4 O1   OW0      0.000000       15.9990           
   32742 A    8186 TIP4 H1   HW0      0.679100        1.0080           
   32743 A    8186 TIP4 H2   HW0      0.679100        1.0080           
   32744 A    8186 TIP4 BD1  LP0     -1.358200        0.0000           
   32745 A    8187 TIP4 O1   OW0      0.000000       15.9990           
   32746 A    8187 TIP4 H1   HW0      0.679100        1.0080           
   32747 A    8187 TIP4 H2   HW0      0.679100        1.0080           
   32748 A    8187 TIP4 BD1  LP0     -1.358200        0.0000           
   32749 A    8188 TIP4 O1   OW0      0.000000       15.9990           
   32750 A    8188 TIP4 H1   HW0      0.679100        1.0080           
   32751 A    8188 TIP4 H2   HW0      0.679100        1.0080           
   32752 A    8188 TIP4 BD1  LP0     -1.358200        0.0000           
   32753 A    8189 TIP4 O1   OW0      0.000000       15.9990           
   32754 A    8189 TIP4 H1   HW0      0.679100        1.0080           
   32755 A    8189 TIP4 H2   HW0      0.679100        1.0080           
   32756 A    8189 TIP4 BD1  LP0     -1.358200        0.0000           
   32757 A    8190 TIP4 O1   OW0      0.000000       15.9990           
   32758 A    8190 TIP4 H1   HW0      0.679100        1.0080           
   32759 A    8190 TIP4 H2   HW0      0.679100        1.0080           
   32760 A    8190 TIP4 BD1  LP0     -1.358200        0.0000           
   32761 A    8191 TIP4 O1   OW0      0.000000       15.9990           
   32762 A    8191 TIP4 H1   HW0      0.679100        1.0080           
   32763 A    8191 TIP4 H2   HW0      0.679100        1.0080           
   32764 A    8191 TIP4 BD1  LP0     -1.358200        0.0000           
   32765 A    8192 TIP4 O1   OW0      0.000000       15.9990           
   32766 A    8192 TIP4 H1   HW0      0.679100        1.0080           
   32767 A    8192 TIP4 H2   HW0      0.679100        1.0080           
   32768 A    8192 TIP4 BD1  LP0     -1.358200        0.0000           
   32769 A    8193 TIP4 O1   OW0      0.000000       15.9990           
   32770 A    8193 TIP4 H1   HW0      0.679100        1.0080           
   32771 A    8193 TIP4 H2   HW0      0.679100        1.0080           
   32772 A    8193 TIP4 BD1  LP0     -1.358200        0.0000           
   32773 A    8194 TIP4 O1   OW0      0.000000       15.9990           
   32774 A    8194 TIP4 H1   HW0      0.679100        1.0080           
   32775 A    8194 TIP4 H2   HW0      0.679100        1.0080           
   32776 A    8194 TIP4 BD1  LP0     -1.358200        0.0000           
   32777 A    8195 TIP4 O1   OW0      0.000000       15.9990           
   32778 A    8195 TIP4 H1   HW0      0.679100        1.0080           
   32779 A    8195 TIP4 H2   HW0      0.679100        1.0080           
   32780 A    8195 TIP4 BD1  LP0     -1.358200        0.0000           
   32781 A    8196 TIP4 O1   OW0      0.000000       15.9990           
   32782 A    8196 TIP4 H1   HW0      0.679100        1.0080           
   32783 A    8196 TIP4 H2   HW0      0.679100        1.0080           
   32784 A    8196 TIP4 BD1  LP0     -1.358200        0.0000           
   32785 A    8197 TIP4 O1   OW0      0.000000       15.9990           
   32786 A    8197 TIP4 H1   HW0      0.679100        1.0080           
   32787 A    8197 TIP4 H2   HW0      0.679100        1.0080           
   32788 A    8197 TIP4 BD1  LP0     -1.358200        0.0000           
   32789 A    8198 TIP4 O1   OW0      0.000000       15.9990           
   32790 A    8198 TIP4 H1   HW0      0.679100        1.0080           
   32791 A    8198 TIP4 H2   HW0      0.679100        1.0080           
   32792 A    8198 TIP4 BD1  LP0     -1.358200        0.0000           
   32793 A    8199 TIP4 O1   OW0      0.000000       15.9990           
   32794 A    8199 TIP4 H1   HW0      0.679100        1.0080           
   32795 A    8199 TIP4 H2   HW0      0.679100        1.0080           
   32796 A    8199 TIP4 BD1  LP0     -1.358200        0.0000           
   32797 A    8200 TIP4 O1   OW0      0.000000       15.9990           
   32798 A    8200 TIP4 H1   HW0      0.679100        1.0080           
   32799 A    8200 TIP4 H2   HW0      0.679100        1.0080           
   32800 A    8200 TIP4 BD1  LP0     -1.358200        0.0000           
   32801 A    8201 TIP4 O1   OW0      0.000000       15.9990           
   32802 A    8201 TIP4 H1   HW0      0.679100        1.0080           
   32803 A    8201 TIP4 H2   HW0      0.679100        1.0080           
   32804 A    8201 TIP4 BD1  LP0     -1.358200        0.0000           
   32805 A    8202 TIP4 O1   OW0      0.000000       15.9990           
   32806 A    8202 TIP4 H1   HW0      0.679100        1.0080           
   32807 A    8202 TIP4 H2   HW0      0.679100        1.0080           
   32808 A    8202 TIP4 BD1  LP0     -1.358200        0.0000           
   32809 A    8203 TIP4 O1   OW0      0.000000       15.9990           
   32810 A    8203 TIP4 H1   HW0      0.679100        1.0080           
   32811 A    8203 TIP4 H2   HW0      0.679100        1.0080           
   32812 A    8203 TIP4 BD1  LP0     -1.358200        0.0000           
   32813 A    8204 TIP4 O1   OW0      0.000000       15.9990           
   32814 A    8204 TIP4 H1   HW0      0.679100        1.0080           
   32815 A    8204 TIP4 H2   HW0      0.679100        1.0080           
   32816 A    8204 TIP4 BD1  LP0     -1.358200        0.0000           
   32817 A    8205 TIP4 O1   OW0      0.000000       15.9990           
   32818 A    8205 TIP4 H1   HW0      0.679100        1.0080           
   32819 A    8205 TIP4 H2   HW0      0.679100        1.0080           
   32820 A    8205 TIP4 BD1  LP0     -1.358200        0.0000           
   32821 A    8206 TIP4 O1   OW0      0.000000       15.9990           
   32822 A    8206 TIP4 H1   HW0      0.679100        1.0080           
   32823 A    8206 TIP4 H2   HW0      0.679100        1.0080           
   32824 A    8206 TIP4 BD1  LP0     -1.358200        0.0000           
   32825 A    8207 TIP4 O1   OW0      0.000000       15.9990           
   32826 A    8207 TIP4 H1   HW0      0.679100        1.0080           
   32827 A    8207 TIP4 H2   HW0      0.679100        1.0080           
   32828 A    8207 TIP4 BD1  LP0     -1.358200        0.0000           
   32829 A    8208 TIP4 O1   OW0      0.000000       15.9990           
   32830 A    8208 TIP4 H1   HW0      0.679100        1.0080           
   32831 A    8208 TIP4 H2   HW0      0.679100        1.0080           
   32832 A    8208 TIP4 BD1  LP0     -1.358200        0.0000           
   32833 A    8209 TIP4 O1   OW0      0.000000       15.9990           
   32834 A    8209 TIP4 H1   HW0      0.679100        1.0080           
   32835 A    8209 TIP4 H2   HW0      0.679100        1.0080           
   32836 A    8209 TIP4 BD1  LP0     -1.358200        0.0000           
   32837 A    8210 TIP4 O1   OW0      0.000000       15.9990           
   32838 A    8210 TIP4 H1   HW0      0.679100        1.0080           
   32839 A    8210 TIP4 H2   HW0      0.679100        1.0080           
   32840 A    8210 TIP4 BD1  LP0     -1.358200        0.0000           
   32841 A    8211 TIP4 O1   OW0      0.000000       15.9990           
   32842 A    8211 TIP4 H1   HW0      0.679100        1.0080           
   32843 A    8211 TIP4 H2   HW0      0.679100        1.0080           
   32844 A    8211 TIP4 BD1  LP0     -1.358200        0.0000           
   32845 A    8212 TIP4 O1   OW0      0.000000       15.9990           
   32846 A    8212 TIP4 H1   HW0      0.679100        1.0080           
   32847 A    8212 TIP4 H2   HW0      0.679100        1.0080           
   32848 A    8212 TIP4 BD1  LP0     -1.358200        0.0000           
   32849 A    8213 TIP4 O1   OW0      0.000000       15.9990           
   32850 A    8213 TIP4 H1   HW0      0.679100        1.0080           
   32851 A    8213 TIP4 H2   HW0      0.679100        1.0080           
   32852 A    8213 TIP4 BD1  LP0     -1.358200        0.0000           
   32853 A    8214 TIP4 O1   OW0      0.000000       15.9990           
   32854 A    8214 TIP4 H1   HW0      0.679100        1.0080           
   32855 A    8214 TIP4 H2   HW0      0.679100        1.0080           
   32856 A    8214 TIP4 BD1  LP0     -1.358200        0.0000           
   32857 A    8215 TIP4 O1   OW0      0.000000       15.9990           
   32858 A    8215 TIP4 H1   HW0      0.679100        1.0080           
   32859 A    8215 TIP4 H2   HW0      0.679100        1.0080           
   32860 A    8215 TIP4 BD1  LP0     -1.358200        0.0000           
   32861 A    8216 TIP4 O1   OW0      0.000000       15.9990           
   32862 A    8216 TIP4 H1   HW0      0.679100        1.0080           
   32863 A    8216 TIP4 H2   HW0      0.679100        1.0080           
   32864 A    8216 TIP4 BD1  LP0     -1.358200        0.0000           
   32865 A    8217 TIP4 O1   OW0      0.000000       15.9990           
   32866 A    8217 TIP4 H1   HW0      0.679100        1.0080           
   32867 A    8217 TIP4 H2   HW0      0.679100        1.0080           
   32868 A    8217 TIP4 BD1  LP0     -1.358200        0.0000           
   32869 A    8218 TIP4 O1   OW0      0.000000       15.9990           
   32870 A    8218 TIP4 H1   HW0      0.679100        1.0080           
   32871 A    8218 TIP4 H2   HW0      0.679100        1.0080           
   32872 A    8218 TIP4 BD1  LP0     -1.358200        0.0000           
   32873 A    8219 TIP4 O1   OW0      0.000000       15.9990           
   32874 A    8219 TIP4 H1   HW0      0.679100        1.0080           
   32875 A    8219 TIP4 H2   HW0      0.679100        1.0080           
   32876 A    8219 TIP4 BD1  LP0     -1.358200        0.0000           
   32877 A    8220 TIP4 O1   OW0      0.000000       15.9990           
   32878 A    8220 TIP4 H1   HW0      0.679100        1.0080           
   32879 A    8220 TIP4 H2   HW0      0.679100        1.0080           
   32880 A    8220 TIP4 BD1  LP0     -1.358200        0.0000           
   32881 A    8221 TIP4 O1   OW0      0.000000       15.9990           
   32882 A    8221 TIP4 H1   HW0      0.679100        1.0080           
   32883 A    8221 TIP4 H2   HW0      0.679100        1.0080           
   32884 A    8221 TIP4 BD1  LP0     -1.358200        0.0000           
   32885 A    8222 TIP4 O1   OW0      0.000000       15.9990           
   32886 A    8222 TIP4 H1   HW0      0.679100        1.0080           
   32887 A    8222 TIP4 H2   HW0      0.679100        1.0080           
   32888 A    8222 TIP4 BD1  LP0     -1.358200        0.0000           
   32889 A    8223 TIP4 O1   OW0      0.000000       15.9990           
   32890 A    8223 TIP4 H1   HW0      0.679100        1.0080           
   32891 A    8223 TIP4 H2   HW0      0.679100        1.0080           
   32892 A    8223 TIP4 BD1  LP0     -1.358200        0.0000           
   32893 A    8224 TIP4 O1   OW0      0.000000       15.9990           
   32894 A    8224 TIP4 H1   HW0      0.679100        1.0080           
   32895 A    8224 TIP4 H2   HW0      0.679100        1.0080           
   32896 A    8224 TIP4 BD1  LP0     -1.358200        0.0000           
   32897 A    8225 TIP4 O1   OW0      0.000000       15.9990           
   32898 A    8225 TIP4 H1   HW0      0.679100        1.0080           
   32899 A    8225 TIP4 H2   HW0      0.679100        1.0080           
   32900 A    8225 TIP4 BD1  LP0     -1.358200        0.0000           
   32901 A    8226 TIP4 O1   OW0      0.000000       15.9990           
   32902 A    8226 TIP4 H1   HW0      0.679100        1.0080           
   32903 A    8226 TIP4 H2   HW0      0.679100        1.0080           
   32904 A    8226 TIP4 BD1  LP0     -1.358200        0.0000           
   32905 A    8227 TIP4 O1   OW0      0.000000       15.9990           
   32906 A    8227 TIP4 H1   HW0      0.679100        1.0080           
   32907 A    8227 TIP4 H2   HW0      0.679100        1.0080           
   32908 A    8227 TIP4 BD1  LP0     -1.358200        0.0000           
   32909 A    8228 TIP4 O1   OW0      0.000000       15.9990           
   32910 A    8228 TIP4 H1   HW0      0.679100        1.0080           
   32911 A    8228 TIP4 H2   HW0      0.679100        1.0080           
   32912 A    8228 TIP4 BD1  LP0     -1.358200        0.0000           
   32913 A    8229 TIP4 O1   OW0      0.000000       15.9990           
   32914 A    8229 TIP4 H1   HW0      0.679100        1.0080           
   32915 A    8229 TIP4 H2   HW0      0.679100        1.0080           
   32916 A    8229 TIP4 BD1  LP0     -1.358200        0.0000           
   32917 A    8230 TIP4 O1   OW0      0.000000       15.9990           
   32918 A    8230 TIP4 H1   HW0      0.679100        1.0080           
   32919 A    8230 TIP4 H2   HW0      0.679100        1.0080           
   32920 A    8230 TIP4 BD1  LP0     -1.358200        0.0000           
   32921 A    8231 TIP4 O1   OW0      0.000000       15.9990           
   32922 A    8231 TIP4 H1   HW0      0.679100        1.0080           
   32923 A    8231 TIP4 H2   HW0      0.679100        1.0080           
   32924 A    8231 TIP4 BD1  LP0     -1.358200        0.0000           
   32925 A    8232 TIP4 O1   OW0      0.000000       15.9990           
   32926 A    8232 TIP4 H1   HW0      0.679100        1.0080           
   32927 A    8232 TIP4 H2   HW0      0.679100        1.0080           
   32928 A    8232 TIP4 BD1  LP0     -1.358200        0.0000           
   32929 A    8233 TIP4 O1   OW0      0.000000       15.9990           
   32930 A    8233 TIP4 H1   HW0      0.679100        1.0080           
   32931 A    8233 TIP4 H2   HW0      0.679100        1.0080           
   32932 A    8233 TIP4 BD1  LP0     -1.358200        0.0000           
   32933 A    8234 TIP4 O1   OW0      0.000000       15.9990           
   32934 A    8234 TIP4 H1   HW0      0.679100        1.0080           
   32935 A    8234 TIP4 H2   HW0      0.679100        1.0080           
   32936 A    8234 TIP4 BD1  LP0     -1.358200        0.0000           
   32937 A    8235 TIP4 O1   OW0      0.000000       15.9990           
   32938 A    8235 TIP4 H1   HW0      0.679100        1.0080           
   32939 A    8235 TIP4 H2   HW0      0.679100        1.0080           
   32940 A    8235 TIP4 BD1  LP0     -1.358200        0.0000           
   32941 A    8236 TIP4 O1   OW0      0.000000       15.9990           
   32942 A    8236 TIP4 H1   HW0      0.679100        1.0080           
   32943 A    8236 TIP4 H2   HW0      0.679100        1.0080           
   32944 A    8236 TIP4 BD1  LP0     -1.358200        0.0000           
   32945 A    8237 TIP4 O1   OW0      0.000000       15.9990           
   32946 A    8237 TIP4 H1   HW0      0.679100        1.0080           
   32947 A    8237 TIP4 H2   HW0      0.679100        1.0080           
   32948 A    8237 TIP4 BD1  LP0     -1.358200        0.0000           
   32949 A    8238 TIP4 O1   OW0      0.000000       15.9990           
   32950 A    8238 TIP4 H1   HW0      0.679100        1.0080           
   32951 A    8238 TIP4 H2   HW0      0.679100        1.0080           
   32952 A    8238 TIP4 BD1  LP0     -1.358200        0.0000           
   32953 A    8239 TIP4 O1   OW0      0.000000       15.9990           
   32954 A    8239 TIP4 H1   HW0      0.679100        1.0080           
   32955 A    8239 TIP4 H2   HW0      0.679100        1.0080           
   32956 A    8239 TIP4 BD1  LP0     -1.358200        0.0000           
   32957 A    8240 TIP4 O1   OW0      0.000000       15.9990           
   32958 A    8240 TIP4 H1   HW0      0.679100        1.0080           
   32959 A    8240 TIP4 H2   HW0      0.679100        1.0080           
   32960 A    8240 TIP4 BD1  LP0     -1.358200        0.0000           
   32961 A    8241 TIP4 O1   OW0      0.000000       15.9990           
   32962 A    8241 TIP4 H1   HW0      0.679100        1.0080           
   32963 A    8241 TIP4 H2   HW0      0.679100        1.0080           
   32964 A    8241 TIP4 BD1  LP0     -1.358200        0.0000           
   32965 A    8242 TIP4 O1   OW0      0.000000       15.9990           
   32966 A    8242 TIP4 H1   HW0      0.679100        1.0080           
   32967 A    8242 TIP4 H2   HW0      0.679100        1.0080           
   32968 A    8242 TIP4 BD1  LP0     -1.358200        0.0000           
   32969 A    8243 TIP4 O1   OW0      0.000000       15.9990           
   32970 A    8243 TIP4 H1   HW0      0.679100        1.0080           
   32971 A    8243 TIP4 H2   HW0      0.679100        1.0080           
   32972 A    8243 TIP4 BD1  LP0     -1.358200        0.0000           
   32973 A    8244 TIP4 O1   OW0      0.000000       15.9990           
   32974 A    8244 TIP4 H1   HW0      0.679100        1.0080           
   32975 A    8244 TIP4 H2   HW0      0.679100        1.0080           
   32976 A    8244 TIP4 BD1  LP0     -1.358200        0.0000           
   32977 A    8245 TIP4 O1   OW0      0.000000       15.9990           
   32978 A    8245 TIP4 H1   HW0      0.679100        1.0080           
   32979 A    8245 TIP4 H2   HW0      0.679100        1.0080           
   32980 A    8245 TIP4 BD1  LP0     -1.358200        0.0000           
   32981 A    8246 TIP4 O1   OW0      0.000000       15.9990           
   32982 A    8246 TIP4 H1   HW0      0.679100        1.0080           
   32983 A    8246 TIP4 H2   HW0      0.679100        1.0080           
   32984 A    8246 TIP4 BD1  LP0     -1.358200        0.0000           
   32985 A    8247 TIP4 O1   OW0      0.000000       15.9990           
   32986 A    8247 TIP4 H1   HW0      0.679100        1.0080           
   32987 A    8247 TIP4 H2   HW0      0.679100        1.0080           
   32988 A    8247 TIP4 BD1  LP0     -1.358200        0.0000           
   32989 A    8248 TIP4 O1   OW0      0.000000       15.9990           
   32990 A    8248 TIP4 H1   HW0      0.679100        1.0080           
   32991 A    8248 TIP4 H2   HW0      0.679100        1.0080           
   32992 A    8248 TIP4 BD1  LP0     -1.358200        0.0000           
   32993 A    8249 TIP4 O1   OW0      0.000000       15.9990           
   32994 A    8249 TIP4 H1   HW0      0.679100        1.0080           
   32995 A    8249 TIP4 H2   HW0      0.679100        1.0080           
   32996 A    8249 TIP4 BD1  LP0     -1.358200        0.0000           
   32997 A    8250 TIP4 O1   OW0      0.000000       15.9990           
   32998 A    8250 TIP4 H1   HW0      0.679100        1.0080           
   32999 A    8250 TIP4 H2   HW0      0.679100        1.0080           
   33000 A    8250 TIP4 BD1  LP0     -1.358200        0.0000           
   33001 A    8251 TIP4 O1   OW0      0.000000       15.9990           
   33002 A    8251 TIP4 H1   HW0      0.679100        1.0080           
   33003 A    8251 TIP4 H2   HW0      0.679100        1.0080           
   33004 A    8251 TIP4 BD1  LP0     -1.358200        0.0000           
   33005 A    8252 TIP4 O1   OW0      0.000000       15.9990           
   33006 A    8252 TIP4 H1   HW0      0.679100        1.0080           
   33007 A    8252 TIP4 H2   HW0      0.679100        1.0080           
   33008 A    8252 TIP4 BD1  LP0     -1.358200        0.0000           
   33009 A    8253 TIP4 O1   OW0      0.000000       15.9990           
   33010 A    8253 TIP4 H1   HW0      0.679100        1.0080           
   33011 A    8253 TIP4 H2   HW0      0.679100        1.0080           
   33012 A    8253 TIP4 BD1  LP0     -1.358200        0.0000           
   33013 A    8254 TIP4 O1   OW0      0.000000       15.9990           
   33014 A    8254 TIP4 H1   HW0      0.679100        1.0080           
   33015 A    8254 TIP4 H2   HW0      0.679100        1.0080           
   33016 A    8254 TIP4 BD1  LP0     -1.358200        0.0000           
   33017 A    8255 TIP4 O1   OW0      0.000000       15.9990           
   33018 A    8255 TIP4 H1   HW0      0.679100        1.0080           
   33019 A    8255 TIP4 H2   HW0      0.679100        1.0080           
   33020 A    8255 TIP4 BD1  LP0     -1.358200        0.0000           
   33021 A    8256 TIP4 O1   OW0      0.000000       15.9990           
   33022 A    8256 TIP4 H1   HW0      0.679100        1.0080           
   33023 A    8256 TIP4 H2   HW0      0.679100        1.0080           
   33024 A    8256 TIP4 BD1  LP0     -1.358200        0.0000           
   33025 A    8257 TIP4 O1   OW0      0.000000       15.9990           
   33026 A    8257 TIP4 H1   HW0      0.679100        1.0080           
   33027 A    8257 TIP4 H2   HW0      0.679100        1.0080           
   33028 A    8257 TIP4 BD1  LP0     -1.358200        0.0000           
   33029 A    8258 TIP4 O1   OW0      0.000000       15.9990           
   33030 A    8258 TIP4 H1   HW0      0.679100        1.0080           
   33031 A    8258 TIP4 H2   HW0      0.679100        1.0080           
   33032 A    8258 TIP4 BD1  LP0     -1.358200        0.0000           
   33033 A    8259 TIP4 O1   OW0      0.000000       15.9990           
   33034 A    8259 TIP4 H1   HW0      0.679100        1.0080           
   33035 A    8259 TIP4 H2   HW0      0.679100        1.0080           
   33036 A    8259 TIP4 BD1  LP0     -1.358200        0.0000           
   33037 A    8260 TIP4 O1   OW0      0.000000       15.9990           
   33038 A    8260 TIP4 H1   HW0      0.679100        1.0080           
   33039 A    8260 TIP4 H2   HW0      0.679100        1.0080           
   33040 A    8260 TIP4 BD1  LP0     -1.358200        0.0000           
   33041 A    8261 TIP4 O1   OW0      0.000000       15.9990           
   33042 A    8261 TIP4 H1   HW0      0.679100        1.0080           
   33043 A    8261 TIP4 H2   HW0      0.679100        1.0080           
   33044 A    8261 TIP4 BD1  LP0     -1.358200        0.0000           
   33045 A    8262 TIP4 O1   OW0      0.000000       15.9990           
   33046 A    8262 TIP4 H1   HW0      0.679100        1.0080           
   33047 A    8262 TIP4 H2   HW0      0.679100        1.0080           
   33048 A    8262 TIP4 BD1  LP0     -1.358200        0.0000           
   33049 A    8263 TIP4 O1   OW0      0.000000       15.9990           
   33050 A    8263 TIP4 H1   HW0      0.679100        1.0080           
   33051 A    8263 TIP4 H2   HW0      0.679100        1.0080           
   33052 A    8263 TIP4 BD1  LP0     -1.358200        0.0000           
   33053 A    8264 TIP4 O1   OW0      0.000000       15.9990           
   33054 A    8264 TIP4 H1   HW0      0.679100        1.0080           
   33055 A    8264 TIP4 H2   HW0      0.679100        1.0080           
   33056 A    8264 TIP4 BD1  LP0     -1.358200        0.0000           
   33057 A    8265 TIP4 O1   OW0      0.000000       15.9990           
   33058 A    8265 TIP4 H1   HW0      0.679100        1.0080           
   33059 A    8265 TIP4 H2   HW0      0.679100        1.0080           
   33060 A    8265 TIP4 BD1  LP0     -1.358200        0.0000           
   33061 A    8266 TIP4 O1   OW0      0.000000       15.9990           
   33062 A    8266 TIP4 H1   HW0      0.679100        1.0080           
   33063 A    8266 TIP4 H2   HW0      0.679100        1.0080           
   33064 A    8266 TIP4 BD1  LP0     -1.358200        0.0000           
   33065 A    8267 TIP4 O1   OW0      0.000000       15.9990           
   33066 A    8267 TIP4 H1   HW0      0.679100        1.0080           
   33067 A    8267 TIP4 H2   HW0      0.679100        1.0080           
   33068 A    8267 TIP4 BD1  LP0     -1.358200        0.0000           
   33069 A    8268 TIP4 O1   OW0      0.000000       15.9990           
   33070 A    8268 TIP4 H1   HW0      0.679100        1.0080           
   33071 A    8268 TIP4 H2   HW0      0.679100        1.0080           
   33072 A    8268 TIP4 BD1  LP0     -1.358200        0.0000           
   33073 A    8269 TIP4 O1   OW0      0.000000       15.9990           
   33074 A    8269 TIP4 H1   HW0      0.679100        1.0080           
   33075 A    8269 TIP4 H2   HW0      0.679100        1.0080           
   33076 A    8269 TIP4 BD1  LP0     -1.358200        0.0000           
   33077 A    8270 TIP4 O1   OW0      0.000000       15.9990           
   33078 A    8270 TIP4 H1   HW0      0.679100        1.0080           
   33079 A    8270 TIP4 H2   HW0      0.679100        1.0080           
   33080 A    8270 TIP4 BD1  LP0     -1.358200        0.0000           
   33081 A    8271 TIP4 O1   OW0      0.000000       15.9990           
   33082 A    8271 TIP4 H1   HW0      0.679100        1.0080           
   33083 A    8271 TIP4 H2   HW0      0.679100        1.0080           
   33084 A    8271 TIP4 BD1  LP0     -1.358200        0.0000           
   33085 A    8272 TIP4 O1   OW0      0.000000       15.9990           
   33086 A    8272 TIP4 H1   HW0      0.679100        1.0080           
   33087 A    8272 TIP4 H2   HW0      0.679100        1.0080           
   33088 A    8272 TIP4 BD1  LP0     -1.358200        0.0000           
   33089 A    8273 TIP4 O1   OW0      0.000000       15.9990           
   33090 A    8273 TIP4 H1   HW0      0.679100        1.0080           
   33091 A    8273 TIP4 H2   HW0      0.679100        1.0080           
   33092 A    8273 TIP4 BD1  LP0     -1.358200        0.0000           
   33093 A    8274 TIP4 O1   OW0      0.000000       15.9990           
   33094 A    8274 TIP4 H1   HW0      0.679100        1.0080           
   33095 A    8274 TIP4 H2   HW0      0.679100        1.0080           
   33096 A    8274 TIP4 BD1  LP0     -1.358200        0.0000           
   33097 A    8275 TIP4 O1   OW0      0.000000       15.9990           
   33098 A    8275 TIP4 H1   HW0      0.679100        1.0080           
   33099 A    8275 TIP4 H2   HW0      0.679100        1.0080           
   33100 A    8275 TIP4 BD1  LP0     -1.358200        0.0000           
   33101 A    8276 TIP4 O1   OW0      0.000000       15.9990           
   33102 A    8276 TIP4 H1   HW0      0.679100        1.0080           
   33103 A    8276 TIP4 H2   HW0      0.679100        1.0080           
   33104 A    8276 TIP4 BD1  LP0     -1.358200        0.0000           
   33105 A    8277 TIP4 O1   OW0      0.000000       15.9990           
   33106 A    8277 TIP4 H1   HW0      0.679100        1.0080           
   33107 A    8277 TIP4 H2   HW0      0.679100        1.0080           
   33108 A    8277 TIP4 BD1  LP0     -1.358200        0.0000           
   33109 A    8278 TIP4 O1   OW0      0.000000       15.9990           
   33110 A    8278 TIP4 H1   HW0      0.679100        1.0080           
   33111 A    8278 TIP4 H2   HW0      0.679100        1.0080           
   33112 A    8278 TIP4 BD1  LP0     -1.358200        0.0000           
   33113 A    8279 TIP4 O1   OW0      0.000000       15.9990           
   33114 A    8279 TIP4 H1   HW0      0.679100        1.0080           
   33115 A    8279 TIP4 H2   HW0      0.679100        1.0080           
   33116 A    8279 TIP4 BD1  LP0     -1.358200        0.0000           
   33117 A    8280 TIP4 O1   OW0      0.000000       15.9990           
   33118 A    8280 TIP4 H1   HW0      0.679100        1.0080           
   33119 A    8280 TIP4 H2   HW0      0.679100        1.0080           
   33120 A    8280 TIP4 BD1  LP0     -1.358200        0.0000           
   33121 A    8281 TIP4 O1   OW0      0.000000       15.9990           
   33122 A    8281 TIP4 H1   HW0      0.679100        1.0080           
   33123 A    8281 TIP4 H2   HW0      0.679100        1.0080           
   33124 A    8281 TIP4 BD1  LP0     -1.358200        0.0000           
   33125 A    8282 TIP4 O1   OW0      0.000000       15.9990           
   33126 A    8282 TIP4 H1   HW0      0.679100        1.0080           
   33127 A    8282 TIP4 H2   HW0      0.679100        1.0080           
   33128 A    8282 TIP4 BD1  LP0     -1.358200        0.0000           
   33129 A    8283 TIP4 O1   OW0      0.000000       15.9990           
   33130 A    8283 TIP4 H1   HW0      0.679100        1.0080           
   33131 A    8283 TIP4 H2   HW0      0.679100        1.0080           
   33132 A    8283 TIP4 BD1  LP0     -1.358200        0.0000           
   33133 A    8284 TIP4 O1   OW0      0.000000       15.9990           
   33134 A    8284 TIP4 H1   HW0      0.679100        1.0080           
   33135 A    8284 TIP4 H2   HW0      0.679100        1.0080           
   33136 A    8284 TIP4 BD1  LP0     -1.358200        0.0000           
   33137 A    8285 TIP4 O1   OW0      0.000000       15.9990           
   33138 A    8285 TIP4 H1   HW0      0.679100        1.0080           
   33139 A    8285 TIP4 H2   HW0      0.679100        1.0080           
   33140 A    8285 TIP4 BD1  LP0     -1.358200        0.0000           
   33141 A    8286 TIP4 O1   OW0      0.000000       15.9990           
   33142 A    8286 TIP4 H1   HW0      0.679100        1.0080           
   33143 A    8286 TIP4 H2   HW0      0.679100        1.0080           
   33144 A    8286 TIP4 BD1  LP0     -1.358200        0.0000           
   33145 A    8287 TIP4 O1   OW0      0.000000       15.9990           
   33146 A    8287 TIP4 H1   HW0      0.679100        1.0080           
   33147 A    8287 TIP4 H2   HW0      0.679100        1.0080           
   33148 A    8287 TIP4 BD1  LP0     -1.358200        0.0000           
   33149 A    8288 TIP4 O1   OW0      0.000000       15.9990           
   33150 A    8288 TIP4 H1   HW0      0.679100        1.0080           
   33151 A    8288 TIP4 H2   HW0      0.679100        1.0080           
   33152 A    8288 TIP4 BD1  LP0     -1.358200        0.0000           
   33153 A    8289 TIP4 O1   OW0      0.000000       15.9990           
   33154 A    8289 TIP4 H1   HW0      0.679100        1.0080           
   33155 A    8289 TIP4 H2   HW0      0.679100        1.0080           
   33156 A    8289 TIP4 BD1  LP0     -1.358200        0.0000           
   33157 A    8290 TIP4 O1   OW0      0.000000       15.9990           
   33158 A    8290 TIP4 H1   HW0      0.679100        1.0080           
   33159 A    8290 TIP4 H2   HW0      0.679100        1.0080           
   33160 A    8290 TIP4 BD1  LP0     -1.358200        0.0000           
   33161 A    8291 TIP4 O1   OW0      0.000000       15.9990           
   33162 A    8291 TIP4 H1   HW0      0.679100        1.0080           
   33163 A    8291 TIP4 H2   HW0      0.679100        1.0080           
   33164 A    8291 TIP4 BD1  LP0     -1.358200        0.0000           
   33165 A    8292 TIP4 O1   OW0      0.000000       15.9990           
   33166 A    8292 TIP4 H1   HW0      0.679100        1.0080           
   33167 A    8292 TIP4 H2   HW0      0.679100        1.0080           
   33168 A    8292 TIP4 BD1  LP0     -1.358200        0.0000           
   33169 A    8293 TIP4 O1   OW0      0.000000       15.9990           
   33170 A    8293 TIP4 H1   HW0      0.679100        1.0080           
   33171 A    8293 TIP4 H2   HW0      0.679100        1.0080           
   33172 A    8293 TIP4 BD1  LP0     -1.358200        0.0000           
   33173 A    8294 TIP4 O1   OW0      0.000000       15.9990           
   33174 A    8294 TIP4 H1   HW0      0.679100        1.0080           
   33175 A    8294 TIP4 H2   HW0      0.679100        1.0080           
   33176 A    8294 TIP4 BD1  LP0     -1.358200        0.0000           
   33177 A    8295 TIP4 O1   OW0      0.000000       15.9990           
   33178 A    8295 TIP4 H1   HW0      0.679100        1.0080           
   33179 A    8295 TIP4 H2   HW0      0.679100        1.0080           
   33180 A    8295 TIP4 BD1  LP0     -1.358200        0.0000           
   33181 A    8296 TIP4 O1   OW0      0.000000       15.9990           
   33182 A    8296 TIP4 H1   HW0      0.679100        1.0080           
   33183 A    8296 TIP4 H2   HW0      0.679100        1.0080           
   33184 A    8296 TIP4 BD1  LP0     -1.358200        0.0000           
   33185 A    8297 TIP4 O1   OW0      0.000000       15.9990           
   33186 A    8297 TIP4 H1   HW0      0.679100        1.0080           
   33187 A    8297 TIP4 H2   HW0      0.679100        1.0080           
   33188 A    8297 TIP4 BD1  LP0     -1.358200        0.0000           
   33189 A    8298 TIP4 O1   OW0      0.000000       15.9990           
   33190 A    8298 TIP4 H1   HW0      0.679100        1.0080           
   33191 A    8298 TIP4 H2   HW0      0.679100        1.0080           
   33192 A    8298 TIP4 BD1  LP0     -1.358200        0.0000           
   33193 A    8299 TIP4 O1   OW0      0.000000       15.9990           
   33194 A    8299 TIP4 H1   HW0      0.679100        1.0080           
   33195 A    8299 TIP4 H2   HW0      0.679100        1.0080           
   33196 A    8299 TIP4 BD1  LP0     -1.358200        0.0000           
   33197 A    8300 TIP4 O1   OW0      0.000000       15.9990           
   33198 A    8300 TIP4 H1   HW0      0.679100        1.0080           
   33199 A    8300 TIP4 H2   HW0      0.679100        1.0080           
   33200 A    8300 TIP4 BD1  LP0     -1.358200        0.0000           
   33201 A    8301 TIP4 O1   OW0      0.000000       15.9990           
   33202 A    8301 TIP4 H1   HW0      0.679100        1.0080           
   33203 A    8301 TIP4 H2   HW0      0.679100        1.0080           
   33204 A    8301 TIP4 BD1  LP0     -1.358200        0.0000           
   33205 A    8302 TIP4 O1   OW0      0.000000       15.9990           
   33206 A    8302 TIP4 H1   HW0      0.679100        1.0080           
   33207 A    8302 TIP4 H2   HW0      0.679100        1.0080           
   33208 A    8302 TIP4 BD1  LP0     -1.358200        0.0000           
   33209 A    8303 TIP4 O1   OW0      0.000000       15.9990           
   33210 A    8303 TIP4 H1   HW0      0.679100        1.0080           
   33211 A    8303 TIP4 H2   HW0      0.679100        1.0080           
   33212 A    8303 TIP4 BD1  LP0     -1.358200        0.0000           
   33213 A    8304 TIP4 O1   OW0      0.000000       15.9990           
   33214 A    8304 TIP4 H1   HW0      0.679100        1.0080           
   33215 A    8304 TIP4 H2   HW0      0.679100        1.0080           
   33216 A    8304 TIP4 BD1  LP0     -1.358200        0.0000           
   33217 A    8305 TIP4 O1   OW0      0.000000       15.9990           
   33218 A    8305 TIP4 H1   HW0      0.679100        1.0080           
   33219 A    8305 TIP4 H2   HW0      0.679100        1.0080           
   33220 A    8305 TIP4 BD1  LP0     -1.358200        0.0000           
   33221 A    8306 TIP4 O1   OW0      0.000000       15.9990           
   33222 A    8306 TIP4 H1   HW0      0.679100        1.0080           
   33223 A    8306 TIP4 H2   HW0      0.679100        1.0080           
   33224 A    8306 TIP4 BD1  LP0     -1.358200        0.0000           
   33225 A    8307 TIP4 O1   OW0      0.000000       15.9990           
   33226 A    8307 TIP4 H1   HW0      0.679100        1.0080           
   33227 A    8307 TIP4 H2   HW0      0.679100        1.0080           
   33228 A    8307 TIP4 BD1  LP0     -1.358200        0.0000           
   33229 A    8308 TIP4 O1   OW0      0.000000       15.9990           
   33230 A    8308 TIP4 H1   HW0      0.679100        1.0080           
   33231 A    8308 TIP4 H2   HW0      0.679100        1.0080           
   33232 A    8308 TIP4 BD1  LP0     -1.358200        0.0000           
   33233 A    8309 TIP4 O1   OW0      0.000000       15.9990           
   33234 A    8309 TIP4 H1   HW0      0.679100        1.0080           
   33235 A    8309 TIP4 H2   HW0      0.679100        1.0080           
   33236 A    8309 TIP4 BD1  LP0     -1.358200        0.0000           
   33237 A    8310 TIP4 O1   OW0      0.000000       15.9990           
   33238 A    8310 TIP4 H1   HW0      0.679100        1.0080           
   33239 A    8310 TIP4 H2   HW0      0.679100        1.0080           
   33240 A    8310 TIP4 BD1  LP0     -1.358200        0.0000           
   33241 A    8311 TIP4 O1   OW0      0.000000       15.9990           
   33242 A    8311 TIP4 H1   HW0      0.679100        1.0080           
   33243 A    8311 TIP4 H2   HW0      0.679100        1.0080           
   33244 A    8311 TIP4 BD1  LP0     -1.358200        0.0000           
   33245 A    8312 TIP4 O1   OW0      0.000000       15.9990           
   33246 A    8312 TIP4 H1   HW0      0.679100        1.0080           
   33247 A    8312 TIP4 H2   HW0      0.679100        1.0080           
   33248 A    8312 TIP4 BD1  LP0     -1.358200        0.0000           
   33249 A    8313 TIP4 O1   OW0      0.000000       15.9990           
   33250 A    8313 TIP4 H1   HW0      0.679100        1.0080           
   33251 A    8313 TIP4 H2   HW0      0.679100        1.0080           
   33252 A    8313 TIP4 BD1  LP0     -1.358200        0.0000           
   33253 A    8314 TIP4 O1   OW0      0.000000       15.9990           
   33254 A    8314 TIP4 H1   HW0      0.679100        1.0080           
   33255 A    8314 TIP4 H2   HW0      0.679100        1.0080           
   33256 A    8314 TIP4 BD1  LP0     -1.358200        0.0000           
   33257 A    8315 TIP4 O1   OW0      0.000000       15.9990           
   33258 A    8315 TIP4 H1   HW0      0.679100        1.0080           
   33259 A    8315 TIP4 H2   HW0      0.679100        1.0080           
   33260 A    8315 TIP4 BD1  LP0     -1.358200        0.0000           
   33261 A    8316 TIP4 O1   OW0      0.000000       15.9990           
   33262 A    8316 TIP4 H1   HW0      0.679100        1.0080           
   33263 A    8316 TIP4 H2   HW0      0.679100        1.0080           
   33264 A    8316 TIP4 BD1  LP0     -1.358200        0.0000           
   33265 A    8317 TIP4 O1   OW0      0.000000       15.9990           
   33266 A    8317 TIP4 H1   HW0      0.679100        1.0080           
   33267 A    8317 TIP4 H2   HW0      0.679100        1.0080           
   33268 A    8317 TIP4 BD1  LP0     -1.358200        0.0000           
   33269 A    8318 TIP4 O1   OW0      0.000000       15.9990           
   33270 A    8318 TIP4 H1   HW0      0.679100        1.0080           
   33271 A    8318 TIP4 H2   HW0      0.679100        1.0080           
   33272 A    8318 TIP4 BD1  LP0     -1.358200        0.0000           
   33273 A    8319 TIP4 O1   OW0      0.000000       15.9990           
   33274 A    8319 TIP4 H1   HW0      0.679100        1.0080           
   33275 A    8319 TIP4 H2   HW0      0.679100        1.0080           
   33276 A    8319 TIP4 BD1  LP0     -1.358200        0.0000           
   33277 A    8320 TIP4 O1   OW0      0.000000       15.9990           
   33278 A    8320 TIP4 H1   HW0      0.679100        1.0080           
   33279 A    8320 TIP4 H2   HW0      0.679100        1.0080           
   33280 A    8320 TIP4 BD1  LP0     -1.358200        0.0000           
   33281 A    8321 TIP4 O1   OW0      0.000000       15.9990           
   33282 A    8321 TIP4 H1   HW0      0.679100        1.0080           
   33283 A    8321 TIP4 H2   HW0      0.679100        1.0080           
   33284 A    8321 TIP4 BD1  LP0     -1.358200        0.0000           
   33285 A    8322 TIP4 O1   OW0      0.000000       15.9990           
   33286 A    8322 TIP4 H1   HW0      0.679100        1.0080           
   33287 A    8322 TIP4 H2   HW0      0.679100        1.0080           
   33288 A    8322 TIP4 BD1  LP0     -1.358200        0.0000           
   33289 A    8323 TIP4 O1   OW0      0.000000       15.9990           
   33290 A    8323 TIP4 H1   HW0      0.679100        1.0080           
   33291 A    8323 TIP4 H2   HW0      0.679100        1.0080           
   33292 A    8323 TIP4 BD1  LP0     -1.358200        0.0000           
   33293 A    8324 TIP4 O1   OW0      0.000000       15.9990           
   33294 A    8324 TIP4 H1   HW0      0.679100        1.0080           
   33295 A    8324 TIP4 H2   HW0      0.679100        1.0080           
   33296 A    8324 TIP4 BD1  LP0     -1.358200        0.0000           
   33297 A    8325 TIP4 O1   OW0      0.000000       15.9990           
   33298 A    8325 TIP4 H1   HW0      0.679100        1.0080           
   33299 A    8325 TIP4 H2   HW0      0.679100        1.0080           
   33300 A    8325 TIP4 BD1  LP0     -1.358200        0.0000           
   33301 A    8326 TIP4 O1   OW0      0.000000       15.9990           
   33302 A    8326 TIP4 H1   HW0      0.679100        1.0080           
   33303 A    8326 TIP4 H2   HW0      0.679100        1.0080           
   33304 A    8326 TIP4 BD1  LP0     -1.358200        0.0000           
   33305 A    8327 TIP4 O1   OW0      0.000000       15.9990           
   33306 A    8327 TIP4 H1   HW0      0.679100        1.0080           
   33307 A    8327 TIP4 H2   HW0      0.679100        1.0080           
   33308 A    8327 TIP4 BD1  LP0     -1.358200        0.0000           
   33309 A    8328 TIP4 O1   OW0      0.000000       15.9990           
   33310 A    8328 TIP4 H1   HW0      0.679100        1.0080           
   33311 A    8328 TIP4 H2   HW0      0.679100        1.0080           
   33312 A    8328 TIP4 BD1  LP0     -1.358200        0.0000           
   33313 A    8329 TIP4 O1   OW0      0.000000       15.9990           
   33314 A    8329 TIP4 H1   HW0      0.679100        1.0080           
   33315 A    8329 TIP4 H2   HW0      0.679100        1.0080           
   33316 A    8329 TIP4 BD1  LP0     -1.358200        0.0000           
   33317 A    8330 TIP4 O1   OW0      0.000000       15.9990           
   33318 A    8330 TIP4 H1   HW0      0.679100        1.0080           
   33319 A    8330 TIP4 H2   HW0      0.679100        1.0080           
   33320 A    8330 TIP4 BD1  LP0     -1.358200        0.0000           
   33321 A    8331 TIP4 O1   OW0      0.000000       15.9990           
   33322 A    8331 TIP4 H1   HW0      0.679100        1.0080           
   33323 A    8331 TIP4 H2   HW0      0.679100        1.0080           
   33324 A    8331 TIP4 BD1  LP0     -1.358200        0.0000           
   33325 A    8332 TIP4 O1   OW0      0.000000       15.9990           
   33326 A    8332 TIP4 H1   HW0      0.679100        1.0080           
   33327 A    8332 TIP4 H2   HW0      0.679100        1.0080           
   33328 A    8332 TIP4 BD1  LP0     -1.358200        0.0000           
   33329 A    8333 TIP4 O1   OW0      0.000000       15.9990           
   33330 A    8333 TIP4 H1   HW0      0.679100        1.0080           
   33331 A    8333 TIP4 H2   HW0      0.679100        1.0080           
   33332 A    8333 TIP4 BD1  LP0     -1.358200        0.0000           
   33333 A    8334 TIP4 O1   OW0      0.000000       15.9990           
   33334 A    8334 TIP4 H1   HW0      0.679100        1.0080           
   33335 A    8334 TIP4 H2   HW0      0.679100        1.0080           
   33336 A    8334 TIP4 BD1  LP0     -1.358200        0.0000           
   33337 A    8335 TIP4 O1   OW0      0.000000       15.9990           
   33338 A    8335 TIP4 H1   HW0      0.679100        1.0080           
   33339 A    8335 TIP4 H2   HW0      0.679100        1.0080           
   33340 A    8335 TIP4 BD1  LP0     -1.358200        0.0000           
   33341 A    8336 TIP4 O1   OW0      0.000000       15.9990           
   33342 A    8336 TIP4 H1   HW0      0.679100        1.0080           
   33343 A    8336 TIP4 H2   HW0      0.679100        1.0080           
   33344 A    8336 TIP4 BD1  LP0     -1.358200        0.0000           
   33345 A    8337 TIP4 O1   OW0      0.000000       15.9990           
   33346 A    8337 TIP4 H1   HW0      0.679100        1.0080           
   33347 A    8337 TIP4 H2   HW0      0.679100        1.0080           
   33348 A    8337 TIP4 BD1  LP0     -1.358200        0.0000           
   33349 A    8338 TIP4 O1   OW0      0.000000       15.9990           
   33350 A    8338 TIP4 H1   HW0      0.679100        1.0080           
   33351 A    8338 TIP4 H2   HW0      0.679100        1.0080           
   33352 A    8338 TIP4 BD1  LP0     -1.358200        0.0000           
   33353 A    8339 TIP4 O1   OW0      0.000000       15.9990           
   33354 A    8339 TIP4 H1   HW0      0.679100        1.0080           
   33355 A    8339 TIP4 H2   HW0      0.679100        1.0080           
   33356 A    8339 TIP4 BD1  LP0     -1.358200        0.0000           
   33357 A    8340 TIP4 O1   OW0      0.000000       15.9990           
   33358 A    8340 TIP4 H1   HW0      0.679100        1.0080           
   33359 A    8340 TIP4 H2   HW0      0.679100        1.0080           
   33360 A    8340 TIP4 BD1  LP0     -1.358200        0.0000           
   33361 A    8341 TIP4 O1   OW0      0.000000       15.9990           
   33362 A    8341 TIP4 H1   HW0      0.679100        1.0080           
   33363 A    8341 TIP4 H2   HW0      0.679100        1.0080           
   33364 A    8341 TIP4 BD1  LP0     -1.358200        0.0000           
   33365 A    8342 TIP4 O1   OW0      0.000000       15.9990           
   33366 A    8342 TIP4 H1   HW0      0.679100        1.0080           
   33367 A    8342 TIP4 H2   HW0      0.679100        1.0080           
   33368 A    8342 TIP4 BD1  LP0     -1.358200        0.0000           
   33369 A    8343 TIP4 O1   OW0      0.000000       15.9990           
   33370 A    8343 TIP4 H1   HW0      0.679100        1.0080           
   33371 A    8343 TIP4 H2   HW0      0.679100        1.0080           
   33372 A    8343 TIP4 BD1  LP0     -1.358200        0.0000           
   33373 A    8344 TIP4 O1   OW0      0.000000       15.9990           
   33374 A    8344 TIP4 H1   HW0      0.679100        1.0080           
   33375 A    8344 TIP4 H2   HW0      0.679100        1.0080           
   33376 A    8344 TIP4 BD1  LP0     -1.358200        0.0000           
   33377 A    8345 TIP4 O1   OW0      0.000000       15.9990           
   33378 A    8345 TIP4 H1   HW0      0.679100        1.0080           
   33379 A    8345 TIP4 H2   HW0      0.679100        1.0080           
   33380 A    8345 TIP4 BD1  LP0     -1.358200        0.0000           
   33381 A    8346 TIP4 O1   OW0      0.000000       15.9990           
   33382 A    8346 TIP4 H1   HW0      0.679100        1.0080           
   33383 A    8346 TIP4 H2   HW0      0.679100        1.0080           
   33384 A    8346 TIP4 BD1  LP0     -1.358200        0.0000           
   33385 A    8347 TIP4 O1   OW0      0.000000       15.9990           
   33386 A    8347 TIP4 H1   HW0      0.679100        1.0080           
   33387 A    8347 TIP4 H2   HW0      0.679100        1.0080           
   33388 A    8347 TIP4 BD1  LP0     -1.358200        0.0000           
   33389 A    8348 TIP4 O1   OW0      0.000000       15.9990           
   33390 A    8348 TIP4 H1   HW0      0.679100        1.0080           
   33391 A    8348 TIP4 H2   HW0      0.679100        1.0080           
   33392 A    8348 TIP4 BD1  LP0     -1.358200        0.0000           
   33393 A    8349 TIP4 O1   OW0      0.000000       15.9990           
   33394 A    8349 TIP4 H1   HW0      0.679100        1.0080           
   33395 A    8349 TIP4 H2   HW0      0.679100        1.0080           
   33396 A    8349 TIP4 BD1  LP0     -1.358200        0.0000           
   33397 A    8350 TIP4 O1   OW0      0.000000       15.9990           
   33398 A    8350 TIP4 H1   HW0      0.679100        1.0080           
   33399 A    8350 TIP4 H2   HW0      0.679100        1.0080           
   33400 A    8350 TIP4 BD1  LP0     -1.358200        0.0000           
   33401 A    8351 TIP4 O1   OW0      0.000000       15.9990           
   33402 A    8351 TIP4 H1   HW0      0.679100        1.0080           
   33403 A    8351 TIP4 H2   HW0      0.679100        1.0080           
   33404 A    8351 TIP4 BD1  LP0     -1.358200        0.0000           
   33405 A    8352 TIP4 O1   OW0      0.000000       15.9990           
   33406 A    8352 TIP4 H1   HW0      0.679100        1.0080           
   33407 A    8352 TIP4 H2   HW0      0.679100        1.0080           
   33408 A    8352 TIP4 BD1  LP0     -1.358200        0.0000           
   33409 A    8353 TIP4 O1   OW0      0.000000       15.9990           
   33410 A    8353 TIP4 H1   HW0      0.679100        1.0080           
   33411 A    8353 TIP4 H2   HW0      0.679100        1.0080           
   33412 A    8353 TIP4 BD1  LP0     -1.358200        0.0000           
   33413 A    8354 TIP4 O1   OW0      0.000000       15.9990           
   33414 A    8354 TIP4 H1   HW0      0.679100        1.0080           
   33415 A    8354 TIP4 H2   HW0      0.679100        1.0080           
   33416 A    8354 TIP4 BD1  LP0     -1.358200        0.0000           
   33417 A    8355 TIP4 O1   OW0      0.000000       15.9990           
   33418 A    8355 TIP4 H1   HW0      0.679100        1.0080           
   33419 A    8355 TIP4 H2   HW0      0.679100        1.0080           
   33420 A    8355 TIP4 BD1  LP0     -1.358200        0.0000           
   33421 A    8356 TIP4 O1   OW0      0.000000       15.9990           
   33422 A    8356 TIP4 H1   HW0      0.679100        1.0080           
   33423 A    8356 TIP4 H2   HW0      0.679100        1.0080           
   33424 A    8356 TIP4 BD1  LP0     -1.358200        0.0000           
   33425 A    8357 TIP4 O1   OW0      0.000000       15.9990           
   33426 A    8357 TIP4 H1   HW0      0.679100        1.0080           
   33427 A    8357 TIP4 H2   HW0      0.679100        1.0080           
   33428 A    8357 TIP4 BD1  LP0     -1.358200        0.0000           
   33429 A    8358 TIP4 O1   OW0      0.000000       15.9990           
   33430 A    8358 TIP4 H1   HW0      0.679100        1.0080           
   33431 A    8358 TIP4 H2   HW0      0.679100        1.0080           
   33432 A    8358 TIP4 BD1  LP0     -1.358200        0.0000           
   33433 A    8359 TIP4 O1   OW0      0.000000       15.9990           
   33434 A    8359 TIP4 H1   HW0      0.679100        1.0080           
   33435 A    8359 TIP4 H2   HW0      0.679100        1.0080           
   33436 A    8359 TIP4 BD1  LP0     -1.358200        0.0000           
   33437 A    8360 TIP4 O1   OW0      0.000000       15.9990           
   33438 A    8360 TIP4 H1   HW0      0.679100        1.0080           
   33439 A    8360 TIP4 H2   HW0      0.679100        1.0080           
   33440 A    8360 TIP4 BD1  LP0     -1.358200        0.0000           
   33441 A    8361 TIP4 O1   OW0      0.000000       15.9990           
   33442 A    8361 TIP4 H1   HW0      0.679100        1.0080           
   33443 A    8361 TIP4 H2   HW0      0.679100        1.0080           
   33444 A    8361 TIP4 BD1  LP0     -1.358200        0.0000           
   33445 A    8362 TIP4 O1   OW0      0.000000       15.9990           
   33446 A    8362 TIP4 H1   HW0      0.679100        1.0080           
   33447 A    8362 TIP4 H2   HW0      0.679100        1.0080           
   33448 A    8362 TIP4 BD1  LP0     -1.358200        0.0000           
   33449 A    8363 TIP4 O1   OW0      0.000000       15.9990           
   33450 A    8363 TIP4 H1   HW0      0.679100        1.0080           
   33451 A    8363 TIP4 H2   HW0      0.679100        1.0080           
   33452 A    8363 TIP4 BD1  LP0     -1.358200        0.0000           
   33453 A    8364 TIP4 O1   OW0      0.000000       15.9990           
   33454 A    8364 TIP4 H1   HW0      0.679100        1.0080           
   33455 A    8364 TIP4 H2   HW0      0.679100        1.0080           
   33456 A    8364 TIP4 BD1  LP0     -1.358200        0.0000           
   33457 A    8365 TIP4 O1   OW0      0.000000       15.9990           
   33458 A    8365 TIP4 H1   HW0      0.679100        1.0080           
   33459 A    8365 TIP4 H2   HW0      0.679100        1.0080           
   33460 A    8365 TIP4 BD1  LP0     -1.358200        0.0000           
   33461 A    8366 TIP4 O1   OW0      0.000000       15.9990           
   33462 A    8366 TIP4 H1   HW0      0.679100        1.0080           
   33463 A    8366 TIP4 H2   HW0      0.679100        1.0080           
   33464 A    8366 TIP4 BD1  LP0     -1.358200        0.0000           
   33465 A    8367 TIP4 O1   OW0      0.000000       15.9990           
   33466 A    8367 TIP4 H1   HW0      0.679100        1.0080           
   33467 A    8367 TIP4 H2   HW0      0.679100        1.0080           
   33468 A    8367 TIP4 BD1  LP0     -1.358200        0.0000           
   33469 A    8368 TIP4 O1   OW0      0.000000       15.9990           
   33470 A    8368 TIP4 H1   HW0      0.679100        1.0080           
   33471 A    8368 TIP4 H2   HW0      0.679100        1.0080           
   33472 A    8368 TIP4 BD1  LP0     -1.358200        0.0000           
   33473 A    8369 TIP4 O1   OW0      0.000000       15.9990           
   33474 A    8369 TIP4 H1   HW0      0.679100        1.0080           
   33475 A    8369 TIP4 H2   HW0      0.679100        1.0080           
   33476 A    8369 TIP4 BD1  LP0     -1.358200        0.0000           
   33477 A    8370 TIP4 O1   OW0      0.000000       15.9990           
   33478 A    8370 TIP4 H1   HW0      0.679100        1.0080           
   33479 A    8370 TIP4 H2   HW0      0.679100        1.0080           
   33480 A    8370 TIP4 BD1  LP0     -1.358200        0.0000           
   33481 A    8371 TIP4 O1   OW0      0.000000       15.9990           
   33482 A    8371 TIP4 H1   HW0      0.679100        1.0080           
   33483 A    8371 TIP4 H2   HW0      0.679100        1.0080           
   33484 A    8371 TIP4 BD1  LP0     -1.358200        0.0000           
   33485 A    8372 TIP4 O1   OW0      0.000000       15.9990           
   33486 A    8372 TIP4 H1   HW0      0.679100        1.0080           
   33487 A    8372 TIP4 H2   HW0      0.679100        1.0080           
   33488 A    8372 TIP4 BD1  LP0     -1.358200        0.0000           
   33489 A    8373 TIP4 O1   OW0      0.000000       15.9990           
   33490 A    8373 TIP4 H1   HW0      0.679100        1.0080           
   33491 A    8373 TIP4 H2   HW0      0.679100        1.0080           
   33492 A    8373 TIP4 BD1  LP0     -1.358200        0.0000           
   33493 A    8374 TIP4 O1   OW0      0.000000       15.9990           
   33494 A    8374 TIP4 H1   HW0      0.679100        1.0080           
   33495 A    8374 TIP4 H2   HW0      0.679100        1.0080           
   33496 A    8374 TIP4 BD1  LP0     -1.358200        0.0000           
   33497 A    8375 TIP4 O1   OW0      0.000000       15.9990           
   33498 A    8375 TIP4 H1   HW0      0.679100        1.0080           
   33499 A    8375 TIP4 H2   HW0      0.679100        1.0080           
   33500 A    8375 TIP4 BD1  LP0     -1.358200        0.0000           
   33501 A    8376 TIP4 O1   OW0      0.000000       15.9990           
   33502 A    8376 TIP4 H1   HW0      0.679100        1.0080           
   33503 A    8376 TIP4 H2   HW0      0.679100        1.0080           
   33504 A    8376 TIP4 BD1  LP0     -1.358200        0.0000           
   33505 A    8377 TIP4 O1   OW0      0.000000       15.9990           
   33506 A    8377 TIP4 H1   HW0      0.679100        1.0080           
   33507 A    8377 TIP4 H2   HW0      0.679100        1.0080           
   33508 A    8377 TIP4 BD1  LP0     -1.358200        0.0000           
   33509 A    8378 TIP4 O1   OW0      0.000000       15.9990           
   33510 A    8378 TIP4 H1   HW0      0.679100        1.0080           
   33511 A    8378 TIP4 H2   HW0      0.679100        1.0080           
   33512 A    8378 TIP4 BD1  LP0     -1.358200        0.0000           
   33513 A    8379 TIP4 O1   OW0      0.000000       15.9990           
   33514 A    8379 TIP4 H1   HW0      0.679100        1.0080           
   33515 A    8379 TIP4 H2   HW0      0.679100        1.0080           
   33516 A    8379 TIP4 BD1  LP0     -1.358200        0.0000           
   33517 A    8380 TIP4 O1   OW0      0.000000       15.9990           
   33518 A    8380 TIP4 H1   HW0      0.679100        1.0080           
   33519 A    8380 TIP4 H2   HW0      0.679100        1.0080           
   33520 A    8380 TIP4 BD1  LP0     -1.358200        0.0000           
   33521 A    8381 TIP4 O1   OW0      0.000000       15.9990           
   33522 A    8381 TIP4 H1   HW0      0.679100        1.0080           
   33523 A    8381 TIP4 H2   HW0      0.679100        1.0080           
   33524 A    8381 TIP4 BD1  LP0     -1.358200        0.0000           
   33525 A    8382 TIP4 O1   OW0      0.000000       15.9990           
   33526 A    8382 TIP4 H1   HW0      0.679100        1.0080           
   33527 A    8382 TIP4 H2   HW0      0.679100        1.0080           
   33528 A    8382 TIP4 BD1  LP0     -1.358200        0.0000           
   33529 A    8383 TIP4 O1   OW0      0.000000       15.9990           
   33530 A    8383 TIP4 H1   HW0      0.679100        1.0080           
   33531 A    8383 TIP4 H2   HW0      0.679100        1.0080           
   33532 A    8383 TIP4 BD1  LP0     -1.358200        0.0000           
   33533 A    8384 TIP4 O1   OW0      0.000000       15.9990           
   33534 A    8384 TIP4 H1   HW0      0.679100        1.0080           
   33535 A    8384 TIP4 H2   HW0      0.679100        1.0080           
   33536 A    8384 TIP4 BD1  LP0     -1.358200        0.0000           
   33537 A    8385 TIP4 O1   OW0      0.000000       15.9990           
   33538 A    8385 TIP4 H1   HW0      0.679100        1.0080           
   33539 A    8385 TIP4 H2   HW0      0.679100        1.0080           
   33540 A    8385 TIP4 BD1  LP0     -1.358200        0.0000           
   33541 A    8386 TIP4 O1   OW0      0.000000       15.9990           
   33542 A    8386 TIP4 H1   HW0      0.679100        1.0080           
   33543 A    8386 TIP4 H2   HW0      0.679100        1.0080           
   33544 A    8386 TIP4 BD1  LP0     -1.358200        0.0000           
   33545 A    8387 TIP4 O1   OW0      0.000000       15.9990           
   33546 A    8387 TIP4 H1   HW0      0.679100        1.0080           
   33547 A    8387 TIP4 H2   HW0      0.679100        1.0080           
   33548 A    8387 TIP4 BD1  LP0     -1.358200        0.0000           
   33549 A    8388 TIP4 O1   OW0      0.000000       15.9990           
   33550 A    8388 TIP4 H1   HW0      0.679100        1.0080           
   33551 A    8388 TIP4 H2   HW0      0.679100        1.0080           
   33552 A    8388 TIP4 BD1  LP0     -1.358200        0.0000           
   33553 A    8389 TIP4 O1   OW0      0.000000       15.9990           
   33554 A    8389 TIP4 H1   HW0      0.679100        1.0080           
   33555 A    8389 TIP4 H2   HW0      0.679100        1.0080           
   33556 A    8389 TIP4 BD1  LP0     -1.358200        0.0000           
   33557 A    8390 TIP4 O1   OW0      0.000000       15.9990           
   33558 A    8390 TIP4 H1   HW0      0.679100        1.0080           
   33559 A    8390 TIP4 H2   HW0      0.679100        1.0080           
   33560 A    8390 TIP4 BD1  LP0     -1.358200        0.0000           
   33561 A    8391 TIP4 O1   OW0      0.000000       15.9990           
   33562 A    8391 TIP4 H1   HW0      0.679100        1.0080           
   33563 A    8391 TIP4 H2   HW0      0.679100        1.0080           
   33564 A    8391 TIP4 BD1  LP0     -1.358200        0.0000           
   33565 A    8392 TIP4 O1   OW0      0.000000       15.9990           
   33566 A    8392 TIP4 H1   HW0      0.679100        1.0080           
   33567 A    8392 TIP4 H2   HW0      0.679100        1.0080           
   33568 A    8392 TIP4 BD1  LP0     -1.358200        0.0000           
   33569 A    8393 TIP4 O1   OW0      0.000000       15.9990           
   33570 A    8393 TIP4 H1   HW0      0.679100        1.0080           
   33571 A    8393 TIP4 H2   HW0      0.679100        1.0080           
   33572 A    8393 TIP4 BD1  LP0     -1.358200        0.0000           
   33573 A    8394 TIP4 O1   OW0      0.000000       15.9990           
   33574 A    8394 TIP4 H1   HW0      0.679100        1.0080           
   33575 A    8394 TIP4 H2   HW0      0.679100        1.0080           
   33576 A    8394 TIP4 BD1  LP0     -1.358200        0.0000           
   33577 A    8395 TIP4 O1   OW0      0.000000       15.9990           
   33578 A    8395 TIP4 H1   HW0      0.679100        1.0080           
   33579 A    8395 TIP4 H2   HW0      0.679100        1.0080           
   33580 A    8395 TIP4 BD1  LP0     -1.358200        0.0000           
   33581 A    8396 TIP4 O1   OW0      0.000000       15.9990           
   33582 A    8396 TIP4 H1   HW0      0.679100        1.0080           
   33583 A    8396 TIP4 H2   HW0      0.679100        1.0080           
   33584 A    8396 TIP4 BD1  LP0     -1.358200        0.0000           
   33585 A    8397 TIP4 O1   OW0      0.000000       15.9990           
   33586 A    8397 TIP4 H1   HW0      0.679100        1.0080           
   33587 A    8397 TIP4 H2   HW0      0.679100        1.0080           
   33588 A    8397 TIP4 BD1  LP0     -1.358200        0.0000           
   33589 A    8398 TIP4 O1   OW0      0.000000       15.9990           
   33590 A    8398 TIP4 H1   HW0      0.679100        1.0080           
   33591 A    8398 TIP4 H2   HW0      0.679100        1.0080           
   33592 A    8398 TIP4 BD1  LP0     -1.358200        0.0000           
   33593 A    8399 TIP4 O1   OW0      0.000000       15.9990           
   33594 A    8399 TIP4 H1   HW0      0.679100        1.0080           
   33595 A    8399 TIP4 H2   HW0      0.679100        1.0080           
   33596 A    8399 TIP4 BD1  LP0     -1.358200        0.0000           
   33597 A    8400 TIP4 O1   OW0      0.000000       15.9990           
   33598 A    8400 TIP4 H1   HW0      0.679100        1.0080           
   33599 A    8400 TIP4 H2   HW0      0.679100        1.0080           
   33600 A    8400 TIP4 BD1  LP0     -1.358200        0.0000           
   33601 A    8401 TIP4 O1   OW0      0.000000       15.9990           
   33602 A    8401 TIP4 H1   HW0      0.679100        1.0080           
   33603 A    8401 TIP4 H2   HW0      0.679100        1.0080           
   33604 A    8401 TIP4 BD1  LP0     -1.358200        0.0000           
   33605 A    8402 TIP4 O1   OW0      0.000000       15.9990           
   33606 A    8402 TIP4 H1   HW0      0.679100        1.0080           
   33607 A    8402 TIP4 H2   HW0      0.679100        1.0080           
   33608 A    8402 TIP4 BD1  LP0     -1.358200        0.0000           
   33609 A    8403 TIP4 O1   OW0      0.000000       15.9990           
   33610 A    8403 TIP4 H1   HW0      0.679100        1.0080           
   33611 A    8403 TIP4 H2   HW0      0.679100        1.0080           
   33612 A    8403 TIP4 BD1  LP0     -1.358200        0.0000           
   33613 A    8404 TIP4 O1   OW0      0.000000       15.9990           
   33614 A    8404 TIP4 H1   HW0      0.679100        1.0080           
   33615 A    8404 TIP4 H2   HW0      0.679100        1.0080           
   33616 A    8404 TIP4 BD1  LP0     -1.358200        0.0000           
   33617 A    8405 TIP4 O1   OW0      0.000000       15.9990           
   33618 A    8405 TIP4 H1   HW0      0.679100        1.0080           
   33619 A    8405 TIP4 H2   HW0      0.679100        1.0080           
   33620 A    8405 TIP4 BD1  LP0     -1.358200        0.0000           
   33621 A    8406 TIP4 O1   OW0      0.000000       15.9990           
   33622 A    8406 TIP4 H1   HW0      0.679100        1.0080           
   33623 A    8406 TIP4 H2   HW0      0.679100        1.0080           
   33624 A    8406 TIP4 BD1  LP0     -1.358200        0.0000           
   33625 A    8407 TIP4 O1   OW0      0.000000       15.9990           
   33626 A    8407 TIP4 H1   HW0      0.679100        1.0080           
   33627 A    8407 TIP4 H2   HW0      0.679100        1.0080           
   33628 A    8407 TIP4 BD1  LP0     -1.358200        0.0000           
   33629 A    8408 TIP4 O1   OW0      0.000000       15.9990           
   33630 A    8408 TIP4 H1   HW0      0.679100        1.0080           
   33631 A    8408 TIP4 H2   HW0      0.679100        1.0080           
   33632 A    8408 TIP4 BD1  LP0     -1.358200        0.0000           
   33633 A    8409 TIP4 O1   OW0      0.000000       15.9990           
   33634 A    8409 TIP4 H1   HW0      0.679100        1.0080           
   33635 A    8409 TIP4 H2   HW0      0.679100        1.0080           
   33636 A    8409 TIP4 BD1  LP0     -1.358200        0.0000           
   33637 A    8410 TIP4 O1   OW0      0.000000       15.9990           
   33638 A    8410 TIP4 H1   HW0      0.679100        1.0080           
   33639 A    8410 TIP4 H2   HW0      0.679100        1.0080           
   33640 A    8410 TIP4 BD1  LP0     -1.358200        0.0000           
   33641 A    8411 TIP4 O1   OW0      0.000000       15.9990           
   33642 A    8411 TIP4 H1   HW0      0.679100        1.0080           
   33643 A    8411 TIP4 H2   HW0      0.679100        1.0080           
   33644 A    8411 TIP4 BD1  LP0     -1.358200        0.0000           
   33645 A    8412 TIP4 O1   OW0      0.000000       15.9990           
   33646 A    8412 TIP4 H1   HW0      0.679100        1.0080           
   33647 A    8412 TIP4 H2   HW0      0.679100        1.0080           
   33648 A    8412 TIP4 BD1  LP0     -1.358200        0.0000           
   33649 A    8413 TIP4 O1   OW0      0.000000       15.9990           
   33650 A    8413 TIP4 H1   HW0      0.679100        1.0080           
   33651 A    8413 TIP4 H2   HW0      0.679100        1.0080           
   33652 A    8413 TIP4 BD1  LP0     -1.358200        0.0000           
   33653 A    8414 TIP4 O1   OW0      0.000000       15.9990           
   33654 A    8414 TIP4 H1   HW0      0.679100        1.0080           
   33655 A    8414 TIP4 H2   HW0      0.679100        1.0080           
   33656 A    8414 TIP4 BD1  LP0     -1.358200        0.0000           
   33657 A    8415 TIP4 O1   OW0      0.000000       15.9990           
   33658 A    8415 TIP4 H1   HW0      0.679100        1.0080           
   33659 A    8415 TIP4 H2   HW0      0.679100        1.0080           
   33660 A    8415 TIP4 BD1  LP0     -1.358200        0.0000           
   33661 A    8416 TIP4 O1   OW0      0.000000       15.9990           
   33662 A    8416 TIP4 H1   HW0      0.679100        1.0080           
   33663 A    8416 TIP4 H2   HW0      0.679100        1.0080           
   33664 A    8416 TIP4 BD1  LP0     -1.358200        0.0000           
   33665 A    8417 TIP4 O1   OW0      0.000000       15.9990           
   33666 A    8417 TIP4 H1   HW0      0.679100        1.0080           
   33667 A    8417 TIP4 H2   HW0      0.679100        1.0080           
   33668 A    8417 TIP4 BD1  LP0     -1.358200        0.0000           
   33669 A    8418 TIP4 O1   OW0      0.000000       15.9990           
   33670 A    8418 TIP4 H1   HW0      0.679100        1.0080           
   33671 A    8418 TIP4 H2   HW0      0.679100        1.0080           
   33672 A    8418 TIP4 BD1  LP0     -1.358200        0.0000           
   33673 A    8419 TIP4 O1   OW0      0.000000       15.9990           
   33674 A    8419 TIP4 H1   HW0      0.679100        1.0080           
   33675 A    8419 TIP4 H2   HW0      0.679100        1.0080           
   33676 A    8419 TIP4 BD1  LP0     -1.358200        0.0000           
   33677 A    8420 TIP4 O1   OW0      0.000000       15.9990           
   33678 A    8420 TIP4 H1   HW0      0.679100        1.0080           
   33679 A    8420 TIP4 H2   HW0      0.679100        1.0080           
   33680 A    8420 TIP4 BD1  LP0     -1.358200        0.0000           
   33681 A    8421 TIP4 O1   OW0      0.000000       15.9990           
   33682 A    8421 TIP4 H1   HW0      0.679100        1.0080           
   33683 A    8421 TIP4 H2   HW0      0.679100        1.0080           
   33684 A    8421 TIP4 BD1  LP0     -1.358200        0.0000           
   33685 A    8422 TIP4 O1   OW0      0.000000       15.9990           
   33686 A    8422 TIP4 H1   HW0      0.679100        1.0080           
   33687 A    8422 TIP4 H2   HW0      0.679100        1.0080           
   33688 A    8422 TIP4 BD1  LP0     -1.358200        0.0000           
   33689 A    8423 TIP4 O1   OW0      0.000000       15.9990           
   33690 A    8423 TIP4 H1   HW0      0.679100        1.0080           
   33691 A    8423 TIP4 H2   HW0      0.679100        1.0080           
   33692 A    8423 TIP4 BD1  LP0     -1.358200        0.0000           
   33693 A    8424 TIP4 O1   OW0      0.000000       15.9990           
   33694 A    8424 TIP4 H1   HW0      0.679100        1.0080           
   33695 A    8424 TIP4 H2   HW0      0.679100        1.0080           
   33696 A    8424 TIP4 BD1  LP0     -1.358200        0.0000           
   33697 A    8425 TIP4 O1   OW0      0.000000       15.9990           
   33698 A    8425 TIP4 H1   HW0      0.679100        1.0080           
   33699 A    8425 TIP4 H2   HW0      0.679100        1.0080           
   33700 A    8425 TIP4 BD1  LP0     -1.358200        0.0000           
   33701 A    8426 TIP4 O1   OW0      0.000000       15.9990           
   33702 A    8426 TIP4 H1   HW0      0.679100        1.0080           
   33703 A    8426 TIP4 H2   HW0      0.679100        1.0080           
   33704 A    8426 TIP4 BD1  LP0     -1.358200        0.0000           
   33705 A    8427 TIP4 O1   OW0      0.000000       15.9990           
   33706 A    8427 TIP4 H1   HW0      0.679100        1.0080           
   33707 A    8427 TIP4 H2   HW0      0.679100        1.0080           
   33708 A    8427 TIP4 BD1  LP0     -1.358200        0.0000           
   33709 A    8428 TIP4 O1   OW0      0.000000       15.9990           
   33710 A    8428 TIP4 H1   HW0      0.679100        1.0080           
   33711 A    8428 TIP4 H2   HW0      0.679100        1.0080           
   33712 A    8428 TIP4 BD1  LP0     -1.358200        0.0000           
   33713 A    8429 TIP4 O1   OW0      0.000000       15.9990           
   33714 A    8429 TIP4 H1   HW0      0.679100        1.0080           
   33715 A    8429 TIP4 H2   HW0      0.679100        1.0080           
   33716 A    8429 TIP4 BD1  LP0     -1.358200        0.0000           
   33717 A    8430 TIP4 O1   OW0      0.000000       15.9990           
   33718 A    8430 TIP4 H1   HW0      0.679100        1.0080           
   33719 A    8430 TIP4 H2   HW0      0.679100        1.0080           
   33720 A    8430 TIP4 BD1  LP0     -1.358200        0.0000           
   33721 A    8431 TIP4 O1   OW0      0.000000       15.9990           
   33722 A    8431 TIP4 H1   HW0      0.679100        1.0080           
   33723 A    8431 TIP4 H2   HW0      0.679100        1.0080           
   33724 A    8431 TIP4 BD1  LP0     -1.358200        0.0000           
   33725 A    8432 TIP4 O1   OW0      0.000000       15.9990           
   33726 A    8432 TIP4 H1   HW0      0.679100        1.0080           
   33727 A    8432 TIP4 H2   HW0      0.679100        1.0080           
   33728 A    8432 TIP4 BD1  LP0     -1.358200        0.0000           
   33729 A    8433 TIP4 O1   OW0      0.000000       15.9990           
   33730 A    8433 TIP4 H1   HW0      0.679100        1.0080           
   33731 A    8433 TIP4 H2   HW0      0.679100        1.0080           
   33732 A    8433 TIP4 BD1  LP0     -1.358200        0.0000           
   33733 A    8434 TIP4 O1   OW0      0.000000       15.9990           
   33734 A    8434 TIP4 H1   HW0      0.679100        1.0080           
   33735 A    8434 TIP4 H2   HW0      0.679100        1.0080           
   33736 A    8434 TIP4 BD1  LP0     -1.358200        0.0000           
   33737 A    8435 TIP4 O1   OW0      0.000000       15.9990           
   33738 A    8435 TIP4 H1   HW0      0.679100        1.0080           
   33739 A    8435 TIP4 H2   HW0      0.679100        1.0080           
   33740 A    8435 TIP4 BD1  LP0     -1.358200        0.0000           
   33741 A    8436 TIP4 O1   OW0      0.000000       15.9990           
   33742 A    8436 TIP4 H1   HW0      0.679100        1.0080           
   33743 A    8436 TIP4 H2   HW0      0.679100        1.0080           
   33744 A    8436 TIP4 BD1  LP0     -1.358200        0.0000           
   33745 A    8437 TIP4 O1   OW0      0.000000       15.9990           
   33746 A    8437 TIP4 H1   HW0      0.679100        1.0080           
   33747 A    8437 TIP4 H2   HW0      0.679100        1.0080           
   33748 A    8437 TIP4 BD1  LP0     -1.358200        0.0000           
   33749 A    8438 TIP4 O1   OW0      0.000000       15.9990           
   33750 A    8438 TIP4 H1   HW0      0.679100        1.0080           
   33751 A    8438 TIP4 H2   HW0      0.679100        1.0080           
   33752 A    8438 TIP4 BD1  LP0     -1.358200        0.0000           
   33753 A    8439 TIP4 O1   OW0      0.000000       15.9990           
   33754 A    8439 TIP4 H1   HW0      0.679100        1.0080           
   33755 A    8439 TIP4 H2   HW0      0.679100        1.0080           
   33756 A    8439 TIP4 BD1  LP0     -1.358200        0.0000           
   33757 A    8440 TIP4 O1   OW0      0.000000       15.9990           
   33758 A    8440 TIP4 H1   HW0      0.679100        1.0080           
   33759 A    8440 TIP4 H2   HW0      0.679100        1.0080           
   33760 A    8440 TIP4 BD1  LP0     -1.358200        0.0000           
   33761 A    8441 TIP4 O1   OW0      0.000000       15.9990           
   33762 A    8441 TIP4 H1   HW0      0.679100        1.0080           
   33763 A    8441 TIP4 H2   HW0      0.679100        1.0080           
   33764 A    8441 TIP4 BD1  LP0     -1.358200        0.0000           
   33765 A    8442 TIP4 O1   OW0      0.000000       15.9990           
   33766 A    8442 TIP4 H1   HW0      0.679100        1.0080           
   33767 A    8442 TIP4 H2   HW0      0.679100        1.0080           
   33768 A    8442 TIP4 BD1  LP0     -1.358200        0.0000           
   33769 A    8443 TIP4 O1   OW0      0.000000       15.9990           
   33770 A    8443 TIP4 H1   HW0      0.679100        1.0080           
   33771 A    8443 TIP4 H2   HW0      0.679100        1.0080           
   33772 A    8443 TIP4 BD1  LP0     -1.358200        0.0000           
   33773 A    8444 TIP4 O1   OW0      0.000000       15.9990           
   33774 A    8444 TIP4 H1   HW0      0.679100        1.0080           
   33775 A    8444 TIP4 H2   HW0      0.679100        1.0080           
   33776 A    8444 TIP4 BD1  LP0     -1.358200        0.0000           
   33777 A    8445 TIP4 O1   OW0      0.000000       15.9990           
   33778 A    8445 TIP4 H1   HW0      0.679100        1.0080           
   33779 A    8445 TIP4 H2   HW0      0.679100        1.0080           
   33780 A    8445 TIP4 BD1  LP0     -1.358200        0.0000           
   33781 A    8446 TIP4 O1   OW0      0.000000       15.9990           
   33782 A    8446 TIP4 H1   HW0      0.679100        1.0080           
   33783 A    8446 TIP4 H2   HW0      0.679100        1.0080           
   33784 A    8446 TIP4 BD1  LP0     -1.358200        0.0000           
   33785 A    8447 TIP4 O1   OW0      0.000000       15.9990           
   33786 A    8447 TIP4 H1   HW0      0.679100        1.0080           
   33787 A    8447 TIP4 H2   HW0      0.679100        1.0080           
   33788 A    8447 TIP4 BD1  LP0     -1.358200        0.0000           
   33789 A    8448 TIP4 O1   OW0      0.000000       15.9990           
   33790 A    8448 TIP4 H1   HW0      0.679100        1.0080           
   33791 A    8448 TIP4 H2   HW0      0.679100        1.0080           
   33792 A    8448 TIP4 BD1  LP0     -1.358200        0.0000           
   33793 A    8449 TIP4 O1   OW0      0.000000       15.9990           
   33794 A    8449 TIP4 H1   HW0      0.679100        1.0080           
   33795 A    8449 TIP4 H2   HW0      0.679100        1.0080           
   33796 A    8449 TIP4 BD1  LP0     -1.358200        0.0000           
   33797 A    8450 TIP4 O1   OW0      0.000000       15.9990           
   33798 A    8450 TIP4 H1   HW0      0.679100        1.0080           
   33799 A    8450 TIP4 H2   HW0      0.679100        1.0080           
   33800 A    8450 TIP4 BD1  LP0     -1.358200        0.0000           
   33801 A    8451 TIP4 O1   OW0      0.000000       15.9990           
   33802 A    8451 TIP4 H1   HW0      0.679100        1.0080           
   33803 A    8451 TIP4 H2   HW0      0.679100        1.0080           
   33804 A    8451 TIP4 BD1  LP0     -1.358200        0.0000           
   33805 A    8452 TIP4 O1   OW0      0.000000       15.9990           
   33806 A    8452 TIP4 H1   HW0      0.679100        1.0080           
   33807 A    8452 TIP4 H2   HW0      0.679100        1.0080           
   33808 A    8452 TIP4 BD1  LP0     -1.358200        0.0000           
   33809 A    8453 TIP4 O1   OW0      0.000000       15.9990           
   33810 A    8453 TIP4 H1   HW0      0.679100        1.0080           
   33811 A    8453 TIP4 H2   HW0      0.679100        1.0080           
   33812 A    8453 TIP4 BD1  LP0     -1.358200        0.0000           
   33813 A    8454 TIP4 O1   OW0      0.000000       15.9990           
   33814 A    8454 TIP4 H1   HW0      0.679100        1.0080           
   33815 A    8454 TIP4 H2   HW0      0.679100        1.0080           
   33816 A    8454 TIP4 BD1  LP0     -1.358200        0.0000           
   33817 A    8455 TIP4 O1   OW0      0.000000       15.9990           
   33818 A    8455 TIP4 H1   HW0      0.679100        1.0080           
   33819 A    8455 TIP4 H2   HW0      0.679100        1.0080           
   33820 A    8455 TIP4 BD1  LP0     -1.358200        0.0000           
   33821 A    8456 TIP4 O1   OW0      0.000000       15.9990           
   33822 A    8456 TIP4 H1   HW0      0.679100        1.0080           
   33823 A    8456 TIP4 H2   HW0      0.679100        1.0080           
   33824 A    8456 TIP4 BD1  LP0     -1.358200        0.0000           
   33825 A    8457 TIP4 O1   OW0      0.000000       15.9990           
   33826 A    8457 TIP4 H1   HW0      0.679100        1.0080           
   33827 A    8457 TIP4 H2   HW0      0.679100        1.0080           
   33828 A    8457 TIP4 BD1  LP0     -1.358200        0.0000           
   33829 A    8458 TIP4 O1   OW0      0.000000       15.9990           
   33830 A    8458 TIP4 H1   HW0      0.679100        1.0080           
   33831 A    8458 TIP4 H2   HW0      0.679100        1.0080           
   33832 A    8458 TIP4 BD1  LP0     -1.358200        0.0000           
   33833 A    8459 TIP4 O1   OW0      0.000000       15.9990           
   33834 A    8459 TIP4 H1   HW0      0.679100        1.0080           
   33835 A    8459 TIP4 H2   HW0      0.679100        1.0080           
   33836 A    8459 TIP4 BD1  LP0     -1.358200        0.0000           
   33837 A    8460 TIP4 O1   OW0      0.000000       15.9990           
   33838 A    8460 TIP4 H1   HW0      0.679100        1.0080           
   33839 A    8460 TIP4 H2   HW0      0.679100        1.0080           
   33840 A    8460 TIP4 BD1  LP0     -1.358200        0.0000           
   33841 A    8461 TIP4 O1   OW0      0.000000       15.9990           
   33842 A    8461 TIP4 H1   HW0      0.679100        1.0080           
   33843 A    8461 TIP4 H2   HW0      0.679100        1.0080           
   33844 A    8461 TIP4 BD1  LP0     -1.358200        0.0000           
   33845 A    8462 TIP4 O1   OW0      0.000000       15.9990           
   33846 A    8462 TIP4 H1   HW0      0.679100        1.0080           
   33847 A    8462 TIP4 H2   HW0      0.679100        1.0080           
   33848 A    8462 TIP4 BD1  LP0     -1.358200        0.0000           
   33849 A    8463 TIP4 O1   OW0      0.000000       15.9990           
   33850 A    8463 TIP4 H1   HW0      0.679100        1.0080           
   33851 A    8463 TIP4 H2   HW0      0.679100        1.0080           
   33852 A    8463 TIP4 BD1  LP0     -1.358200        0.0000           
   33853 A    8464 TIP4 O1   OW0      0.000000       15.9990           
   33854 A    8464 TIP4 H1   HW0      0.679100        1.0080           
   33855 A    8464 TIP4 H2   HW0      0.679100        1.0080           
   33856 A    8464 TIP4 BD1  LP0     -1.358200        0.0000           
   33857 A    8465 TIP4 O1   OW0      0.000000       15.9990           
   33858 A    8465 TIP4 H1   HW0      0.679100        1.0080           
   33859 A    8465 TIP4 H2   HW0      0.679100        1.0080           
   33860 A    8465 TIP4 BD1  LP0     -1.358200        0.0000           
   33861 A    8466 TIP4 O1   OW0      0.000000       15.9990           
   33862 A    8466 TIP4 H1   HW0      0.679100        1.0080           
   33863 A    8466 TIP4 H2   HW0      0.679100        1.0080           
   33864 A    8466 TIP4 BD1  LP0     -1.358200        0.0000           
   33865 A    8467 TIP4 O1   OW0      0.000000       15.9990           
   33866 A    8467 TIP4 H1   HW0      0.679100        1.0080           
   33867 A    8467 TIP4 H2   HW0      0.679100        1.0080           
   33868 A    8467 TIP4 BD1  LP0     -1.358200        0.0000           
   33869 A    8468 TIP4 O1   OW0      0.000000       15.9990           
   33870 A    8468 TIP4 H1   HW0      0.679100        1.0080           
   33871 A    8468 TIP4 H2   HW0      0.679100        1.0080           
   33872 A    8468 TIP4 BD1  LP0     -1.358200        0.0000           
   33873 A    8469 TIP4 O1   OW0      0.000000       15.9990           
   33874 A    8469 TIP4 H1   HW0      0.679100        1.0080           
   33875 A    8469 TIP4 H2   HW0      0.679100        1.0080           
   33876 A    8469 TIP4 BD1  LP0     -1.358200        0.0000           
   33877 A    8470 TIP4 O1   OW0      0.000000       15.9990           
   33878 A    8470 TIP4 H1   HW0      0.679100        1.0080           
   33879 A    8470 TIP4 H2   HW0      0.679100        1.0080           
   33880 A    8470 TIP4 BD1  LP0     -1.358200        0.0000           
   33881 A    8471 TIP4 O1   OW0      0.000000       15.9990           
   33882 A    8471 TIP4 H1   HW0      0.679100        1.0080           
   33883 A    8471 TIP4 H2   HW0      0.679100        1.0080           
   33884 A    8471 TIP4 BD1  LP0     -1.358200        0.0000           
   33885 A    8472 TIP4 O1   OW0      0.000000       15.9990           
   33886 A    8472 TIP4 H1   HW0      0.679100        1.0080           
   33887 A    8472 TIP4 H2   HW0      0.679100        1.0080           
   33888 A    8472 TIP4 BD1  LP0     -1.358200        0.0000           
   33889 A    8473 TIP4 O1   OW0      0.000000       15.9990           
   33890 A    8473 TIP4 H1   HW0      0.679100        1.0080           
   33891 A    8473 TIP4 H2   HW0      0.679100        1.0080           
   33892 A    8473 TIP4 BD1  LP0     -1.358200        0.0000           
   33893 A    8474 TIP4 O1   OW0      0.000000       15.9990           
   33894 A    8474 TIP4 H1   HW0      0.679100        1.0080           
   33895 A    8474 TIP4 H2   HW0      0.679100        1.0080           
   33896 A    8474 TIP4 BD1  LP0     -1.358200        0.0000           
   33897 A    8475 TIP4 O1   OW0      0.000000       15.9990           
   33898 A    8475 TIP4 H1   HW0      0.679100        1.0080           
   33899 A    8475 TIP4 H2   HW0      0.679100        1.0080           
   33900 A    8475 TIP4 BD1  LP0     -1.358200        0.0000           
   33901 A    8476 TIP4 O1   OW0      0.000000       15.9990           
   33902 A    8476 TIP4 H1   HW0      0.679100        1.0080           
   33903 A    8476 TIP4 H2   HW0      0.679100        1.0080           
   33904 A    8476 TIP4 BD1  LP0     -1.358200        0.0000           
   33905 A    8477 TIP4 O1   OW0      0.000000       15.9990           
   33906 A    8477 TIP4 H1   HW0      0.679100        1.0080           
   33907 A    8477 TIP4 H2   HW0      0.679100        1.0080           
   33908 A    8477 TIP4 BD1  LP0     -1.358200        0.0000           
   33909 A    8478 TIP4 O1   OW0      0.000000       15.9990           
   33910 A    8478 TIP4 H1   HW0      0.679100        1.0080           
   33911 A    8478 TIP4 H2   HW0      0.679100        1.0080           
   33912 A    8478 TIP4 BD1  LP0     -1.358200        0.0000           
   33913 A    8479 TIP4 O1   OW0      0.000000       15.9990           
   33914 A    8479 TIP4 H1   HW0      0.679100        1.0080           
   33915 A    8479 TIP4 H2   HW0      0.679100        1.0080           
   33916 A    8479 TIP4 BD1  LP0     -1.358200        0.0000           
   33917 A    8480 TIP4 O1   OW0      0.000000       15.9990           
   33918 A    8480 TIP4 H1   HW0      0.679100        1.0080           
   33919 A    8480 TIP4 H2   HW0      0.679100        1.0080           
   33920 A    8480 TIP4 BD1  LP0     -1.358200        0.0000           
   33921 A    8481 TIP4 O1   OW0      0.000000       15.9990           
   33922 A    8481 TIP4 H1   HW0      0.679100        1.0080           
   33923 A    8481 TIP4 H2   HW0      0.679100        1.0080           
   33924 A    8481 TIP4 BD1  LP0     -1.358200        0.0000           
   33925 A    8482 TIP4 O1   OW0      0.000000       15.9990           
   33926 A    8482 TIP4 H1   HW0      0.679100        1.0080           
   33927 A    8482 TIP4 H2   HW0      0.679100        1.0080           
   33928 A    8482 TIP4 BD1  LP0     -1.358200        0.0000           
   33929 A    8483 TIP4 O1   OW0      0.000000       15.9990           
   33930 A    8483 TIP4 H1   HW0      0.679100        1.0080           
   33931 A    8483 TIP4 H2   HW0      0.679100        1.0080           
   33932 A    8483 TIP4 BD1  LP0     -1.358200        0.0000           
   33933 A    8484 TIP4 O1   OW0      0.000000       15.9990           
   33934 A    8484 TIP4 H1   HW0      0.679100        1.0080           
   33935 A    8484 TIP4 H2   HW0      0.679100        1.0080           
   33936 A    8484 TIP4 BD1  LP0     -1.358200        0.0000           
   33937 A    8485 TIP4 O1   OW0      0.000000       15.9990           
   33938 A    8485 TIP4 H1   HW0      0.679100        1.0080           
   33939 A    8485 TIP4 H2   HW0      0.679100        1.0080           
   33940 A    8485 TIP4 BD1  LP0     -1.358200        0.0000           
   33941 A    8486 TIP4 O1   OW0      0.000000       15.9990           
   33942 A    8486 TIP4 H1   HW0      0.679100        1.0080           
   33943 A    8486 TIP4 H2   HW0      0.679100        1.0080           
   33944 A    8486 TIP4 BD1  LP0     -1.358200        0.0000           
   33945 A    8487 TIP4 O1   OW0      0.000000       15.9990           
   33946 A    8487 TIP4 H1   HW0      0.679100        1.0080           
   33947 A    8487 TIP4 H2   HW0      0.679100        1.0080           
   33948 A    8487 TIP4 BD1  LP0     -1.358200        0.0000           
   33949 A    8488 TIP4 O1   OW0      0.000000       15.9990           
   33950 A    8488 TIP4 H1   HW0      0.679100        1.0080           
   33951 A    8488 TIP4 H2   HW0      0.679100        1.0080           
   33952 A    8488 TIP4 BD1  LP0     -1.358200        0.0000           
   33953 A    8489 TIP4 O1   OW0      0.000000       15.9990           
   33954 A    8489 TIP4 H1   HW0      0.679100        1.0080           
   33955 A    8489 TIP4 H2   HW0      0.679100        1.0080           
   33956 A    8489 TIP4 BD1  LP0     -1.358200        0.0000           
   33957 A    8490 TIP4 O1   OW0      0.000000       15.9990           
   33958 A    8490 TIP4 H1   HW0      0.679100        1.0080           
   33959 A    8490 TIP4 H2   HW0      0.679100        1.0080           
   33960 A    8490 TIP4 BD1  LP0     -1.358200        0.0000           
   33961 A    8491 TIP4 O1   OW0      0.000000       15.9990           
   33962 A    8491 TIP4 H1   HW0      0.679100        1.0080           
   33963 A    8491 TIP4 H2   HW0      0.679100        1.0080           
   33964 A    8491 TIP4 BD1  LP0     -1.358200        0.0000           
   33965 A    8492 TIP4 O1   OW0      0.000000       15.9990           
   33966 A    8492 TIP4 H1   HW0      0.679100        1.0080           
   33967 A    8492 TIP4 H2   HW0      0.679100        1.0080           
   33968 A    8492 TIP4 BD1  LP0     -1.358200        0.0000           
   33969 A    8493 TIP4 O1   OW0      0.000000       15.9990           
   33970 A    8493 TIP4 H1   HW0      0.679100        1.0080           
   33971 A    8493 TIP4 H2   HW0      0.679100        1.0080           
   33972 A    8493 TIP4 BD1  LP0     -1.358200        0.0000           
   33973 A    8494 TIP4 O1   OW0      0.000000       15.9990           
   33974 A    8494 TIP4 H1   HW0      0.679100        1.0080           
   33975 A    8494 TIP4 H2   HW0      0.679100        1.0080           
   33976 A    8494 TIP4 BD1  LP0     -1.358200        0.0000           
   33977 A    8495 TIP4 O1   OW0      0.000000       15.9990           
   33978 A    8495 TIP4 H1   HW0      0.679100        1.0080           
   33979 A    8495 TIP4 H2   HW0      0.679100        1.0080           
   33980 A    8495 TIP4 BD1  LP0     -1.358200        0.0000           
   33981 A    8496 TIP4 O1   OW0      0.000000       15.9990           
   33982 A    8496 TIP4 H1   HW0      0.679100        1.0080           
   33983 A    8496 TIP4 H2   HW0      0.679100        1.0080           
   33984 A    8496 TIP4 BD1  LP0     -1.358200        0.0000           
   33985 A    8497 TIP4 O1   OW0      0.000000       15.9990           
   33986 A    8497 TIP4 H1   HW0      0.679100        1.0080           
   33987 A    8497 TIP4 H2   HW0      0.679100        1.0080           
   33988 A    8497 TIP4 BD1  LP0     -1.358200        0.0000           
   33989 A    8498 TIP4 O1   OW0      0.000000       15.9990           
   33990 A    8498 TIP4 H1   HW0      0.679100        1.0080           
   33991 A    8498 TIP4 H2   HW0      0.679100        1.0080           
   33992 A    8498 TIP4 BD1  LP0     -1.358200        0.0000           
   33993 A    8499 TIP4 O1   OW0      0.000000       15.9990           
   33994 A    8499 TIP4 H1   HW0      0.679100        1.0080           
   33995 A    8499 TIP4 H2   HW0      0.679100        1.0080           
   33996 A    8499 TIP4 BD1  LP0     -1.358200        0.0000           
   33997 A    8500 TIP4 O1   OW0      0.000000       15.9990           
   33998 A    8500 TIP4 H1   HW0      0.679100        1.0080           
   33999 A    8500 TIP4 H2   HW0      0.679100        1.0080           
   34000 A    8500 TIP4 BD1  LP0     -1.358200        0.0000           
   34001 A    8501 TIP4 O1   OW0      0.000000       15.9990           
   34002 A    8501 TIP4 H1   HW0      0.679100        1.0080           
   34003 A    8501 TIP4 H2   HW0      0.679100        1.0080           
   34004 A    8501 TIP4 BD1  LP0     -1.358200        0.0000           
   34005 A    8502 TIP4 O1   OW0      0.000000       15.9990           
   34006 A    8502 TIP4 H1   HW0      0.679100        1.0080           
   34007 A    8502 TIP4 H2   HW0      0.679100        1.0080           
   34008 A    8502 TIP4 BD1  LP0     -1.358200        0.0000           
   34009 A    8503 TIP4 O1   OW0      0.000000       15.9990           
   34010 A    8503 TIP4 H1   HW0      0.679100        1.0080           
   34011 A    8503 TIP4 H2   HW0      0.679100        1.0080           
   34012 A    8503 TIP4 BD1  LP0     -1.358200        0.0000           
   34013 A    8504 TIP4 O1   OW0      0.000000       15.9990           
   34014 A    8504 TIP4 H1   HW0      0.679100        1.0080           
   34015 A    8504 TIP4 H2   HW0      0.679100        1.0080           
   34016 A    8504 TIP4 BD1  LP0     -1.358200        0.0000           
   34017 A    8505 TIP4 O1   OW0      0.000000       15.9990           
   34018 A    8505 TIP4 H1   HW0      0.679100        1.0080           
   34019 A    8505 TIP4 H2   HW0      0.679100        1.0080           
   34020 A    8505 TIP4 BD1  LP0     -1.358200        0.0000           
   34021 A    8506 TIP4 O1   OW0      0.000000       15.9990           
   34022 A    8506 TIP4 H1   HW0      0.679100        1.0080           
   34023 A    8506 TIP4 H2   HW0      0.679100        1.0080           
   34024 A    8506 TIP4 BD1  LP0     -1.358200        0.0000           
   34025 A    8507 TIP4 O1   OW0      0.000000       15.9990           
   34026 A    8507 TIP4 H1   HW0      0.679100        1.0080           
   34027 A    8507 TIP4 H2   HW0      0.679100        1.0080           
   34028 A    8507 TIP4 BD1  LP0     -1.358200        0.0000           
   34029 A    8508 TIP4 O1   OW0      0.000000       15.9990           
   34030 A    8508 TIP4 H1   HW0      0.679100        1.0080           
   34031 A    8508 TIP4 H2   HW0      0.679100        1.0080           
   34032 A    8508 TIP4 BD1  LP0     -1.358200        0.0000           
   34033 A    8509 TIP4 O1   OW0      0.000000       15.9990           
   34034 A    8509 TIP4 H1   HW0      0.679100        1.0080           
   34035 A    8509 TIP4 H2   HW0      0.679100        1.0080           
   34036 A    8509 TIP4 BD1  LP0     -1.358200        0.0000           
   34037 A    8510 TIP4 O1   OW0      0.000000       15.9990           
   34038 A    8510 TIP4 H1   HW0      0.679100        1.0080           
   34039 A    8510 TIP4 H2   HW0      0.679100        1.0080           
   34040 A    8510 TIP4 BD1  LP0     -1.358200        0.0000           
   34041 A    8511 TIP4 O1   OW0      0.000000       15.9990           
   34042 A    8511 TIP4 H1   HW0      0.679100        1.0080           
   34043 A    8511 TIP4 H2   HW0      0.679100        1.0080           
   34044 A    8511 TIP4 BD1  LP0     -1.358200        0.0000           
   34045 A    8512 TIP4 O1   OW0      0.000000       15.9990           
   34046 A    8512 TIP4 H1   HW0      0.679100        1.0080           
   34047 A    8512 TIP4 H2   HW0      0.679100        1.0080           
   34048 A    8512 TIP4 BD1  LP0     -1.358200        0.0000           
   34049 A    8513 TIP4 O1   OW0      0.000000       15.9990           
   34050 A    8513 TIP4 H1   HW0      0.679100        1.0080           
   34051 A    8513 TIP4 H2   HW0      0.679100        1.0080           
   34052 A    8513 TIP4 BD1  LP0     -1.358200        0.0000           
   34053 A    8514 TIP4 O1   OW0      0.000000       15.9990           
   34054 A    8514 TIP4 H1   HW0      0.679100        1.0080           
   34055 A    8514 TIP4 H2   HW0      0.679100        1.0080           
   34056 A    8514 TIP4 BD1  LP0     -1.358200        0.0000           
   34057 A    8515 TIP4 O1   OW0      0.000000       15.9990           
   34058 A    8515 TIP4 H1   HW0      0.679100        1.0080           
   34059 A    8515 TIP4 H2   HW0      0.679100        1.0080           
   34060 A    8515 TIP4 BD1  LP0     -1.358200        0.0000           
   34061 A    8516 TIP4 O1   OW0      0.000000       15.9990           
   34062 A    8516 TIP4 H1   HW0      0.679100        1.0080           
   34063 A    8516 TIP4 H2   HW0      0.679100        1.0080           
   34064 A    8516 TIP4 BD1  LP0     -1.358200        0.0000           
   34065 A    8517 TIP4 O1   OW0      0.000000       15.9990           
   34066 A    8517 TIP4 H1   HW0      0.679100        1.0080           
   34067 A    8517 TIP4 H2   HW0      0.679100        1.0080           
   34068 A    8517 TIP4 BD1  LP0     -1.358200        0.0000           
   34069 A    8518 TIP4 O1   OW0      0.000000       15.9990           
   34070 A    8518 TIP4 H1   HW0      0.679100        1.0080           
   34071 A    8518 TIP4 H2   HW0      0.679100        1.0080           
   34072 A    8518 TIP4 BD1  LP0     -1.358200        0.0000           
   34073 A    8519 TIP4 O1   OW0      0.000000       15.9990           
   34074 A    8519 TIP4 H1   HW0      0.679100        1.0080           
   34075 A    8519 TIP4 H2   HW0      0.679100        1.0080           
   34076 A    8519 TIP4 BD1  LP0     -1.358200        0.0000           
   34077 A    8520 TIP4 O1   OW0      0.000000       15.9990           
   34078 A    8520 TIP4 H1   HW0      0.679100        1.0080           
   34079 A    8520 TIP4 H2   HW0      0.679100        1.0080           
   34080 A    8520 TIP4 BD1  LP0     -1.358200        0.0000           
   34081 A    8521 TIP4 O1   OW0      0.000000       15.9990           
   34082 A    8521 TIP4 H1   HW0      0.679100        1.0080           
   34083 A    8521 TIP4 H2   HW0      0.679100        1.0080           
   34084 A    8521 TIP4 BD1  LP0     -1.358200        0.0000           
   34085 A    8522 TIP4 O1   OW0      0.000000       15.9990           
   34086 A    8522 TIP4 H1   HW0      0.679100        1.0080           
   34087 A    8522 TIP4 H2   HW0      0.679100        1.0080           
   34088 A    8522 TIP4 BD1  LP0     -1.358200        0.0000           
   34089 A    8523 TIP4 O1   OW0      0.000000       15.9990           
   34090 A    8523 TIP4 H1   HW0      0.679100        1.0080           
   34091 A    8523 TIP4 H2   HW0      0.679100        1.0080           
   34092 A    8523 TIP4 BD1  LP0     -1.358200        0.0000           
   34093 A    8524 TIP4 O1   OW0      0.000000       15.9990           
   34094 A    8524 TIP4 H1   HW0      0.679100        1.0080           
   34095 A    8524 TIP4 H2   HW0      0.679100        1.0080           
   34096 A    8524 TIP4 BD1  LP0     -1.358200        0.0000           
   34097 A    8525 TIP4 O1   OW0      0.000000       15.9990           
   34098 A    8525 TIP4 H1   HW0      0.679100        1.0080           
   34099 A    8525 TIP4 H2   HW0      0.679100        1.0080           
   34100 A    8525 TIP4 BD1  LP0     -1.358200        0.0000           
   34101 A    8526 TIP4 O1   OW0      0.000000       15.9990           
   34102 A    8526 TIP4 H1   HW0      0.679100        1.0080           
   34103 A    8526 TIP4 H2   HW0      0.679100        1.0080           
   34104 A    8526 TIP4 BD1  LP0     -1.358200        0.0000           
   34105 A    8527 TIP4 O1   OW0      0.000000       15.9990           
   34106 A    8527 TIP4 H1   HW0      0.679100        1.0080           
   34107 A    8527 TIP4 H2   HW0      0.679100        1.0080           
   34108 A    8527 TIP4 BD1  LP0     -1.358200        0.0000           
   34109 A    8528 TIP4 O1   OW0      0.000000       15.9990           
   34110 A    8528 TIP4 H1   HW0      0.679100        1.0080           
   34111 A    8528 TIP4 H2   HW0      0.679100        1.0080           
   34112 A    8528 TIP4 BD1  LP0     -1.358200        0.0000           
   34113 A    8529 TIP4 O1   OW0      0.000000       15.9990           
   34114 A    8529 TIP4 H1   HW0      0.679100        1.0080           
   34115 A    8529 TIP4 H2   HW0      0.679100        1.0080           
   34116 A    8529 TIP4 BD1  LP0     -1.358200        0.0000           
   34117 A    8530 TIP4 O1   OW0      0.000000       15.9990           
   34118 A    8530 TIP4 H1   HW0      0.679100        1.0080           
   34119 A    8530 TIP4 H2   HW0      0.679100        1.0080           
   34120 A    8530 TIP4 BD1  LP0     -1.358200        0.0000           
   34121 A    8531 TIP4 O1   OW0      0.000000       15.9990           
   34122 A    8531 TIP4 H1   HW0      0.679100        1.0080           
   34123 A    8531 TIP4 H2   HW0      0.679100        1.0080           
   34124 A    8531 TIP4 BD1  LP0     -1.358200        0.0000           
   34125 A    8532 TIP4 O1   OW0      0.000000       15.9990           
   34126 A    8532 TIP4 H1   HW0      0.679100        1.0080           
   34127 A    8532 TIP4 H2   HW0      0.679100        1.0080           
   34128 A    8532 TIP4 BD1  LP0     -1.358200        0.0000           
   34129 A    8533 TIP4 O1   OW0      0.000000       15.9990           
   34130 A    8533 TIP4 H1   HW0      0.679100        1.0080           
   34131 A    8533 TIP4 H2   HW0      0.679100        1.0080           
   34132 A    8533 TIP4 BD1  LP0     -1.358200        0.0000           
   34133 A    8534 TIP4 O1   OW0      0.000000       15.9990           
   34134 A    8534 TIP4 H1   HW0      0.679100        1.0080           
   34135 A    8534 TIP4 H2   HW0      0.679100        1.0080           
   34136 A    8534 TIP4 BD1  LP0     -1.358200        0.0000           
   34137 A    8535 TIP4 O1   OW0      0.000000       15.9990           
   34138 A    8535 TIP4 H1   HW0      0.679100        1.0080           
   34139 A    8535 TIP4 H2   HW0      0.679100        1.0080           
   34140 A    8535 TIP4 BD1  LP0     -1.358200        0.0000           
   34141 A    8536 TIP4 O1   OW0      0.000000       15.9990           
   34142 A    8536 TIP4 H1   HW0      0.679100        1.0080           
   34143 A    8536 TIP4 H2   HW0      0.679100        1.0080           
   34144 A    8536 TIP4 BD1  LP0     -1.358200        0.0000           
   34145 A    8537 TIP4 O1   OW0      0.000000       15.9990           
   34146 A    8537 TIP4 H1   HW0      0.679100        1.0080           
   34147 A    8537 TIP4 H2   HW0      0.679100        1.0080           
   34148 A    8537 TIP4 BD1  LP0     -1.358200        0.0000           
   34149 A    8538 TIP4 O1   OW0      0.000000       15.9990           
   34150 A    8538 TIP4 H1   HW0      0.679100        1.0080           
   34151 A    8538 TIP4 H2   HW0      0.679100        1.0080           
   34152 A    8538 TIP4 BD1  LP0     -1.358200        0.0000           
   34153 A    8539 TIP4 O1   OW0      0.000000       15.9990           
   34154 A    8539 TIP4 H1   HW0      0.679100        1.0080           
   34155 A    8539 TIP4 H2   HW0      0.679100        1.0080           
   34156 A    8539 TIP4 BD1  LP0     -1.358200        0.0000           
   34157 A    8540 TIP4 O1   OW0      0.000000       15.9990           
   34158 A    8540 TIP4 H1   HW0      0.679100        1.0080           
   34159 A    8540 TIP4 H2   HW0      0.679100        1.0080           
   34160 A    8540 TIP4 BD1  LP0     -1.358200        0.0000           
   34161 A    8541 TIP4 O1   OW0      0.000000       15.9990           
   34162 A    8541 TIP4 H1   HW0      0.679100        1.0080           
   34163 A    8541 TIP4 H2   HW0      0.679100        1.0080           
   34164 A    8541 TIP4 BD1  LP0     -1.358200        0.0000           
   34165 A    8542 TIP4 O1   OW0      0.000000       15.9990           
   34166 A    8542 TIP4 H1   HW0      0.679100        1.0080           
   34167 A    8542 TIP4 H2   HW0      0.679100        1.0080           
   34168 A    8542 TIP4 BD1  LP0     -1.358200        0.0000           
   34169 A    8543 TIP4 O1   OW0      0.000000       15.9990           
   34170 A    8543 TIP4 H1   HW0      0.679100        1.0080           
   34171 A    8543 TIP4 H2   HW0      0.679100        1.0080           
   34172 A    8543 TIP4 BD1  LP0     -1.358200        0.0000           
   34173 A    8544 TIP4 O1   OW0      0.000000       15.9990           
   34174 A    8544 TIP4 H1   HW0      0.679100        1.0080           
   34175 A    8544 TIP4 H2   HW0      0.679100        1.0080           
   34176 A    8544 TIP4 BD1  LP0     -1.358200        0.0000           
   34177 A    8545 TIP4 O1   OW0      0.000000       15.9990           
   34178 A    8545 TIP4 H1   HW0      0.679100        1.0080           
   34179 A    8545 TIP4 H2   HW0      0.679100        1.0080           
   34180 A    8545 TIP4 BD1  LP0     -1.358200        0.0000           
   34181 A    8546 TIP4 O1   OW0      0.000000       15.9990           
   34182 A    8546 TIP4 H1   HW0      0.679100        1.0080           
   34183 A    8546 TIP4 H2   HW0      0.679100        1.0080           
   34184 A    8546 TIP4 BD1  LP0     -1.358200        0.0000           
   34185 A    8547 TIP4 O1   OW0      0.000000       15.9990           
   34186 A    8547 TIP4 H1   HW0      0.679100        1.0080           
   34187 A    8547 TIP4 H2   HW0      0.679100        1.0080           
   34188 A    8547 TIP4 BD1  LP0     -1.358200        0.0000           
   34189 A    8548 TIP4 O1   OW0      0.000000       15.9990           
   34190 A    8548 TIP4 H1   HW0      0.679100        1.0080           
   34191 A    8548 TIP4 H2   HW0      0.679100        1.0080           
   34192 A    8548 TIP4 BD1  LP0     -1.358200        0.0000           
   34193 A    8549 TIP4 O1   OW0      0.000000       15.9990           
   34194 A    8549 TIP4 H1   HW0      0.679100        1.0080           
   34195 A    8549 TIP4 H2   HW0      0.679100        1.0080           
   34196 A    8549 TIP4 BD1  LP0     -1.358200        0.0000           
   34197 A    8550 TIP4 O1   OW0      0.000000       15.9990           
   34198 A    8550 TIP4 H1   HW0      0.679100        1.0080           
   34199 A    8550 TIP4 H2   HW0      0.679100        1.0080           
   34200 A    8550 TIP4 BD1  LP0     -1.358200        0.0000           
   34201 A    8551 TIP4 O1   OW0      0.000000       15.9990           
   34202 A    8551 TIP4 H1   HW0      0.679100        1.0080           
   34203 A    8551 TIP4 H2   HW0      0.679100        1.0080           
   34204 A    8551 TIP4 BD1  LP0     -1.358200        0.0000           
   34205 A    8552 TIP4 O1   OW0      0.000000       15.9990           
   34206 A    8552 TIP4 H1   HW0      0.679100        1.0080           
   34207 A    8552 TIP4 H2   HW0      0.679100        1.0080           
   34208 A    8552 TIP4 BD1  LP0     -1.358200        0.0000           
   34209 A    8553 TIP4 O1   OW0      0.000000       15.9990           
   34210 A    8553 TIP4 H1   HW0      0.679100        1.0080           
   34211 A    8553 TIP4 H2   HW0      0.679100        1.0080           
   34212 A    8553 TIP4 BD1  LP0     -1.358200        0.0000           
   34213 A    8554 TIP4 O1   OW0      0.000000       15.9990           
   34214 A    8554 TIP4 H1   HW0      0.679100        1.0080           
   34215 A    8554 TIP4 H2   HW0      0.679100        1.0080           
   34216 A    8554 TIP4 BD1  LP0     -1.358200        0.0000           
   34217 A    8555 TIP4 O1   OW0      0.000000       15.9990           
   34218 A    8555 TIP4 H1   HW0      0.679100        1.0080           
   34219 A    8555 TIP4 H2   HW0      0.679100        1.0080           
   34220 A    8555 TIP4 BD1  LP0     -1.358200        0.0000           
   34221 A    8556 TIP4 O1   OW0      0.000000       15.9990           
   34222 A    8556 TIP4 H1   HW0      0.679100        1.0080           
   34223 A    8556 TIP4 H2   HW0      0.679100        1.0080           
   34224 A    8556 TIP4 BD1  LP0     -1.358200        0.0000           
   34225 A    8557 TIP4 O1   OW0      0.000000       15.9990           
   34226 A    8557 TIP4 H1   HW0      0.679100        1.0080           
   34227 A    8557 TIP4 H2   HW0      0.679100        1.0080           
   34228 A    8557 TIP4 BD1  LP0     -1.358200        0.0000           
   34229 A    8558 TIP4 O1   OW0      0.000000       15.9990           
   34230 A    8558 TIP4 H1   HW0      0.679100        1.0080           
   34231 A    8558 TIP4 H2   HW0      0.679100        1.0080           
   34232 A    8558 TIP4 BD1  LP0     -1.358200        0.0000           
   34233 A    8559 TIP4 O1   OW0      0.000000       15.9990           
   34234 A    8559 TIP4 H1   HW0      0.679100        1.0080           
   34235 A    8559 TIP4 H2   HW0      0.679100        1.0080           
   34236 A    8559 TIP4 BD1  LP0     -1.358200        0.0000           
   34237 A    8560 TIP4 O1   OW0      0.000000       15.9990           
   34238 A    8560 TIP4 H1   HW0      0.679100        1.0080           
   34239 A    8560 TIP4 H2   HW0      0.679100        1.0080           
   34240 A    8560 TIP4 BD1  LP0     -1.358200        0.0000           
   34241 A    8561 TIP4 O1   OW0      0.000000       15.9990           
   34242 A    8561 TIP4 H1   HW0      0.679100        1.0080           
   34243 A    8561 TIP4 H2   HW0      0.679100        1.0080           
   34244 A    8561 TIP4 BD1  LP0     -1.358200        0.0000           
   34245 A    8562 TIP4 O1   OW0      0.000000       15.9990           
   34246 A    8562 TIP4 H1   HW0      0.679100        1.0080           
   34247 A    8562 TIP4 H2   HW0      0.679100        1.0080           
   34248 A    8562 TIP4 BD1  LP0     -1.358200        0.0000           
   34249 A    8563 TIP4 O1   OW0      0.000000       15.9990           
   34250 A    8563 TIP4 H1   HW0      0.679100        1.0080           
   34251 A    8563 TIP4 H2   HW0      0.679100        1.0080           
   34252 A    8563 TIP4 BD1  LP0     -1.358200        0.0000           
   34253 A    8564 TIP4 O1   OW0      0.000000       15.9990           
   34254 A    8564 TIP4 H1   HW0      0.679100        1.0080           
   34255 A    8564 TIP4 H2   HW0      0.679100        1.0080           
   34256 A    8564 TIP4 BD1  LP0     -1.358200        0.0000           
   34257 A    8565 TIP4 O1   OW0      0.000000       15.9990           
   34258 A    8565 TIP4 H1   HW0      0.679100        1.0080           
   34259 A    8565 TIP4 H2   HW0      0.679100        1.0080           
   34260 A    8565 TIP4 BD1  LP0     -1.358200        0.0000           
   34261 A    8566 TIP4 O1   OW0      0.000000       15.9990           
   34262 A    8566 TIP4 H1   HW0      0.679100        1.0080           
   34263 A    8566 TIP4 H2   HW0      0.679100        1.0080           
   34264 A    8566 TIP4 BD1  LP0     -1.358200        0.0000           
   34265 A    8567 TIP4 O1   OW0      0.000000       15.9990           
   34266 A    8567 TIP4 H1   HW0      0.679100        1.0080           
   34267 A    8567 TIP4 H2   HW0      0.679100        1.0080           
   34268 A    8567 TIP4 BD1  LP0     -1.358200        0.0000           
   34269 A    8568 TIP4 O1   OW0      0.000000       15.9990           
   34270 A    8568 TIP4 H1   HW0      0.679100        1.0080           
   34271 A    8568 TIP4 H2   HW0      0.679100        1.0080           
   34272 A    8568 TIP4 BD1  LP0     -1.358200        0.0000           
   34273 A    8569 TIP4 O1   OW0      0.000000       15.9990           
   34274 A    8569 TIP4 H1   HW0      0.679100        1.0080           
   34275 A    8569 TIP4 H2   HW0      0.679100        1.0080           
   34276 A    8569 TIP4 BD1  LP0     -1.358200        0.0000           
   34277 A    8570 TIP4 O1   OW0      0.000000       15.9990           
   34278 A    8570 TIP4 H1   HW0      0.679100        1.0080           
   34279 A    8570 TIP4 H2   HW0      0.679100        1.0080           
   34280 A    8570 TIP4 BD1  LP0     -1.358200        0.0000           
   34281 A    8571 TIP4 O1   OW0      0.000000       15.9990           
   34282 A    8571 TIP4 H1   HW0      0.679100        1.0080           
   34283 A    8571 TIP4 H2   HW0      0.679100        1.0080           
   34284 A    8571 TIP4 BD1  LP0     -1.358200        0.0000           
   34285 A    8572 TIP4 O1   OW0      0.000000       15.9990           
   34286 A    8572 TIP4 H1   HW0      0.679100        1.0080           
   34287 A    8572 TIP4 H2   HW0      0.679100        1.0080           
   34288 A    8572 TIP4 BD1  LP0     -1.358200        0.0000           
   34289 A    8573 TIP4 O1   OW0      0.000000       15.9990           
   34290 A    8573 TIP4 H1   HW0      0.679100        1.0080           
   34291 A    8573 TIP4 H2   HW0      0.679100        1.0080           
   34292 A    8573 TIP4 BD1  LP0     -1.358200        0.0000           
   34293 A    8574 TIP4 O1   OW0      0.000000       15.9990           
   34294 A    8574 TIP4 H1   HW0      0.679100        1.0080           
   34295 A    8574 TIP4 H2   HW0      0.679100        1.0080           
   34296 A    8574 TIP4 BD1  LP0     -1.358200        0.0000           
   34297 A    8575 TIP4 O1   OW0      0.000000       15.9990           
   34298 A    8575 TIP4 H1   HW0      0.679100        1.0080           
   34299 A    8575 TIP4 H2   HW0      0.679100        1.0080           
   34300 A    8575 TIP4 BD1  LP0     -1.358200        0.0000           
   34301 A    8576 TIP4 O1   OW0      0.000000       15.9990           
   34302 A    8576 TIP4 H1   HW0      0.679100        1.0080           
   34303 A    8576 TIP4 H2   HW0      0.679100        1.0080           
   34304 A    8576 TIP4 BD1  LP0     -1.358200        0.0000           
   34305 A    8577 TIP4 O1   OW0      0.000000       15.9990           
   34306 A    8577 TIP4 H1   HW0      0.679100        1.0080           
   34307 A    8577 TIP4 H2   HW0      0.679100        1.0080           
   34308 A    8577 TIP4 BD1  LP0     -1.358200        0.0000           
   34309 A    8578 TIP4 O1   OW0      0.000000       15.9990           
   34310 A    8578 TIP4 H1   HW0      0.679100        1.0080           
   34311 A    8578 TIP4 H2   HW0      0.679100        1.0080           
   34312 A    8578 TIP4 BD1  LP0     -1.358200        0.0000           
   34313 A    8579 TIP4 O1   OW0      0.000000       15.9990           
   34314 A    8579 TIP4 H1   HW0      0.679100        1.0080           
   34315 A    8579 TIP4 H2   HW0      0.679100        1.0080           
   34316 A    8579 TIP4 BD1  LP0     -1.358200        0.0000           
   34317 A    8580 TIP4 O1   OW0      0.000000       15.9990           
   34318 A    8580 TIP4 H1   HW0      0.679100        1.0080           
   34319 A    8580 TIP4 H2   HW0      0.679100        1.0080           
   34320 A    8580 TIP4 BD1  LP0     -1.358200        0.0000           
   34321 A    8581 TIP4 O1   OW0      0.000000       15.9990           
   34322 A    8581 TIP4 H1   HW0      0.679100        1.0080           
   34323 A    8581 TIP4 H2   HW0      0.679100        1.0080           
   34324 A    8581 TIP4 BD1  LP0     -1.358200        0.0000           
   34325 A    8582 TIP4 O1   OW0      0.000000       15.9990           
   34326 A    8582 TIP4 H1   HW0      0.679100        1.0080           
   34327 A    8582 TIP4 H2   HW0      0.679100        1.0080           
   34328 A    8582 TIP4 BD1  LP0     -1.358200        0.0000           
   34329 A    8583 TIP4 O1   OW0      0.000000       15.9990           
   34330 A    8583 TIP4 H1   HW0      0.679100        1.0080           
   34331 A    8583 TIP4 H2   HW0      0.679100        1.0080           
   34332 A    8583 TIP4 BD1  LP0     -1.358200        0.0000           
   34333 A    8584 TIP4 O1   OW0      0.000000       15.9990           
   34334 A    8584 TIP4 H1   HW0      0.679100        1.0080           
   34335 A    8584 TIP4 H2   HW0      0.679100        1.0080           
   34336 A    8584 TIP4 BD1  LP0     -1.358200        0.0000           
   34337 A    8585 TIP4 O1   OW0      0.000000       15.9990           
   34338 A    8585 TIP4 H1   HW0      0.679100        1.0080           
   34339 A    8585 TIP4 H2   HW0      0.679100        1.0080           
   34340 A    8585 TIP4 BD1  LP0     -1.358200        0.0000           
   34341 A    8586 TIP4 O1   OW0      0.000000       15.9990           
   34342 A    8586 TIP4 H1   HW0      0.679100        1.0080           
   34343 A    8586 TIP4 H2   HW0      0.679100        1.0080           
   34344 A    8586 TIP4 BD1  LP0     -1.358200        0.0000           
   34345 A    8587 TIP4 O1   OW0      0.000000       15.9990           
   34346 A    8587 TIP4 H1   HW0      0.679100        1.0080           
   34347 A    8587 TIP4 H2   HW0      0.679100        1.0080           
   34348 A    8587 TIP4 BD1  LP0     -1.358200        0.0000           
   34349 A    8588 TIP4 O1   OW0      0.000000       15.9990           
   34350 A    8588 TIP4 H1   HW0      0.679100        1.0080           
   34351 A    8588 TIP4 H2   HW0      0.679100        1.0080           
   34352 A    8588 TIP4 BD1  LP0     -1.358200        0.0000           
   34353 A    8589 TIP4 O1   OW0      0.000000       15.9990           
   34354 A    8589 TIP4 H1   HW0      0.679100        1.0080           
   34355 A    8589 TIP4 H2   HW0      0.679100        1.0080           
   34356 A    8589 TIP4 BD1  LP0     -1.358200        0.0000           
   34357 A    8590 TIP4 O1   OW0      0.000000       15.9990           
   34358 A    8590 TIP4 H1   HW0      0.679100        1.0080           
   34359 A    8590 TIP4 H2   HW0      0.679100        1.0080           
   34360 A    8590 TIP4 BD1  LP0     -1.358200        0.0000           
   34361 A    8591 TIP4 O1   OW0      0.000000       15.9990           
   34362 A    8591 TIP4 H1   HW0      0.679100        1.0080           
   34363 A    8591 TIP4 H2   HW0      0.679100        1.0080           
   34364 A    8591 TIP4 BD1  LP0     -1.358200        0.0000           
   34365 A    8592 TIP4 O1   OW0      0.000000       15.9990           
   34366 A    8592 TIP4 H1   HW0      0.679100        1.0080           
   34367 A    8592 TIP4 H2   HW0      0.679100        1.0080           
   34368 A    8592 TIP4 BD1  LP0     -1.358200        0.0000           
   34369 A    8593 TIP4 O1   OW0      0.000000       15.9990           
   34370 A    8593 TIP4 H1   HW0      0.679100        1.0080           
   34371 A    8593 TIP4 H2   HW0      0.679100        1.0080           
   34372 A    8593 TIP4 BD1  LP0     -1.358200        0.0000           
   34373 A    8594 TIP4 O1   OW0      0.000000       15.9990           
   34374 A    8594 TIP4 H1   HW0      0.679100        1.0080           
   34375 A    8594 TIP4 H2   HW0      0.679100        1.0080           
   34376 A    8594 TIP4 BD1  LP0     -1.358200        0.0000           
   34377 A    8595 TIP4 O1   OW0      0.000000       15.9990           
   34378 A    8595 TIP4 H1   HW0      0.679100        1.0080           
   34379 A    8595 TIP4 H2   HW0      0.679100        1.0080           
   34380 A    8595 TIP4 BD1  LP0     -1.358200        0.0000           
   34381 A    8596 TIP4 O1   OW0      0.000000       15.9990           
   34382 A    8596 TIP4 H1   HW0      0.679100        1.0080           
   34383 A    8596 TIP4 H2   HW0      0.679100        1.0080           
   34384 A    8596 TIP4 BD1  LP0     -1.358200        0.0000           
   34385 A    8597 TIP4 O1   OW0      0.000000       15.9990           
   34386 A    8597 TIP4 H1   HW0      0.679100        1.0080           
   34387 A    8597 TIP4 H2   HW0      0.679100        1.0080           
   34388 A    8597 TIP4 BD1  LP0     -1.358200        0.0000           
   34389 A    8598 TIP4 O1   OW0      0.000000       15.9990           
   34390 A    8598 TIP4 H1   HW0      0.679100        1.0080           
   34391 A    8598 TIP4 H2   HW0      0.679100        1.0080           
   34392 A    8598 TIP4 BD1  LP0     -1.358200        0.0000           
   34393 A    8599 TIP4 O1   OW0      0.000000       15.9990           
   34394 A    8599 TIP4 H1   HW0      0.679100        1.0080           
   34395 A    8599 TIP4 H2   HW0      0.679100        1.0080           
   34396 A    8599 TIP4 BD1  LP0     -1.358200        0.0000           
   34397 A    8600 TIP4 O1   OW0      0.000000       15.9990           
   34398 A    8600 TIP4 H1   HW0      0.679100        1.0080           
   34399 A    8600 TIP4 H2   HW0      0.679100        1.0080           
   34400 A    8600 TIP4 BD1  LP0     -1.358200        0.0000           
   34401 A    8601 TIP4 O1   OW0      0.000000       15.9990           
   34402 A    8601 TIP4 H1   HW0      0.679100        1.0080           
   34403 A    8601 TIP4 H2   HW0      0.679100        1.0080           
   34404 A    8601 TIP4 BD1  LP0     -1.358200        0.0000           
   34405 A    8602 TIP4 O1   OW0      0.000000       15.9990           
   34406 A    8602 TIP4 H1   HW0      0.679100        1.0080           
   34407 A    8602 TIP4 H2   HW0      0.679100        1.0080           
   34408 A    8602 TIP4 BD1  LP0     -1.358200        0.0000           
   34409 A    8603 TIP4 O1   OW0      0.000000       15.9990           
   34410 A    8603 TIP4 H1   HW0      0.679100        1.0080           
   34411 A    8603 TIP4 H2   HW0      0.679100        1.0080           
   34412 A    8603 TIP4 BD1  LP0     -1.358200        0.0000           
   34413 A    8604 TIP4 O1   OW0      0.000000       15.9990           
   34414 A    8604 TIP4 H1   HW0      0.679100        1.0080           
   34415 A    8604 TIP4 H2   HW0      0.679100        1.0080           
   34416 A    8604 TIP4 BD1  LP0     -1.358200        0.0000           
   34417 A    8605 TIP4 O1   OW0      0.000000       15.9990           
   34418 A    8605 TIP4 H1   HW0      0.679100        1.0080           
   34419 A    8605 TIP4 H2   HW0      0.679100        1.0080           
   34420 A    8605 TIP4 BD1  LP0     -1.358200        0.0000           
   34421 A    8606 TIP4 O1   OW0      0.000000       15.9990           
   34422 A    8606 TIP4 H1   HW0      0.679100        1.0080           
   34423 A    8606 TIP4 H2   HW0      0.679100        1.0080           
   34424 A    8606 TIP4 BD1  LP0     -1.358200        0.0000           
   34425 A    8607 TIP4 O1   OW0      0.000000       15.9990           
   34426 A    8607 TIP4 H1   HW0      0.679100        1.0080           
   34427 A    8607 TIP4 H2   HW0      0.679100        1.0080           
   34428 A    8607 TIP4 BD1  LP0     -1.358200        0.0000           
   34429 A    8608 TIP4 O1   OW0      0.000000       15.9990           
   34430 A    8608 TIP4 H1   HW0      0.679100        1.0080           
   34431 A    8608 TIP4 H2   HW0      0.679100        1.0080           
   34432 A    8608 TIP4 BD1  LP0     -1.358200        0.0000           
   34433 A    8609 TIP4 O1   OW0      0.000000       15.9990           
   34434 A    8609 TIP4 H1   HW0      0.679100        1.0080           
   34435 A    8609 TIP4 H2   HW0      0.679100        1.0080           
   34436 A    8609 TIP4 BD1  LP0     -1.358200        0.0000           
   34437 A    8610 TIP4 O1   OW0      0.000000       15.9990           
   34438 A    8610 TIP4 H1   HW0      0.679100        1.0080           
   34439 A    8610 TIP4 H2   HW0      0.679100        1.0080           
   34440 A    8610 TIP4 BD1  LP0     -1.358200        0.0000           
   34441 A    8611 TIP4 O1   OW0      0.000000       15.9990           
   34442 A    8611 TIP4 H1   HW0      0.679100        1.0080           
   34443 A    8611 TIP4 H2   HW0      0.679100        1.0080           
   34444 A    8611 TIP4 BD1  LP0     -1.358200        0.0000           
   34445 A    8612 TIP4 O1   OW0      0.000000       15.9990           
   34446 A    8612 TIP4 H1   HW0      0.679100        1.0080           
   34447 A    8612 TIP4 H2   HW0      0.679100        1.0080           
   34448 A    8612 TIP4 BD1  LP0     -1.358200        0.0000           
   34449 A    8613 TIP4 O1   OW0      0.000000       15.9990           
   34450 A    8613 TIP4 H1   HW0      0.679100        1.0080           
   34451 A    8613 TIP4 H2   HW0      0.679100        1.0080           
   34452 A    8613 TIP4 BD1  LP0     -1.358200        0.0000           
   34453 A    8614 TIP4 O1   OW0      0.000000       15.9990           
   34454 A    8614 TIP4 H1   HW0      0.679100        1.0080           
   34455 A    8614 TIP4 H2   HW0      0.679100        1.0080           
   34456 A    8614 TIP4 BD1  LP0     -1.358200        0.0000           
   34457 A    8615 TIP4 O1   OW0      0.000000       15.9990           
   34458 A    8615 TIP4 H1   HW0      0.679100        1.0080           
   34459 A    8615 TIP4 H2   HW0      0.679100        1.0080           
   34460 A    8615 TIP4 BD1  LP0     -1.358200        0.0000           
   34461 A    8616 TIP4 O1   OW0      0.000000       15.9990           
   34462 A    8616 TIP4 H1   HW0      0.679100        1.0080           
   34463 A    8616 TIP4 H2   HW0      0.679100        1.0080           
   34464 A    8616 TIP4 BD1  LP0     -1.358200        0.0000           
   34465 A    8617 TIP4 O1   OW0      0.000000       15.9990           
   34466 A    8617 TIP4 H1   HW0      0.679100        1.0080           
   34467 A    8617 TIP4 H2   HW0      0.679100        1.0080           
   34468 A    8617 TIP4 BD1  LP0     -1.358200        0.0000           
   34469 A    8618 TIP4 O1   OW0      0.000000       15.9990           
   34470 A    8618 TIP4 H1   HW0      0.679100        1.0080           
   34471 A    8618 TIP4 H2   HW0      0.679100        1.0080           
   34472 A    8618 TIP4 BD1  LP0     -1.358200        0.0000           
   34473 A    8619 TIP4 O1   OW0      0.000000       15.9990           
   34474 A    8619 TIP4 H1   HW0      0.679100        1.0080           
   34475 A    8619 TIP4 H2   HW0      0.679100        1.0080           
   34476 A    8619 TIP4 BD1  LP0     -1.358200        0.0000           
   34477 A    8620 TIP4 O1   OW0      0.000000       15.9990           
   34478 A    8620 TIP4 H1   HW0      0.679100        1.0080           
   34479 A    8620 TIP4 H2   HW0      0.679100        1.0080           
   34480 A    8620 TIP4 BD1  LP0     -1.358200        0.0000           
   34481 A    8621 TIP4 O1   OW0      0.000000       15.9990           
   34482 A    8621 TIP4 H1   HW0      0.679100        1.0080           
   34483 A    8621 TIP4 H2   HW0      0.679100        1.0080           
   34484 A    8621 TIP4 BD1  LP0     -1.358200        0.0000           
   34485 A    8622 TIP4 O1   OW0      0.000000       15.9990           
   34486 A    8622 TIP4 H1   HW0      0.679100        1.0080           
   34487 A    8622 TIP4 H2   HW0      0.679100        1.0080           
   34488 A    8622 TIP4 BD1  LP0     -1.358200        0.0000           
   34489 A    8623 TIP4 O1   OW0      0.000000       15.9990           
   34490 A    8623 TIP4 H1   HW0      0.679100        1.0080           
   34491 A    8623 TIP4 H2   HW0      0.679100        1.0080           
   34492 A    8623 TIP4 BD1  LP0     -1.358200        0.0000           
   34493 A    8624 TIP4 O1   OW0      0.000000       15.9990           
   34494 A    8624 TIP4 H1   HW0      0.679100        1.0080           
   34495 A    8624 TIP4 H2   HW0      0.679100        1.0080           
   34496 A    8624 TIP4 BD1  LP0     -1.358200        0.0000           
   34497 A    8625 TIP4 O1   OW0      0.000000       15.9990           
   34498 A    8625 TIP4 H1   HW0      0.679100        1.0080           
   34499 A    8625 TIP4 H2   HW0      0.679100        1.0080           
   34500 A    8625 TIP4 BD1  LP0     -1.358200        0.0000           
   34501 A    8626 TIP4 O1   OW0      0.000000       15.9990           
   34502 A    8626 TIP4 H1   HW0      0.679100        1.0080           
   34503 A    8626 TIP4 H2   HW0      0.679100        1.0080           
   34504 A    8626 TIP4 BD1  LP0     -1.358200        0.0000           
   34505 A    8627 TIP4 O1   OW0      0.000000       15.9990           
   34506 A    8627 TIP4 H1   HW0      0.679100        1.0080           
   34507 A    8627 TIP4 H2   HW0      0.679100        1.0080           
   34508 A    8627 TIP4 BD1  LP0     -1.358200        0.0000           
   34509 A    8628 TIP4 O1   OW0      0.000000       15.9990           
   34510 A    8628 TIP4 H1   HW0      0.679100        1.0080           
   34511 A    8628 TIP4 H2   HW0      0.679100        1.0080           
   34512 A    8628 TIP4 BD1  LP0     -1.358200        0.0000           
   34513 A    8629 TIP4 O1   OW0      0.000000       15.9990           
   34514 A    8629 TIP4 H1   HW0      0.679100        1.0080           
   34515 A    8629 TIP4 H2   HW0      0.679100        1.0080           
   34516 A    8629 TIP4 BD1  LP0     -1.358200        0.0000           
   34517 A    8630 TIP4 O1   OW0      0.000000       15.9990           
   34518 A    8630 TIP4 H1   HW0      0.679100        1.0080           
   34519 A    8630 TIP4 H2   HW0      0.679100        1.0080           
   34520 A    8630 TIP4 BD1  LP0     -1.358200        0.0000           
   34521 A    8631 TIP4 O1   OW0      0.000000       15.9990           
   34522 A    8631 TIP4 H1   HW0      0.679100        1.0080           
   34523 A    8631 TIP4 H2   HW0      0.679100        1.0080           
   34524 A    8631 TIP4 BD1  LP0     -1.358200        0.0000           
   34525 A    8632 TIP4 O1   OW0      0.000000       15.9990           
   34526 A    8632 TIP4 H1   HW0      0.679100        1.0080           
   34527 A    8632 TIP4 H2   HW0      0.679100        1.0080           
   34528 A    8632 TIP4 BD1  LP0     -1.358200        0.0000           
   34529 A    8633 TIP4 O1   OW0      0.000000       15.9990           
   34530 A    8633 TIP4 H1   HW0      0.679100        1.0080           
   34531 A    8633 TIP4 H2   HW0      0.679100        1.0080           
   34532 A    8633 TIP4 BD1  LP0     -1.358200        0.0000           
   34533 A    8634 TIP4 O1   OW0      0.000000       15.9990           
   34534 A    8634 TIP4 H1   HW0      0.679100        1.0080           
   34535 A    8634 TIP4 H2   HW0      0.679100        1.0080           
   34536 A    8634 TIP4 BD1  LP0     -1.358200        0.0000           
   34537 A    8635 TIP4 O1   OW0      0.000000       15.9990           
   34538 A    8635 TIP4 H1   HW0      0.679100        1.0080           
   34539 A    8635 TIP4 H2   HW0      0.679100        1.0080           
   34540 A    8635 TIP4 BD1  LP0     -1.358200        0.0000           
   34541 A    8636 TIP4 O1   OW0      0.000000       15.9990           
   34542 A    8636 TIP4 H1   HW0      0.679100        1.0080           
   34543 A    8636 TIP4 H2   HW0      0.679100        1.0080           
   34544 A    8636 TIP4 BD1  LP0     -1.358200        0.0000           
   34545 A    8637 TIP4 O1   OW0      0.000000       15.9990           
   34546 A    8637 TIP4 H1   HW0      0.679100        1.0080           
   34547 A    8637 TIP4 H2   HW0      0.679100        1.0080           
   34548 A    8637 TIP4 BD1  LP0     -1.358200        0.0000           
   34549 A    8638 TIP4 O1   OW0      0.000000       15.9990           
   34550 A    8638 TIP4 H1   HW0      0.679100        1.0080           
   34551 A    8638 TIP4 H2   HW0      0.679100        1.0080           
   34552 A    8638 TIP4 BD1  LP0     -1.358200        0.0000           
   34553 A    8639 TIP4 O1   OW0      0.000000       15.9990           
   34554 A    8639 TIP4 H1   HW0      0.679100        1.0080           
   34555 A    8639 TIP4 H2   HW0      0.679100        1.0080           
   34556 A    8639 TIP4 BD1  LP0     -1.358200        0.0000           
   34557 A    8640 TIP4 O1   OW0      0.000000       15.9990           
   34558 A    8640 TIP4 H1   HW0      0.679100        1.0080           
   34559 A    8640 TIP4 H2   HW0      0.679100        1.0080           
   34560 A    8640 TIP4 BD1  LP0     -1.358200        0.0000           
   34561 A    8641 TIP4 O1   OW0      0.000000       15.9990           
   34562 A    8641 TIP4 H1   HW0      0.679100        1.0080           
   34563 A    8641 TIP4 H2   HW0      0.679100        1.0080           
   34564 A    8641 TIP4 BD1  LP0     -1.358200        0.0000           
   34565 A    8642 TIP4 O1   OW0      0.000000       15.9990           
   34566 A    8642 TIP4 H1   HW0      0.679100        1.0080           
   34567 A    8642 TIP4 H2   HW0      0.679100        1.0080           
   34568 A    8642 TIP4 BD1  LP0     -1.358200        0.0000           
   34569 A    8643 TIP4 O1   OW0      0.000000       15.9990           
   34570 A    8643 TIP4 H1   HW0      0.679100        1.0080           
   34571 A    8643 TIP4 H2   HW0      0.679100        1.0080           
   34572 A    8643 TIP4 BD1  LP0     -1.358200        0.0000           
   34573 A    8644 TIP4 O1   OW0      0.000000       15.9990           
   34574 A    8644 TIP4 H1   HW0      0.679100        1.0080           
   34575 A    8644 TIP4 H2   HW0      0.679100        1.0080           
   34576 A    8644 TIP4 BD1  LP0     -1.358200        0.0000           
   34577 A    8645 TIP4 O1   OW0      0.000000       15.9990           
   34578 A    8645 TIP4 H1   HW0      0.679100        1.0080           
   34579 A    8645 TIP4 H2   HW0      0.679100        1.0080           
   34580 A    8645 TIP4 BD1  LP0     -1.358200        0.0000           
   34581 A    8646 TIP4 O1   OW0      0.000000       15.9990           
   34582 A    8646 TIP4 H1   HW0      0.679100        1.0080           
   34583 A    8646 TIP4 H2   HW0      0.679100        1.0080           
   34584 A    8646 TIP4 BD1  LP0     -1.358200        0.0000           
   34585 A    8647 TIP4 O1   OW0      0.000000       15.9990           
   34586 A    8647 TIP4 H1   HW0      0.679100        1.0080           
   34587 A    8647 TIP4 H2   HW0      0.679100        1.0080           
   34588 A    8647 TIP4 BD1  LP0     -1.358200        0.0000           
   34589 A    8648 TIP4 O1   OW0      0.000000       15.9990           
   34590 A    8648 TIP4 H1   HW0      0.679100        1.0080           
   34591 A    8648 TIP4 H2   HW0      0.679100        1.0080           
   34592 A    8648 TIP4 BD1  LP0     -1.358200        0.0000           
   34593 A    8649 TIP4 O1   OW0      0.000000       15.9990           
   34594 A    8649 TIP4 H1   HW0      0.679100        1.0080           
   34595 A    8649 TIP4 H2   HW0      0.679100        1.0080           
   34596 A    8649 TIP4 BD1  LP0     -1.358200        0.0000           
   34597 A    8650 TIP4 O1   OW0      0.000000       15.9990           
   34598 A    8650 TIP4 H1   HW0      0.679100        1.0080           
   34599 A    8650 TIP4 H2   HW0      0.679100        1.0080           
   34600 A    8650 TIP4 BD1  LP0     -1.358200        0.0000           
   34601 A    8651 TIP4 O1   OW0      0.000000       15.9990           
   34602 A    8651 TIP4 H1   HW0      0.679100        1.0080           
   34603 A    8651 TIP4 H2   HW0      0.679100        1.0080           
   34604 A    8651 TIP4 BD1  LP0     -1.358200        0.0000           
   34605 A    8652 TIP4 O1   OW0      0.000000       15.9990           
   34606 A    8652 TIP4 H1   HW0      0.679100        1.0080           
   34607 A    8652 TIP4 H2   HW0      0.679100        1.0080           
   34608 A    8652 TIP4 BD1  LP0     -1.358200        0.0000           
   34609 A    8653 TIP4 O1   OW0      0.000000       15.9990           
   34610 A    8653 TIP4 H1   HW0      0.679100        1.0080           
   34611 A    8653 TIP4 H2   HW0      0.679100        1.0080           
   34612 A    8653 TIP4 BD1  LP0     -1.358200        0.0000           
   34613 A    8654 TIP4 O1   OW0      0.000000       15.9990           
   34614 A    8654 TIP4 H1   HW0      0.679100        1.0080           
   34615 A    8654 TIP4 H2   HW0      0.679100        1.0080           
   34616 A    8654 TIP4 BD1  LP0     -1.358200        0.0000           
   34617 A    8655 TIP4 O1   OW0      0.000000       15.9990           
   34618 A    8655 TIP4 H1   HW0      0.679100        1.0080           
   34619 A    8655 TIP4 H2   HW0      0.679100        1.0080           
   34620 A    8655 TIP4 BD1  LP0     -1.358200        0.0000           
   34621 A    8656 TIP4 O1   OW0      0.000000       15.9990           
   34622 A    8656 TIP4 H1   HW0      0.679100        1.0080           
   34623 A    8656 TIP4 H2   HW0      0.679100        1.0080           
   34624 A    8656 TIP4 BD1  LP0     -1.358200        0.0000           
   34625 A    8657 TIP4 O1   OW0      0.000000       15.9990           
   34626 A    8657 TIP4 H1   HW0      0.679100        1.0080           
   34627 A    8657 TIP4 H2   HW0      0.679100        1.0080           
   34628 A    8657 TIP4 BD1  LP0     -1.358200        0.0000           
   34629 A    8658 TIP4 O1   OW0      0.000000       15.9990           
   34630 A    8658 TIP4 H1   HW0      0.679100        1.0080           
   34631 A    8658 TIP4 H2   HW0      0.679100        1.0080           
   34632 A    8658 TIP4 BD1  LP0     -1.358200        0.0000           
   34633 A    8659 TIP4 O1   OW0      0.000000       15.9990           
   34634 A    8659 TIP4 H1   HW0      0.679100        1.0080           
   34635 A    8659 TIP4 H2   HW0      0.679100        1.0080           
   34636 A    8659 TIP4 BD1  LP0     -1.358200        0.0000           
   34637 A    8660 TIP4 O1   OW0      0.000000       15.9990           
   34638 A    8660 TIP4 H1   HW0      0.679100        1.0080           
   34639 A    8660 TIP4 H2   HW0      0.679100        1.0080           
   34640 A    8660 TIP4 BD1  LP0     -1.358200        0.0000           
   34641 A    8661 TIP4 O1   OW0      0.000000       15.9990           
   34642 A    8661 TIP4 H1   HW0      0.679100        1.0080           
   34643 A    8661 TIP4 H2   HW0      0.679100        1.0080           
   34644 A    8661 TIP4 BD1  LP0     -1.358200        0.0000           
   34645 A    8662 TIP4 O1   OW0      0.000000       15.9990           
   34646 A    8662 TIP4 H1   HW0      0.679100        1.0080           
   34647 A    8662 TIP4 H2   HW0      0.679100        1.0080           
   34648 A    8662 TIP4 BD1  LP0     -1.358200        0.0000           
   34649 A    8663 TIP4 O1   OW0      0.000000       15.9990           
   34650 A    8663 TIP4 H1   HW0      0.679100        1.0080           
   34651 A    8663 TIP4 H2   HW0      0.679100        1.0080           
   34652 A    8663 TIP4 BD1  LP0     -1.358200        0.0000           
   34653 A    8664 TIP4 O1   OW0      0.000000       15.9990           
   34654 A    8664 TIP4 H1   HW0      0.679100        1.0080           
   34655 A    8664 TIP4 H2   HW0      0.679100        1.0080           
   34656 A    8664 TIP4 BD1  LP0     -1.358200        0.0000           
   34657 A    8665 TIP4 O1   OW0      0.000000       15.9990           
   34658 A    8665 TIP4 H1   HW0      0.679100        1.0080           
   34659 A    8665 TIP4 H2   HW0      0.679100        1.0080           
   34660 A    8665 TIP4 BD1  LP0     -1.358200        0.0000           
   34661 A    8666 TIP4 O1   OW0      0.000000       15.9990           
   34662 A    8666 TIP4 H1   HW0      0.679100        1.0080           
   34663 A    8666 TIP4 H2   HW0      0.679100        1.0080           
   34664 A    8666 TIP4 BD1  LP0     -1.358200        0.0000           
   34665 A    8667 TIP4 O1   OW0      0.000000       15.9990           
   34666 A    8667 TIP4 H1   HW0      0.679100        1.0080           
   34667 A    8667 TIP4 H2   HW0      0.679100        1.0080           
   34668 A    8667 TIP4 BD1  LP0     -1.358200        0.0000           
   34669 A    8668 TIP4 O1   OW0      0.000000       15.9990           
   34670 A    8668 TIP4 H1   HW0      0.679100        1.0080           
   34671 A    8668 TIP4 H2   HW0      0.679100        1.0080           
   34672 A    8668 TIP4 BD1  LP0     -1.358200        0.0000           
   34673 A    8669 TIP4 O1   OW0      0.000000       15.9990           
   34674 A    8669 TIP4 H1   HW0      0.679100        1.0080           
   34675 A    8669 TIP4 H2   HW0      0.679100        1.0080           
   34676 A    8669 TIP4 BD1  LP0     -1.358200        0.0000           
   34677 A    8670 TIP4 O1   OW0      0.000000       15.9990           
   34678 A    8670 TIP4 H1   HW0      0.679100        1.0080           
   34679 A    8670 TIP4 H2   HW0      0.679100        1.0080           
   34680 A    8670 TIP4 BD1  LP0     -1.358200        0.0000           
   34681 A    8671 TIP4 O1   OW0      0.000000       15.9990           
   34682 A    8671 TIP4 H1   HW0      0.679100        1.0080           
   34683 A    8671 TIP4 H2   HW0      0.679100        1.0080           
   34684 A    8671 TIP4 BD1  LP0     -1.358200        0.0000           
   34685 A    8672 TIP4 O1   OW0      0.000000       15.9990           
   34686 A    8672 TIP4 H1   HW0      0.679100        1.0080           
   34687 A    8672 TIP4 H2   HW0      0.679100        1.0080           
   34688 A    8672 TIP4 BD1  LP0     -1.358200        0.0000           
   34689 A    8673 TIP4 O1   OW0      0.000000       15.9990           
   34690 A    8673 TIP4 H1   HW0      0.679100        1.0080           
   34691 A    8673 TIP4 H2   HW0      0.679100        1.0080           
   34692 A    8673 TIP4 BD1  LP0     -1.358200        0.0000           
   34693 A    8674 TIP4 O1   OW0      0.000000       15.9990           
   34694 A    8674 TIP4 H1   HW0      0.679100        1.0080           
   34695 A    8674 TIP4 H2   HW0      0.679100        1.0080           
   34696 A    8674 TIP4 BD1  LP0     -1.358200        0.0000           
   34697 A    8675 TIP4 O1   OW0      0.000000       15.9990           
   34698 A    8675 TIP4 H1   HW0      0.679100        1.0080           
   34699 A    8675 TIP4 H2   HW0      0.679100        1.0080           
   34700 A    8675 TIP4 BD1  LP0     -1.358200        0.0000           
   34701 A    8676 TIP4 O1   OW0      0.000000       15.9990           
   34702 A    8676 TIP4 H1   HW0      0.679100        1.0080           
   34703 A    8676 TIP4 H2   HW0      0.679100        1.0080           
   34704 A    8676 TIP4 BD1  LP0     -1.358200        0.0000           
   34705 A    8677 TIP4 O1   OW0      0.000000       15.9990           
   34706 A    8677 TIP4 H1   HW0      0.679100        1.0080           
   34707 A    8677 TIP4 H2   HW0      0.679100        1.0080           
   34708 A    8677 TIP4 BD1  LP0     -1.358200        0.0000           
   34709 A    8678 TIP4 O1   OW0      0.000000       15.9990           
   34710 A    8678 TIP4 H1   HW0      0.679100        1.0080           
   34711 A    8678 TIP4 H2   HW0      0.679100        1.0080           
   34712 A    8678 TIP4 BD1  LP0     -1.358200        0.0000           
   34713 A    8679 TIP4 O1   OW0      0.000000       15.9990           
   34714 A    8679 TIP4 H1   HW0      0.679100        1.0080           
   34715 A    8679 TIP4 H2   HW0      0.679100        1.0080           
   34716 A    8679 TIP4 BD1  LP0     -1.358200        0.0000           
   34717 A    8680 TIP4 O1   OW0      0.000000       15.9990           
   34718 A    8680 TIP4 H1   HW0      0.679100        1.0080           
   34719 A    8680 TIP4 H2   HW0      0.679100        1.0080           
   34720 A    8680 TIP4 BD1  LP0     -1.358200        0.0000           
   34721 A    8681 TIP4 O1   OW0      0.000000       15.9990           
   34722 A    8681 TIP4 H1   HW0      0.679100        1.0080           
   34723 A    8681 TIP4 H2   HW0      0.679100        1.0080           
   34724 A    8681 TIP4 BD1  LP0     -1.358200        0.0000           
   34725 A    8682 TIP4 O1   OW0      0.000000       15.9990           
   34726 A    8682 TIP4 H1   HW0      0.679100        1.0080           
   34727 A    8682 TIP4 H2   HW0      0.679100        1.0080           
   34728 A    8682 TIP4 BD1  LP0     -1.358200        0.0000           
   34729 A    8683 TIP4 O1   OW0      0.000000       15.9990           
   34730 A    8683 TIP4 H1   HW0      0.679100        1.0080           
   34731 A    8683 TIP4 H2   HW0      0.679100        1.0080           
   34732 A    8683 TIP4 BD1  LP0     -1.358200        0.0000           
   34733 A    8684 TIP4 O1   OW0      0.000000       15.9990           
   34734 A    8684 TIP4 H1   HW0      0.679100        1.0080           
   34735 A    8684 TIP4 H2   HW0      0.679100        1.0080           
   34736 A    8684 TIP4 BD1  LP0     -1.358200        0.0000           
   34737 A    8685 TIP4 O1   OW0      0.000000       15.9990           
   34738 A    8685 TIP4 H1   HW0      0.679100        1.0080           
   34739 A    8685 TIP4 H2   HW0      0.679100        1.0080           
   34740 A    8685 TIP4 BD1  LP0     -1.358200        0.0000           
   34741 A    8686 TIP4 O1   OW0      0.000000       15.9990           
   34742 A    8686 TIP4 H1   HW0      0.679100        1.0080           
   34743 A    8686 TIP4 H2   HW0      0.679100        1.0080           
   34744 A    8686 TIP4 BD1  LP0     -1.358200        0.0000           
   34745 A    8687 TIP4 O1   OW0      0.000000       15.9990           
   34746 A    8687 TIP4 H1   HW0      0.679100        1.0080           
   34747 A    8687 TIP4 H2   HW0      0.679100        1.0080           
   34748 A    8687 TIP4 BD1  LP0     -1.358200        0.0000           
   34749 A    8688 TIP4 O1   OW0      0.000000       15.9990           
   34750 A    8688 TIP4 H1   HW0      0.679100        1.0080           
   34751 A    8688 TIP4 H2   HW0      0.679100        1.0080           
   34752 A    8688 TIP4 BD1  LP0     -1.358200        0.0000           
   34753 A    8689 TIP4 O1   OW0      0.000000       15.9990           
   34754 A    8689 TIP4 H1   HW0      0.679100        1.0080           
   34755 A    8689 TIP4 H2   HW0      0.679100        1.0080           
   34756 A    8689 TIP4 BD1  LP0     -1.358200        0.0000           
   34757 A    8690 TIP4 O1   OW0      0.000000       15.9990           
   34758 A    8690 TIP4 H1   HW0      0.679100        1.0080           
   34759 A    8690 TIP4 H2   HW0      0.679100        1.0080           
   34760 A    8690 TIP4 BD1  LP0     -1.358200        0.0000           
   34761 A    8691 TIP4 O1   OW0      0.000000       15.9990           
   34762 A    8691 TIP4 H1   HW0      0.679100        1.0080           
   34763 A    8691 TIP4 H2   HW0      0.679100        1.0080           
   34764 A    8691 TIP4 BD1  LP0     -1.358200        0.0000           
   34765 A    8692 TIP4 O1   OW0      0.000000       15.9990           
   34766 A    8692 TIP4 H1   HW0      0.679100        1.0080           
   34767 A    8692 TIP4 H2   HW0      0.679100        1.0080           
   34768 A    8692 TIP4 BD1  LP0     -1.358200        0.0000           
   34769 A    8693 TIP4 O1   OW0      0.000000       15.9990           
   34770 A    8693 TIP4 H1   HW0      0.679100        1.0080           
   34771 A    8693 TIP4 H2   HW0      0.679100        1.0080           
   34772 A    8693 TIP4 BD1  LP0     -1.358200        0.0000           
   34773 A    8694 TIP4 O1   OW0      0.000000       15.9990           
   34774 A    8694 TIP4 H1   HW0      0.679100        1.0080           
   34775 A    8694 TIP4 H2   HW0      0.679100        1.0080           
   34776 A    8694 TIP4 BD1  LP0     -1.358200        0.0000           
   34777 A    8695 TIP4 O1   OW0      0.000000       15.9990           
   34778 A    8695 TIP4 H1   HW0      0.679100        1.0080           
   34779 A    8695 TIP4 H2   HW0      0.679100        1.0080           
   34780 A    8695 TIP4 BD1  LP0     -1.358200        0.0000           
   34781 A    8696 TIP4 O1   OW0      0.000000       15.9990           
   34782 A    8696 TIP4 H1   HW0      0.679100        1.0080           
   34783 A    8696 TIP4 H2   HW0      0.679100        1.0080           
   34784 A    8696 TIP4 BD1  LP0     -1.358200        0.0000           
   34785 A    8697 TIP4 O1   OW0      0.000000       15.9990           
   34786 A    8697 TIP4 H1   HW0      0.679100        1.0080           
   34787 A    8697 TIP4 H2   HW0      0.679100        1.0080           
   34788 A    8697 TIP4 BD1  LP0     -1.358200        0.0000           
   34789 A    8698 TIP4 O1   OW0      0.000000       15.9990           
   34790 A    8698 TIP4 H1   HW0      0.679100        1.0080           
   34791 A    8698 TIP4 H2   HW0      0.679100        1.0080           
   34792 A    8698 TIP4 BD1  LP0     -1.358200        0.0000           
   34793 A    8699 TIP4 O1   OW0      0.000000       15.9990           
   34794 A    8699 TIP4 H1   HW0      0.679100        1.0080           
   34795 A    8699 TIP4 H2   HW0      0.679100        1.0080           
   34796 A    8699 TIP4 BD1  LP0     -1.358200        0.0000           
   34797 A    8700 TIP4 O1   OW0      0.000000       15.9990           
   34798 A    8700 TIP4 H1   HW0      0.679100        1.0080           
   34799 A    8700 TIP4 H2   HW0      0.679100        1.0080           
   34800 A    8700 TIP4 BD1  LP0     -1.358200        0.0000           
   34801 A    8701 TIP4 O1   OW0      0.000000       15.9990           
   34802 A    8701 TIP4 H1   HW0      0.679100        1.0080           
   34803 A    8701 TIP4 H2   HW0      0.679100        1.0080           
   34804 A    8701 TIP4 BD1  LP0     -1.358200        0.0000           
   34805 A    8702 TIP4 O1   OW0      0.000000       15.9990           
   34806 A    8702 TIP4 H1   HW0      0.679100        1.0080           
   34807 A    8702 TIP4 H2   HW0      0.679100        1.0080           
   34808 A    8702 TIP4 BD1  LP0     -1.358200        0.0000           
   34809 A    8703 TIP4 O1   OW0      0.000000       15.9990           
   34810 A    8703 TIP4 H1   HW0      0.679100        1.0080           
   34811 A    8703 TIP4 H2   HW0      0.679100        1.0080           
   34812 A    8703 TIP4 BD1  LP0     -1.358200        0.0000           
   34813 A    8704 TIP4 O1   OW0      0.000000       15.9990           
   34814 A    8704 TIP4 H1   HW0      0.679100        1.0080           
   34815 A    8704 TIP4 H2   HW0      0.679100        1.0080           
   34816 A    8704 TIP4 BD1  LP0     -1.358200        0.0000           
   34817 A    8705 TIP4 O1   OW0      0.000000       15.9990           
   34818 A    8705 TIP4 H1   HW0      0.679100        1.0080           
   34819 A    8705 TIP4 H2   HW0      0.679100        1.0080           
   34820 A    8705 TIP4 BD1  LP0     -1.358200        0.0000           
   34821 A    8706 TIP4 O1   OW0      0.000000       15.9990           
   34822 A    8706 TIP4 H1   HW0      0.679100        1.0080           
   34823 A    8706 TIP4 H2   HW0      0.679100        1.0080           
   34824 A    8706 TIP4 BD1  LP0     -1.358200        0.0000           
   34825 A    8707 TIP4 O1   OW0      0.000000       15.9990           
   34826 A    8707 TIP4 H1   HW0      0.679100        1.0080           
   34827 A    8707 TIP4 H2   HW0      0.679100        1.0080           
   34828 A    8707 TIP4 BD1  LP0     -1.358200        0.0000           
   34829 A    8708 TIP4 O1   OW0      0.000000       15.9990           
   34830 A    8708 TIP4 H1   HW0      0.679100        1.0080           
   34831 A    8708 TIP4 H2   HW0      0.679100        1.0080           
   34832 A    8708 TIP4 BD1  LP0     -1.358200        0.0000           
   34833 A    8709 TIP4 O1   OW0      0.000000       15.9990           
   34834 A    8709 TIP4 H1   HW0      0.679100        1.0080           
   34835 A    8709 TIP4 H2   HW0      0.679100        1.0080           
   34836 A    8709 TIP4 BD1  LP0     -1.358200        0.0000           
   34837 A    8710 TIP4 O1   OW0      0.000000       15.9990           
   34838 A    8710 TIP4 H1   HW0      0.679100        1.0080           
   34839 A    8710 TIP4 H2   HW0      0.679100        1.0080           
   34840 A    8710 TIP4 BD1  LP0     -1.358200        0.0000           
   34841 A    8711 TIP4 O1   OW0      0.000000       15.9990           
   34842 A    8711 TIP4 H1   HW0      0.679100        1.0080           
   34843 A    8711 TIP4 H2   HW0      0.679100        1.0080           
   34844 A    8711 TIP4 BD1  LP0     -1.358200        0.0000           
   34845 A    8712 TIP4 O1   OW0      0.000000       15.9990           
   34846 A    8712 TIP4 H1   HW0      0.679100        1.0080           
   34847 A    8712 TIP4 H2   HW0      0.679100        1.0080           
   34848 A    8712 TIP4 BD1  LP0     -1.358200        0.0000           
   34849 A    8713 TIP4 O1   OW0      0.000000       15.9990           
   34850 A    8713 TIP4 H1   HW0      0.679100        1.0080           
   34851 A    8713 TIP4 H2   HW0      0.679100        1.0080           
   34852 A    8713 TIP4 BD1  LP0     -1.358200        0.0000           
   34853 A    8714 TIP4 O1   OW0      0.000000       15.9990           
   34854 A    8714 TIP4 H1   HW0      0.679100        1.0080           
   34855 A    8714 TIP4 H2   HW0      0.679100        1.0080           
   34856 A    8714 TIP4 BD1  LP0     -1.358200        0.0000           
   34857 A    8715 TIP4 O1   OW0      0.000000       15.9990           
   34858 A    8715 TIP4 H1   HW0      0.679100        1.0080           
   34859 A    8715 TIP4 H2   HW0      0.679100        1.0080           
   34860 A    8715 TIP4 BD1  LP0     -1.358200        0.0000           
   34861 A    8716 TIP4 O1   OW0      0.000000       15.9990           
   34862 A    8716 TIP4 H1   HW0      0.679100        1.0080           
   34863 A    8716 TIP4 H2   HW0      0.679100        1.0080           
   34864 A    8716 TIP4 BD1  LP0     -1.358200        0.0000           
   34865 A    8717 TIP4 O1   OW0      0.000000       15.9990           
   34866 A    8717 TIP4 H1   HW0      0.679100        1.0080           
   34867 A    8717 TIP4 H2   HW0      0.679100        1.0080           
   34868 A    8717 TIP4 BD1  LP0     -1.358200        0.0000           
   34869 A    8718 TIP4 O1   OW0      0.000000       15.9990           
   34870 A    8718 TIP4 H1   HW0      0.679100        1.0080           
   34871 A    8718 TIP4 H2   HW0      0.679100        1.0080           
   34872 A    8718 TIP4 BD1  LP0     -1.358200        0.0000           
   34873 A    8719 TIP4 O1   OW0      0.000000       15.9990           
   34874 A    8719 TIP4 H1   HW0      0.679100        1.0080           
   34875 A    8719 TIP4 H2   HW0      0.679100        1.0080           
   34876 A    8719 TIP4 BD1  LP0     -1.358200        0.0000           
   34877 A    8720 TIP4 O1   OW0      0.000000       15.9990           
   34878 A    8720 TIP4 H1   HW0      0.679100        1.0080           
   34879 A    8720 TIP4 H2   HW0      0.679100        1.0080           
   34880 A    8720 TIP4 BD1  LP0     -1.358200        0.0000           
   34881 A    8721 TIP4 O1   OW0      0.000000       15.9990           
   34882 A    8721 TIP4 H1   HW0      0.679100        1.0080           
   34883 A    8721 TIP4 H2   HW0      0.679100        1.0080           
   34884 A    8721 TIP4 BD1  LP0     -1.358200        0.0000           
   34885 A    8722 TIP4 O1   OW0      0.000000       15.9990           
   34886 A    8722 TIP4 H1   HW0      0.679100        1.0080           
   34887 A    8722 TIP4 H2   HW0      0.679100        1.0080           
   34888 A    8722 TIP4 BD1  LP0     -1.358200        0.0000           
   34889 A    8723 TIP4 O1   OW0      0.000000       15.9990           
   34890 A    8723 TIP4 H1   HW0      0.679100        1.0080           
   34891 A    8723 TIP4 H2   HW0      0.679100        1.0080           
   34892 A    8723 TIP4 BD1  LP0     -1.358200        0.0000           
   34893 A    8724 TIP4 O1   OW0      0.000000       15.9990           
   34894 A    8724 TIP4 H1   HW0      0.679100        1.0080           
   34895 A    8724 TIP4 H2   HW0      0.679100        1.0080           
   34896 A    8724 TIP4 BD1  LP0     -1.358200        0.0000           
   34897 A    8725 TIP4 O1   OW0      0.000000       15.9990           
   34898 A    8725 TIP4 H1   HW0      0.679100        1.0080           
   34899 A    8725 TIP4 H2   HW0      0.679100        1.0080           
   34900 A    8725 TIP4 BD1  LP0     -1.358200        0.0000           
   34901 A    8726 TIP4 O1   OW0      0.000000       15.9990           
   34902 A    8726 TIP4 H1   HW0      0.679100        1.0080           
   34903 A    8726 TIP4 H2   HW0      0.679100        1.0080           
   34904 A    8726 TIP4 BD1  LP0     -1.358200        0.0000           
   34905 A    8727 TIP4 O1   OW0      0.000000       15.9990           
   34906 A    8727 TIP4 H1   HW0      0.679100        1.0080           
   34907 A    8727 TIP4 H2   HW0      0.679100        1.0080           
   34908 A    8727 TIP4 BD1  LP0     -1.358200        0.0000           
   34909 A    8728 TIP4 O1   OW0      0.000000       15.9990           
   34910 A    8728 TIP4 H1   HW0      0.679100        1.0080           
   34911 A    8728 TIP4 H2   HW0      0.679100        1.0080           
   34912 A    8728 TIP4 BD1  LP0     -1.358200        0.0000           
   34913 A    8729 TIP4 O1   OW0      0.000000       15.9990           
   34914 A    8729 TIP4 H1   HW0      0.679100        1.0080           
   34915 A    8729 TIP4 H2   HW0      0.679100        1.0080           
   34916 A    8729 TIP4 BD1  LP0     -1.358200        0.0000           
   34917 A    8730 TIP4 O1   OW0      0.000000       15.9990           
   34918 A    8730 TIP4 H1   HW0      0.679100        1.0080           
   34919 A    8730 TIP4 H2   HW0      0.679100        1.0080           
   34920 A    8730 TIP4 BD1  LP0     -1.358200        0.0000           
   34921 A    8731 TIP4 O1   OW0      0.000000       15.9990           
   34922 A    8731 TIP4 H1   HW0      0.679100        1.0080           
   34923 A    8731 TIP4 H2   HW0      0.679100        1.0080           
   34924 A    8731 TIP4 BD1  LP0     -1.358200        0.0000           
   34925 A    8732 TIP4 O1   OW0      0.000000       15.9990           
   34926 A    8732 TIP4 H1   HW0      0.679100        1.0080           
   34927 A    8732 TIP4 H2   HW0      0.679100        1.0080           
   34928 A    8732 TIP4 BD1  LP0     -1.358200        0.0000           
   34929 A    8733 TIP4 O1   OW0      0.000000       15.9990           
   34930 A    8733 TIP4 H1   HW0      0.679100        1.0080           
   34931 A    8733 TIP4 H2   HW0      0.679100        1.0080           
   34932 A    8733 TIP4 BD1  LP0     -1.358200        0.0000           
   34933 A    8734 TIP4 O1   OW0      0.000000       15.9990           
   34934 A    8734 TIP4 H1   HW0      0.679100        1.0080           
   34935 A    8734 TIP4 H2   HW0      0.679100        1.0080           
   34936 A    8734 TIP4 BD1  LP0     -1.358200        0.0000           
   34937 A    8735 TIP4 O1   OW0      0.000000       15.9990           
   34938 A    8735 TIP4 H1   HW0      0.679100        1.0080           
   34939 A    8735 TIP4 H2   HW0      0.679100        1.0080           
   34940 A    8735 TIP4 BD1  LP0     -1.358200        0.0000           
   34941 A    8736 TIP4 O1   OW0      0.000000       15.9990           
   34942 A    8736 TIP4 H1   HW0      0.679100        1.0080           
   34943 A    8736 TIP4 H2   HW0      0.679100        1.0080           
   34944 A    8736 TIP4 BD1  LP0     -1.358200        0.0000           
   34945 A    8737 TIP4 O1   OW0      0.000000       15.9990           
   34946 A    8737 TIP4 H1   HW0      0.679100        1.0080           
   34947 A    8737 TIP4 H2   HW0      0.679100        1.0080           
   34948 A    8737 TIP4 BD1  LP0     -1.358200        0.0000           
   34949 A    8738 TIP4 O1   OW0      0.000000       15.9990           
   34950 A    8738 TIP4 H1   HW0      0.679100        1.0080           
   34951 A    8738 TIP4 H2   HW0      0.679100        1.0080           
   34952 A    8738 TIP4 BD1  LP0     -1.358200        0.0000           
   34953 A    8739 TIP4 O1   OW0      0.000000       15.9990           
   34954 A    8739 TIP4 H1   HW0      0.679100        1.0080           
   34955 A    8739 TIP4 H2   HW0      0.679100        1.0080           
   34956 A    8739 TIP4 BD1  LP0     -1.358200        0.0000           
   34957 A    8740 TIP4 O1   OW0      0.000000       15.9990           
   34958 A    8740 TIP4 H1   HW0      0.679100        1.0080           
   34959 A    8740 TIP4 H2   HW0      0.679100        1.0080           
   34960 A    8740 TIP4 BD1  LP0     -1.358200        0.0000           
   34961 A    8741 TIP4 O1   OW0      0.000000       15.9990           
   34962 A    8741 TIP4 H1   HW0      0.679100        1.0080           
   34963 A    8741 TIP4 H2   HW0      0.679100        1.0080           
   34964 A    8741 TIP4 BD1  LP0     -1.358200        0.0000           
   34965 A    8742 TIP4 O1   OW0      0.000000       15.9990           
   34966 A    8742 TIP4 H1   HW0      0.679100        1.0080           
   34967 A    8742 TIP4 H2   HW0      0.679100        1.0080           
   34968 A    8742 TIP4 BD1  LP0     -1.358200        0.0000           
   34969 A    8743 TIP4 O1   OW0      0.000000       15.9990           
   34970 A    8743 TIP4 H1   HW0      0.679100        1.0080           
   34971 A    8743 TIP4 H2   HW0      0.679100        1.0080           
   34972 A    8743 TIP4 BD1  LP0     -1.358200        0.0000           
   34973 A    8744 TIP4 O1   OW0      0.000000       15.9990           
   34974 A    8744 TIP4 H1   HW0      0.679100        1.0080           
   34975 A    8744 TIP4 H2   HW0      0.679100        1.0080           
   34976 A    8744 TIP4 BD1  LP0     -1.358200        0.0000           
   34977 A    8745 TIP4 O1   OW0      0.000000       15.9990           
   34978 A    8745 TIP4 H1   HW0      0.679100        1.0080           
   34979 A    8745 TIP4 H2   HW0      0.679100        1.0080           
   34980 A    8745 TIP4 BD1  LP0     -1.358200        0.0000           
   34981 A    8746 TIP4 O1   OW0      0.000000       15.9990           
   34982 A    8746 TIP4 H1   HW0      0.679100        1.0080           
   34983 A    8746 TIP4 H2   HW0      0.679100        1.0080           
   34984 A    8746 TIP4 BD1  LP0     -1.358200        0.0000           
   34985 A    8747 TIP4 O1   OW0      0.000000       15.9990           
   34986 A    8747 TIP4 H1   HW0      0.679100        1.0080           
   34987 A    8747 TIP4 H2   HW0      0.679100        1.0080           
   34988 A    8747 TIP4 BD1  LP0     -1.358200        0.0000           
   34989 A    8748 TIP4 O1   OW0      0.000000       15.9990           
   34990 A    8748 TIP4 H1   HW0      0.679100        1.0080           
   34991 A    8748 TIP4 H2   HW0      0.679100        1.0080           
   34992 A    8748 TIP4 BD1  LP0     -1.358200        0.0000           
   34993 A    8749 TIP4 O1   OW0      0.000000       15.9990           
   34994 A    8749 TIP4 H1   HW0      0.679100        1.0080           
   34995 A    8749 TIP4 H2   HW0      0.679100        1.0080           
   34996 A    8749 TIP4 BD1  LP0     -1.358200        0.0000           
   34997 A    8750 TIP4 O1   OW0      0.000000       15.9990           
   34998 A    8750 TIP4 H1   HW0      0.679100        1.0080           
   34999 A    8750 TIP4 H2   HW0      0.679100        1.0080           
   35000 A    8750 TIP4 BD1  LP0     -1.358200        0.0000           
   35001 A    8751 TIP4 O1   OW0      0.000000       15.9990           
   35002 A    8751 TIP4 H1   HW0      0.679100        1.0080           
   35003 A    8751 TIP4 H2   HW0      0.679100        1.0080           
   35004 A    8751 TIP4 BD1  LP0     -1.358200        0.0000           
   35005 A    8752 TIP4 O1   OW0      0.000000       15.9990           
   35006 A    8752 TIP4 H1   HW0      0.679100        1.0080           
   35007 A    8752 TIP4 H2   HW0      0.679100        1.0080           
   35008 A    8752 TIP4 BD1  LP0     -1.358200        0.0000           
   35009 A    8753 TIP4 O1   OW0      0.000000       15.9990           
   35010 A    8753 TIP4 H1   HW0      0.679100        1.0080           
   35011 A    8753 TIP4 H2   HW0      0.679100        1.0080           
   35012 A    8753 TIP4 BD1  LP0     -1.358200        0.0000           
   35013 A    8754 TIP4 O1   OW0      0.000000       15.9990           
   35014 A    8754 TIP4 H1   HW0      0.679100        1.0080           
   35015 A    8754 TIP4 H2   HW0      0.679100        1.0080           
   35016 A    8754 TIP4 BD1  LP0     -1.358200        0.0000           
   35017 A    8755 TIP4 O1   OW0      0.000000       15.9990           
   35018 A    8755 TIP4 H1   HW0      0.679100        1.0080           
   35019 A    8755 TIP4 H2   HW0      0.679100        1.0080           
   35020 A    8755 TIP4 BD1  LP0     -1.358200        0.0000           
   35021 A    8756 TIP4 O1   OW0      0.000000       15.9990           
   35022 A    8756 TIP4 H1   HW0      0.679100        1.0080           
   35023 A    8756 TIP4 H2   HW0      0.679100        1.0080           
   35024 A    8756 TIP4 BD1  LP0     -1.358200        0.0000           
   35025 A    8757 TIP4 O1   OW0      0.000000       15.9990           
   35026 A    8757 TIP4 H1   HW0      0.679100        1.0080           
   35027 A    8757 TIP4 H2   HW0      0.679100        1.0080           
   35028 A    8757 TIP4 BD1  LP0     -1.358200        0.0000           
   35029 A    8758 TIP4 O1   OW0      0.000000       15.9990           
   35030 A    8758 TIP4 H1   HW0      0.679100        1.0080           
   35031 A    8758 TIP4 H2   HW0      0.679100        1.0080           
   35032 A    8758 TIP4 BD1  LP0     -1.358200        0.0000           
   35033 A    8759 TIP4 O1   OW0      0.000000       15.9990           
   35034 A    8759 TIP4 H1   HW0      0.679100        1.0080           
   35035 A    8759 TIP4 H2   HW0      0.679100        1.0080           
   35036 A    8759 TIP4 BD1  LP0     -1.358200        0.0000           
   35037 A    8760 TIP4 O1   OW0      0.000000       15.9990           
   35038 A    8760 TIP4 H1   HW0      0.679100        1.0080           
   35039 A    8760 TIP4 H2   HW0      0.679100        1.0080           
   35040 A    8760 TIP4 BD1  LP0     -1.358200        0.0000           
   35041 A    8761 TIP4 O1   OW0      0.000000       15.9990           
   35042 A    8761 TIP4 H1   HW0      0.679100        1.0080           
   35043 A    8761 TIP4 H2   HW0      0.679100        1.0080           
   35044 A    8761 TIP4 BD1  LP0     -1.358200        0.0000           
   35045 A    8762 TIP4 O1   OW0      0.000000       15.9990           
   35046 A    8762 TIP4 H1   HW0      0.679100        1.0080           
   35047 A    8762 TIP4 H2   HW0      0.679100        1.0080           
   35048 A    8762 TIP4 BD1  LP0     -1.358200        0.0000           
   35049 A    8763 TIP4 O1   OW0      0.000000       15.9990           
   35050 A    8763 TIP4 H1   HW0      0.679100        1.0080           
   35051 A    8763 TIP4 H2   HW0      0.679100        1.0080           
   35052 A    8763 TIP4 BD1  LP0     -1.358200        0.0000           
   35053 A    8764 TIP4 O1   OW0      0.000000       15.9990           
   35054 A    8764 TIP4 H1   HW0      0.679100        1.0080           
   35055 A    8764 TIP4 H2   HW0      0.679100        1.0080           
   35056 A    8764 TIP4 BD1  LP0     -1.358200        0.0000           
   35057 A    8765 TIP4 O1   OW0      0.000000       15.9990           
   35058 A    8765 TIP4 H1   HW0      0.679100        1.0080           
   35059 A    8765 TIP4 H2   HW0      0.679100        1.0080           
   35060 A    8765 TIP4 BD1  LP0     -1.358200        0.0000           
   35061 A    8766 TIP4 O1   OW0      0.000000       15.9990           
   35062 A    8766 TIP4 H1   HW0      0.679100        1.0080           
   35063 A    8766 TIP4 H2   HW0      0.679100        1.0080           
   35064 A    8766 TIP4 BD1  LP0     -1.358200        0.0000           
   35065 A    8767 TIP4 O1   OW0      0.000000       15.9990           
   35066 A    8767 TIP4 H1   HW0      0.679100        1.0080           
   35067 A    8767 TIP4 H2   HW0      0.679100        1.0080           
   35068 A    8767 TIP4 BD1  LP0     -1.358200        0.0000           
   35069 A    8768 TIP4 O1   OW0      0.000000       15.9990           
   35070 A    8768 TIP4 H1   HW0      0.679100        1.0080           
   35071 A    8768 TIP4 H2   HW0      0.679100        1.0080           
   35072 A    8768 TIP4 BD1  LP0     -1.358200        0.0000           
   35073 A    8769 TIP4 O1   OW0      0.000000       15.9990           
   35074 A    8769 TIP4 H1   HW0      0.679100        1.0080           
   35075 A    8769 TIP4 H2   HW0      0.679100        1.0080           
   35076 A    8769 TIP4 BD1  LP0     -1.358200        0.0000           
   35077 A    8770 TIP4 O1   OW0      0.000000       15.9990           
   35078 A    8770 TIP4 H1   HW0      0.679100        1.0080           
   35079 A    8770 TIP4 H2   HW0      0.679100        1.0080           
   35080 A    8770 TIP4 BD1  LP0     -1.358200        0.0000           
   35081 A    8771 TIP4 O1   OW0      0.000000       15.9990           
   35082 A    8771 TIP4 H1   HW0      0.679100        1.0080           
   35083 A    8771 TIP4 H2   HW0      0.679100        1.0080           
   35084 A    8771 TIP4 BD1  LP0     -1.358200        0.0000           
   35085 A    8772 TIP4 O1   OW0      0.000000       15.9990           
   35086 A    8772 TIP4 H1   HW0      0.679100        1.0080           
   35087 A    8772 TIP4 H2   HW0      0.679100        1.0080           
   35088 A    8772 TIP4 BD1  LP0     -1.358200        0.0000           
   35089 A    8773 TIP4 O1   OW0      0.000000       15.9990           
   35090 A    8773 TIP4 H1   HW0      0.679100        1.0080           
   35091 A    8773 TIP4 H2   HW0      0.679100        1.0080           
   35092 A    8773 TIP4 BD1  LP0     -1.358200        0.0000           
   35093 A    8774 TIP4 O1   OW0      0.000000       15.9990           
   35094 A    8774 TIP4 H1   HW0      0.679100        1.0080           
   35095 A    8774 TIP4 H2   HW0      0.679100        1.0080           
   35096 A    8774 TIP4 BD1  LP0     -1.358200        0.0000           
   35097 A    8775 TIP4 O1   OW0      0.000000       15.9990           
   35098 A    8775 TIP4 H1   HW0      0.679100        1.0080           
   35099 A    8775 TIP4 H2   HW0      0.679100        1.0080           
   35100 A    8775 TIP4 BD1  LP0     -1.358200        0.0000           
   35101 A    8776 TIP4 O1   OW0      0.000000       15.9990           
   35102 A    8776 TIP4 H1   HW0      0.679100        1.0080           
   35103 A    8776 TIP4 H2   HW0      0.679100        1.0080           
   35104 A    8776 TIP4 BD1  LP0     -1.358200        0.0000           
   35105 A    8777 TIP4 O1   OW0      0.000000       15.9990           
   35106 A    8777 TIP4 H1   HW0      0.679100        1.0080           
   35107 A    8777 TIP4 H2   HW0      0.679100        1.0080           
   35108 A    8777 TIP4 BD1  LP0     -1.358200        0.0000           
   35109 A    8778 TIP4 O1   OW0      0.000000       15.9990           
   35110 A    8778 TIP4 H1   HW0      0.679100        1.0080           
   35111 A    8778 TIP4 H2   HW0      0.679100        1.0080           
   35112 A    8778 TIP4 BD1  LP0     -1.358200        0.0000           
   35113 A    8779 TIP4 O1   OW0      0.000000       15.9990           
   35114 A    8779 TIP4 H1   HW0      0.679100        1.0080           
   35115 A    8779 TIP4 H2   HW0      0.679100        1.0080           
   35116 A    8779 TIP4 BD1  LP0     -1.358200        0.0000           
   35117 A    8780 TIP4 O1   OW0      0.000000       15.9990           
   35118 A    8780 TIP4 H1   HW0      0.679100        1.0080           
   35119 A    8780 TIP4 H2   HW0      0.679100        1.0080           
   35120 A    8780 TIP4 BD1  LP0     -1.358200        0.0000           
   35121 A    8781 TIP4 O1   OW0      0.000000       15.9990           
   35122 A    8781 TIP4 H1   HW0      0.679100        1.0080           
   35123 A    8781 TIP4 H2   HW0      0.679100        1.0080           
   35124 A    8781 TIP4 BD1  LP0     -1.358200        0.0000           
   35125 A    8782 TIP4 O1   OW0      0.000000       15.9990           
   35126 A    8782 TIP4 H1   HW0      0.679100        1.0080           
   35127 A    8782 TIP4 H2   HW0      0.679100        1.0080           
   35128 A    8782 TIP4 BD1  LP0     -1.358200        0.0000           
   35129 A    8783 TIP4 O1   OW0      0.000000       15.9990           
   35130 A    8783 TIP4 H1   HW0      0.679100        1.0080           
   35131 A    8783 TIP4 H2   HW0      0.679100        1.0080           
   35132 A    8783 TIP4 BD1  LP0     -1.358200        0.0000           
   35133 A    8784 TIP4 O1   OW0      0.000000       15.9990           
   35134 A    8784 TIP4 H1   HW0      0.679100        1.0080           
   35135 A    8784 TIP4 H2   HW0      0.679100        1.0080           
   35136 A    8784 TIP4 BD1  LP0     -1.358200        0.0000           
   35137 A    8785 TIP4 O1   OW0      0.000000       15.9990           
   35138 A    8785 TIP4 H1   HW0      0.679100        1.0080           
   35139 A    8785 TIP4 H2   HW0      0.679100        1.0080           
   35140 A    8785 TIP4 BD1  LP0     -1.358200        0.0000           
   35141 A    8786 TIP4 O1   OW0      0.000000       15.9990           
   35142 A    8786 TIP4 H1   HW0      0.679100        1.0080           
   35143 A    8786 TIP4 H2   HW0      0.679100        1.0080           
   35144 A    8786 TIP4 BD1  LP0     -1.358200        0.0000           
   35145 A    8787 TIP4 O1   OW0      0.000000       15.9990           
   35146 A    8787 TIP4 H1   HW0      0.679100        1.0080           
   35147 A    8787 TIP4 H2   HW0      0.679100        1.0080           
   35148 A    8787 TIP4 BD1  LP0     -1.358200        0.0000           
   35149 A    8788 TIP4 O1   OW0      0.000000       15.9990           
   35150 A    8788 TIP4 H1   HW0      0.679100        1.0080           
   35151 A    8788 TIP4 H2   HW0      0.679100        1.0080           
   35152 A    8788 TIP4 BD1  LP0     -1.358200        0.0000           
   35153 A    8789 TIP4 O1   OW0      0.000000       15.9990           
   35154 A    8789 TIP4 H1   HW0      0.679100        1.0080           
   35155 A    8789 TIP4 H2   HW0      0.679100        1.0080           
   35156 A    8789 TIP4 BD1  LP0     -1.358200        0.0000           
   35157 A    8790 TIP4 O1   OW0      0.000000       15.9990           
   35158 A    8790 TIP4 H1   HW0      0.679100        1.0080           
   35159 A    8790 TIP4 H2   HW0      0.679100        1.0080           
   35160 A    8790 TIP4 BD1  LP0     -1.358200        0.0000           
   35161 A    8791 TIP4 O1   OW0      0.000000       15.9990           
   35162 A    8791 TIP4 H1   HW0      0.679100        1.0080           
   35163 A    8791 TIP4 H2   HW0      0.679100        1.0080           
   35164 A    8791 TIP4 BD1  LP0     -1.358200        0.0000           
   35165 A    8792 TIP4 O1   OW0      0.000000       15.9990           
   35166 A    8792 TIP4 H1   HW0      0.679100        1.0080           
   35167 A    8792 TIP4 H2   HW0      0.679100        1.0080           
   35168 A    8792 TIP4 BD1  LP0     -1.358200        0.0000           
   35169 A    8793 TIP4 O1   OW0      0.000000       15.9990           
   35170 A    8793 TIP4 H1   HW0      0.679100        1.0080           
   35171 A    8793 TIP4 H2   HW0      0.679100        1.0080           
   35172 A    8793 TIP4 BD1  LP0     -1.358200        0.0000           
   35173 A    8794 TIP4 O1   OW0      0.000000       15.9990           
   35174 A    8794 TIP4 H1   HW0      0.679100        1.0080           
   35175 A    8794 TIP4 H2   HW0      0.679100        1.0080           
   35176 A    8794 TIP4 BD1  LP0     -1.358200        0.0000           
   35177 A    8795 TIP4 O1   OW0      0.000000       15.9990           
   35178 A    8795 TIP4 H1   HW0      0.679100        1.0080           
   35179 A    8795 TIP4 H2   HW0      0.679100        1.0080           
   35180 A    8795 TIP4 BD1  LP0     -1.358200        0.0000           
   35181 A    8796 TIP4 O1   OW0      0.000000       15.9990           
   35182 A    8796 TIP4 H1   HW0      0.679100        1.0080           
   35183 A    8796 TIP4 H2   HW0      0.679100        1.0080           
   35184 A    8796 TIP4 BD1  LP0     -1.358200        0.0000           
   35185 A    8797 TIP4 O1   OW0      0.000000       15.9990           
   35186 A    8797 TIP4 H1   HW0      0.679100        1.0080           
   35187 A    8797 TIP4 H2   HW0      0.679100        1.0080           
   35188 A    8797 TIP4 BD1  LP0     -1.358200        0.0000           
   35189 A    8798 TIP4 O1   OW0      0.000000       15.9990           
   35190 A    8798 TIP4 H1   HW0      0.679100        1.0080           
   35191 A    8798 TIP4 H2   HW0      0.679100        1.0080           
   35192 A    8798 TIP4 BD1  LP0     -1.358200        0.0000           
   35193 A    8799 TIP4 O1   OW0      0.000000       15.9990           
   35194 A    8799 TIP4 H1   HW0      0.679100        1.0080           
   35195 A    8799 TIP4 H2   HW0      0.679100        1.0080           
   35196 A    8799 TIP4 BD1  LP0     -1.358200        0.0000           
   35197 A    8800 TIP4 O1   OW0      0.000000       15.9990           
   35198 A    8800 TIP4 H1   HW0      0.679100        1.0080           
   35199 A    8800 TIP4 H2   HW0      0.679100        1.0080           
   35200 A    8800 TIP4 BD1  LP0     -1.358200        0.0000           
   35201 A    8801 TIP4 O1   OW0      0.000000       15.9990           
   35202 A    8801 TIP4 H1   HW0      0.679100        1.0080           
   35203 A    8801 TIP4 H2   HW0      0.679100        1.0080           
   35204 A    8801 TIP4 BD1  LP0     -1.358200        0.0000           
   35205 A    8802 TIP4 O1   OW0      0.000000       15.9990           
   35206 A    8802 TIP4 H1   HW0      0.679100        1.0080           
   35207 A    8802 TIP4 H2   HW0      0.679100        1.0080           
   35208 A    8802 TIP4 BD1  LP0     -1.358200        0.0000           
   35209 A    8803 TIP4 O1   OW0      0.000000       15.9990           
   35210 A    8803 TIP4 H1   HW0      0.679100        1.0080           
   35211 A    8803 TIP4 H2   HW0      0.679100        1.0080           
   35212 A    8803 TIP4 BD1  LP0     -1.358200        0.0000           
   35213 A    8804 TIP4 O1   OW0      0.000000       15.9990           
   35214 A    8804 TIP4 H1   HW0      0.679100        1.0080           
   35215 A    8804 TIP4 H2   HW0      0.679100        1.0080           
   35216 A    8804 TIP4 BD1  LP0     -1.358200        0.0000           
   35217 A    8805 TIP4 O1   OW0      0.000000       15.9990           
   35218 A    8805 TIP4 H1   HW0      0.679100        1.0080           
   35219 A    8805 TIP4 H2   HW0      0.679100        1.0080           
   35220 A    8805 TIP4 BD1  LP0     -1.358200        0.0000           
   35221 A    8806 TIP4 O1   OW0      0.000000       15.9990           
   35222 A    8806 TIP4 H1   HW0      0.679100        1.0080           
   35223 A    8806 TIP4 H2   HW0      0.679100        1.0080           
   35224 A    8806 TIP4 BD1  LP0     -1.358200        0.0000           
   35225 A    8807 TIP4 O1   OW0      0.000000       15.9990           
   35226 A    8807 TIP4 H1   HW0      0.679100        1.0080           
   35227 A    8807 TIP4 H2   HW0      0.679100        1.0080           
   35228 A    8807 TIP4 BD1  LP0     -1.358200        0.0000           
   35229 A    8808 TIP4 O1   OW0      0.000000       15.9990           
   35230 A    8808 TIP4 H1   HW0      0.679100        1.0080           
   35231 A    8808 TIP4 H2   HW0      0.679100        1.0080           
   35232 A    8808 TIP4 BD1  LP0     -1.358200        0.0000           
   35233 A    8809 TIP4 O1   OW0      0.000000       15.9990           
   35234 A    8809 TIP4 H1   HW0      0.679100        1.0080           
   35235 A    8809 TIP4 H2   HW0      0.679100        1.0080           
   35236 A    8809 TIP4 BD1  LP0     -1.358200        0.0000           
   35237 A    8810 TIP4 O1   OW0      0.000000       15.9990           
   35238 A    8810 TIP4 H1   HW0      0.679100        1.0080           
   35239 A    8810 TIP4 H2   HW0      0.679100        1.0080           
   35240 A    8810 TIP4 BD1  LP0     -1.358200        0.0000           
   35241 A    8811 TIP4 O1   OW0      0.000000       15.9990           
   35242 A    8811 TIP4 H1   HW0      0.679100        1.0080           
   35243 A    8811 TIP4 H2   HW0      0.679100        1.0080           
   35244 A    8811 TIP4 BD1  LP0     -1.358200        0.0000           
   35245 A    8812 TIP4 O1   OW0      0.000000       15.9990           
   35246 A    8812 TIP4 H1   HW0      0.679100        1.0080           
   35247 A    8812 TIP4 H2   HW0      0.679100        1.0080           
   35248 A    8812 TIP4 BD1  LP0     -1.358200        0.0000           
   35249 A    8813 TIP4 O1   OW0      0.000000       15.9990           
   35250 A    8813 TIP4 H1   HW0      0.679100        1.0080           
   35251 A    8813 TIP4 H2   HW0      0.679100        1.0080           
   35252 A    8813 TIP4 BD1  LP0     -1.358200        0.0000           
   35253 A    8814 TIP4 O1   OW0      0.000000       15.9990           
   35254 A    8814 TIP4 H1   HW0      0.679100        1.0080           
   35255 A    8814 TIP4 H2   HW0      0.679100        1.0080           
   35256 A    8814 TIP4 BD1  LP0     -1.358200        0.0000           
   35257 A    8815 TIP4 O1   OW0      0.000000       15.9990           
   35258 A    8815 TIP4 H1   HW0      0.679100        1.0080           
   35259 A    8815 TIP4 H2   HW0      0.679100        1.0080           
   35260 A    8815 TIP4 BD1  LP0     -1.358200        0.0000           
   35261 A    8816 TIP4 O1   OW0      0.000000       15.9990           
   35262 A    8816 TIP4 H1   HW0      0.679100        1.0080           
   35263 A    8816 TIP4 H2   HW0      0.679100        1.0080           
   35264 A    8816 TIP4 BD1  LP0     -1.358200        0.0000           
   35265 A    8817 TIP4 O1   OW0      0.000000       15.9990           
   35266 A    8817 TIP4 H1   HW0      0.679100        1.0080           
   35267 A    8817 TIP4 H2   HW0      0.679100        1.0080           
   35268 A    8817 TIP4 BD1  LP0     -1.358200        0.0000           
   35269 A    8818 TIP4 O1   OW0      0.000000       15.9990           
   35270 A    8818 TIP4 H1   HW0      0.679100        1.0080           
   35271 A    8818 TIP4 H2   HW0      0.679100        1.0080           
   35272 A    8818 TIP4 BD1  LP0     -1.358200        0.0000           
   35273 A    8819 TIP4 O1   OW0      0.000000       15.9990           
   35274 A    8819 TIP4 H1   HW0      0.679100        1.0080           
   35275 A    8819 TIP4 H2   HW0      0.679100        1.0080           
   35276 A    8819 TIP4 BD1  LP0     -1.358200        0.0000           
   35277 A    8820 TIP4 O1   OW0      0.000000       15.9990           
   35278 A    8820 TIP4 H1   HW0      0.679100        1.0080           
   35279 A    8820 TIP4 H2   HW0      0.679100        1.0080           
   35280 A    8820 TIP4 BD1  LP0     -1.358200        0.0000           
   35281 A    8821 TIP4 O1   OW0      0.000000       15.9990           
   35282 A    8821 TIP4 H1   HW0      0.679100        1.0080           
   35283 A    8821 TIP4 H2   HW0      0.679100        1.0080           
   35284 A    8821 TIP4 BD1  LP0     -1.358200        0.0000           
   35285 A    8822 TIP4 O1   OW0      0.000000       15.9990           
   35286 A    8822 TIP4 H1   HW0      0.679100        1.0080           
   35287 A    8822 TIP4 H2   HW0      0.679100        1.0080           
   35288 A    8822 TIP4 BD1  LP0     -1.358200        0.0000           
   35289 A    8823 TIP4 O1   OW0      0.000000       15.9990           
   35290 A    8823 TIP4 H1   HW0      0.679100        1.0080           
   35291 A    8823 TIP4 H2   HW0      0.679100        1.0080           
   35292 A    8823 TIP4 BD1  LP0     -1.358200        0.0000           
   35293 A    8824 TIP4 O1   OW0      0.000000       15.9990           
   35294 A    8824 TIP4 H1   HW0      0.679100        1.0080           
   35295 A    8824 TIP4 H2   HW0      0.679100        1.0080           
   35296 A    8824 TIP4 BD1  LP0     -1.358200        0.0000           
   35297 A    8825 TIP4 O1   OW0      0.000000       15.9990           
   35298 A    8825 TIP4 H1   HW0      0.679100        1.0080           
   35299 A    8825 TIP4 H2   HW0      0.679100        1.0080           
   35300 A    8825 TIP4 BD1  LP0     -1.358200        0.0000           
   35301 A    8826 TIP4 O1   OW0      0.000000       15.9990           
   35302 A    8826 TIP4 H1   HW0      0.679100        1.0080           
   35303 A    8826 TIP4 H2   HW0      0.679100        1.0080           
   35304 A    8826 TIP4 BD1  LP0     -1.358200        0.0000           
   35305 A    8827 TIP4 O1   OW0      0.000000       15.9990           
   35306 A    8827 TIP4 H1   HW0      0.679100        1.0080           
   35307 A    8827 TIP4 H2   HW0      0.679100        1.0080           
   35308 A    8827 TIP4 BD1  LP0     -1.358200        0.0000           
   35309 A    8828 TIP4 O1   OW0      0.000000       15.9990           
   35310 A    8828 TIP4 H1   HW0      0.679100        1.0080           
   35311 A    8828 TIP4 H2   HW0      0.679100        1.0080           
   35312 A    8828 TIP4 BD1  LP0     -1.358200        0.0000           
   35313 A    8829 TIP4 O1   OW0      0.000000       15.9990           
   35314 A    8829 TIP4 H1   HW0      0.679100        1.0080           
   35315 A    8829 TIP4 H2   HW0      0.679100        1.0080           
   35316 A    8829 TIP4 BD1  LP0     -1.358200        0.0000           
   35317 A    8830 TIP4 O1   OW0      0.000000       15.9990           
   35318 A    8830 TIP4 H1   HW0      0.679100        1.0080           
   35319 A    8830 TIP4 H2   HW0      0.679100        1.0080           
   35320 A    8830 TIP4 BD1  LP0     -1.358200        0.0000           
   35321 A    8831 TIP4 O1   OW0      0.000000       15.9990           
   35322 A    8831 TIP4 H1   HW0      0.679100        1.0080           
   35323 A    8831 TIP4 H2   HW0      0.679100        1.0080           
   35324 A    8831 TIP4 BD1  LP0     -1.358200        0.0000           
   35325 A    8832 TIP4 O1   OW0      0.000000       15.9990           
   35326 A    8832 TIP4 H1   HW0      0.679100        1.0080           
   35327 A    8832 TIP4 H2   HW0      0.679100        1.0080           
   35328 A    8832 TIP4 BD1  LP0     -1.358200        0.0000           
   35329 A    8833 TIP4 O1   OW0      0.000000       15.9990           
   35330 A    8833 TIP4 H1   HW0      0.679100        1.0080           
   35331 A    8833 TIP4 H2   HW0      0.679100        1.0080           
   35332 A    8833 TIP4 BD1  LP0     -1.358200        0.0000           
   35333 A    8834 TIP4 O1   OW0      0.000000       15.9990           
   35334 A    8834 TIP4 H1   HW0      0.679100        1.0080           
   35335 A    8834 TIP4 H2   HW0      0.679100        1.0080           
   35336 A    8834 TIP4 BD1  LP0     -1.358200        0.0000           
   35337 A    8835 TIP4 O1   OW0      0.000000       15.9990           
   35338 A    8835 TIP4 H1   HW0      0.679100        1.0080           
   35339 A    8835 TIP4 H2   HW0      0.679100        1.0080           
   35340 A    8835 TIP4 BD1  LP0     -1.358200        0.0000           
   35341 A    8836 TIP4 O1   OW0      0.000000       15.9990           
   35342 A    8836 TIP4 H1   HW0      0.679100        1.0080           
   35343 A    8836 TIP4 H2   HW0      0.679100        1.0080           
   35344 A    8836 TIP4 BD1  LP0     -1.358200        0.0000           
   35345 A    8837 TIP4 O1   OW0      0.000000       15.9990           
   35346 A    8837 TIP4 H1   HW0      0.679100        1.0080           
   35347 A    8837 TIP4 H2   HW0      0.679100        1.0080           
   35348 A    8837 TIP4 BD1  LP0     -1.358200        0.0000           
   35349 A    8838 TIP4 O1   OW0      0.000000       15.9990           
   35350 A    8838 TIP4 H1   HW0      0.679100        1.0080           
   35351 A    8838 TIP4 H2   HW0      0.679100        1.0080           
   35352 A    8838 TIP4 BD1  LP0     -1.358200        0.0000           
   35353 A    8839 TIP4 O1   OW0      0.000000       15.9990           
   35354 A    8839 TIP4 H1   HW0      0.679100        1.0080           
   35355 A    8839 TIP4 H2   HW0      0.679100        1.0080           
   35356 A    8839 TIP4 BD1  LP0     -1.358200        0.0000           
   35357 A    8840 TIP4 O1   OW0      0.000000       15.9990           
   35358 A    8840 TIP4 H1   HW0      0.679100        1.0080           
   35359 A    8840 TIP4 H2   HW0      0.679100        1.0080           
   35360 A    8840 TIP4 BD1  LP0     -1.358200        0.0000           
   35361 A    8841 TIP4 O1   OW0      0.000000       15.9990           
   35362 A    8841 TIP4 H1   HW0      0.679100        1.0080           
   35363 A    8841 TIP4 H2   HW0      0.679100        1.0080           
   35364 A    8841 TIP4 BD1  LP0     -1.358200        0.0000           
   35365 A    8842 TIP4 O1   OW0      0.000000       15.9990           
   35366 A    8842 TIP4 H1   HW0      0.679100        1.0080           
   35367 A    8842 TIP4 H2   HW0      0.679100        1.0080           
   35368 A    8842 TIP4 BD1  LP0     -1.358200        0.0000           
   35369 A    8843 TIP4 O1   OW0      0.000000       15.9990           
   35370 A    8843 TIP4 H1   HW0      0.679100        1.0080           
   35371 A    8843 TIP4 H2   HW0      0.679100        1.0080           
   35372 A    8843 TIP4 BD1  LP0     -1.358200        0.0000           
   35373 A    8844 TIP4 O1   OW0      0.000000       15.9990           
   35374 A    8844 TIP4 H1   HW0      0.679100        1.0080           
   35375 A    8844 TIP4 H2   HW0      0.679100        1.0080           
   35376 A    8844 TIP4 BD1  LP0     -1.358200        0.0000           
   35377 A    8845 TIP4 O1   OW0      0.000000       15.9990           
   35378 A    8845 TIP4 H1   HW0      0.679100        1.0080           
   35379 A    8845 TIP4 H2   HW0      0.679100        1.0080           
   35380 A    8845 TIP4 BD1  LP0     -1.358200        0.0000           
   35381 A    8846 TIP4 O1   OW0      0.000000       15.9990           
   35382 A    8846 TIP4 H1   HW0      0.679100        1.0080           
   35383 A    8846 TIP4 H2   HW0      0.679100        1.0080           
   35384 A    8846 TIP4 BD1  LP0     -1.358200        0.0000           
   35385 A    8847 TIP4 O1   OW0      0.000000       15.9990           
   35386 A    8847 TIP4 H1   HW0      0.679100        1.0080           
   35387 A    8847 TIP4 H2   HW0      0.679100        1.0080           
   35388 A    8847 TIP4 BD1  LP0     -1.358200        0.0000           
   35389 A    8848 TIP4 O1   OW0      0.000000       15.9990           
   35390 A    8848 TIP4 H1   HW0      0.679100        1.0080           
   35391 A    8848 TIP4 H2   HW0      0.679100        1.0080           
   35392 A    8848 TIP4 BD1  LP0     -1.358200        0.0000           
   35393 A    8849 TIP4 O1   OW0      0.000000       15.9990           
   35394 A    8849 TIP4 H1   HW0      0.679100        1.0080           
   35395 A    8849 TIP4 H2   HW0      0.679100        1.0080           
   35396 A    8849 TIP4 BD1  LP0     -1.358200        0.0000           
   35397 A    8850 TIP4 O1   OW0      0.000000       15.9990           
   35398 A    8850 TIP4 H1   HW0      0.679100        1.0080           
   35399 A    8850 TIP4 H2   HW0      0.679100        1.0080           
   35400 A    8850 TIP4 BD1  LP0     -1.358200        0.0000           
   35401 A    8851 TIP4 O1   OW0      0.000000       15.9990           
   35402 A    8851 TIP4 H1   HW0      0.679100        1.0080           
   35403 A    8851 TIP4 H2   HW0      0.679100        1.0080           
   35404 A    8851 TIP4 BD1  LP0     -1.358200        0.0000           
   35405 A    8852 TIP4 O1   OW0      0.000000       15.9990           
   35406 A    8852 TIP4 H1   HW0      0.679100        1.0080           
   35407 A    8852 TIP4 H2   HW0      0.679100        1.0080           
   35408 A    8852 TIP4 BD1  LP0     -1.358200        0.0000           
   35409 A    8853 TIP4 O1   OW0      0.000000       15.9990           
   35410 A    8853 TIP4 H1   HW0      0.679100        1.0080           
   35411 A    8853 TIP4 H2   HW0      0.679100        1.0080           
   35412 A    8853 TIP4 BD1  LP0     -1.358200        0.0000           
   35413 A    8854 TIP4 O1   OW0      0.000000       15.9990           
   35414 A    8854 TIP4 H1   HW0      0.679100        1.0080           
   35415 A    8854 TIP4 H2   HW0      0.679100        1.0080           
   35416 A    8854 TIP4 BD1  LP0     -1.358200        0.0000           
   35417 A    8855 TIP4 O1   OW0      0.000000       15.9990           
   35418 A    8855 TIP4 H1   HW0      0.679100        1.0080           
   35419 A    8855 TIP4 H2   HW0      0.679100        1.0080           
   35420 A    8855 TIP4 BD1  LP0     -1.358200        0.0000           
   35421 A    8856 TIP4 O1   OW0      0.000000       15.9990           
   35422 A    8856 TIP4 H1   HW0      0.679100        1.0080           
   35423 A    8856 TIP4 H2   HW0      0.679100        1.0080           
   35424 A    8856 TIP4 BD1  LP0     -1.358200        0.0000           
   35425 A    8857 TIP4 O1   OW0      0.000000       15.9990           
   35426 A    8857 TIP4 H1   HW0      0.679100        1.0080           
   35427 A    8857 TIP4 H2   HW0      0.679100        1.0080           
   35428 A    8857 TIP4 BD1  LP0     -1.358200        0.0000           
   35429 A    8858 TIP4 O1   OW0      0.000000       15.9990           
   35430 A    8858 TIP4 H1   HW0      0.679100        1.0080           
   35431 A    8858 TIP4 H2   HW0      0.679100        1.0080           
   35432 A    8858 TIP4 BD1  LP0     -1.358200        0.0000           
   35433 A    8859 TIP4 O1   OW0      0.000000       15.9990           
   35434 A    8859 TIP4 H1   HW0      0.679100        1.0080           
   35435 A    8859 TIP4 H2   HW0      0.679100        1.0080           
   35436 A    8859 TIP4 BD1  LP0     -1.358200        0.0000           
   35437 A    8860 TIP4 O1   OW0      0.000000       15.9990           
   35438 A    8860 TIP4 H1   HW0      0.679100        1.0080           
   35439 A    8860 TIP4 H2   HW0      0.679100        1.0080           
   35440 A    8860 TIP4 BD1  LP0     -1.358200        0.0000           
   35441 A    8861 TIP4 O1   OW0      0.000000       15.9990           
   35442 A    8861 TIP4 H1   HW0      0.679100        1.0080           
   35443 A    8861 TIP4 H2   HW0      0.679100        1.0080           
   35444 A    8861 TIP4 BD1  LP0     -1.358200        0.0000           
   35445 A    8862 TIP4 O1   OW0      0.000000       15.9990           
   35446 A    8862 TIP4 H1   HW0      0.679100        1.0080           
   35447 A    8862 TIP4 H2   HW0      0.679100        1.0080           
   35448 A    8862 TIP4 BD1  LP0     -1.358200        0.0000           
   35449 A    8863 TIP4 O1   OW0      0.000000       15.9990           
   35450 A    8863 TIP4 H1   HW0      0.679100        1.0080           
   35451 A    8863 TIP4 H2   HW0      0.679100        1.0080           
   35452 A    8863 TIP4 BD1  LP0     -1.358200        0.0000           
   35453 A    8864 TIP4 O1   OW0      0.000000       15.9990           
   35454 A    8864 TIP4 H1   HW0      0.679100        1.0080           
   35455 A    8864 TIP4 H2   HW0      0.679100        1.0080           
   35456 A    8864 TIP4 BD1  LP0     -1.358200        0.0000           
   35457 A    8865 TIP4 O1   OW0      0.000000       15.9990           
   35458 A    8865 TIP4 H1   HW0      0.679100        1.0080           
   35459 A    8865 TIP4 H2   HW0      0.679100        1.0080           
   35460 A    8865 TIP4 BD1  LP0     -1.358200        0.0000           
   35461 A    8866 TIP4 O1   OW0      0.000000       15.9990           
   35462 A    8866 TIP4 H1   HW0      0.679100        1.0080           
   35463 A    8866 TIP4 H2   HW0      0.679100        1.0080           
   35464 A    8866 TIP4 BD1  LP0     -1.358200        0.0000           
   35465 A    8867 TIP4 O1   OW0      0.000000       15.9990           
   35466 A    8867 TIP4 H1   HW0      0.679100        1.0080           
   35467 A    8867 TIP4 H2   HW0      0.679100        1.0080           
   35468 A    8867 TIP4 BD1  LP0     -1.358200        0.0000           
   35469 A    8868 TIP4 O1   OW0      0.000000       15.9990           
   35470 A    8868 TIP4 H1   HW0      0.679100        1.0080           
   35471 A    8868 TIP4 H2   HW0      0.679100        1.0080           
   35472 A    8868 TIP4 BD1  LP0     -1.358200        0.0000           
   35473 A    8869 TIP4 O1   OW0      0.000000       15.9990           
   35474 A    8869 TIP4 H1   HW0      0.679100        1.0080           
   35475 A    8869 TIP4 H2   HW0      0.679100        1.0080           
   35476 A    8869 TIP4 BD1  LP0     -1.358200        0.0000           
   35477 A    8870 TIP4 O1   OW0      0.000000       15.9990           
   35478 A    8870 TIP4 H1   HW0      0.679100        1.0080           
   35479 A    8870 TIP4 H2   HW0      0.679100        1.0080           
   35480 A    8870 TIP4 BD1  LP0     -1.358200        0.0000           
   35481 A    8871 TIP4 O1   OW0      0.000000       15.9990           
   35482 A    8871 TIP4 H1   HW0      0.679100        1.0080           
   35483 A    8871 TIP4 H2   HW0      0.679100        1.0080           
   35484 A    8871 TIP4 BD1  LP0     -1.358200        0.0000           
   35485 A    8872 TIP4 O1   OW0      0.000000       15.9990           
   35486 A    8872 TIP4 H1   HW0      0.679100        1.0080           
   35487 A    8872 TIP4 H2   HW0      0.679100        1.0080           
   35488 A    8872 TIP4 BD1  LP0     -1.358200        0.0000           
   35489 A    8873 TIP4 O1   OW0      0.000000       15.9990           
   35490 A    8873 TIP4 H1   HW0      0.679100        1.0080           
   35491 A    8873 TIP4 H2   HW0      0.679100        1.0080           
   35492 A    8873 TIP4 BD1  LP0     -1.358200        0.0000           
   35493 A    8874 TIP4 O1   OW0      0.000000       15.9990           
   35494 A    8874 TIP4 H1   HW0      0.679100        1.0080           
   35495 A    8874 TIP4 H2   HW0      0.679100        1.0080           
   35496 A    8874 TIP4 BD1  LP0     -1.358200        0.0000           
   35497 A    8875 TIP4 O1   OW0      0.000000       15.9990           
   35498 A    8875 TIP4 H1   HW0      0.679100        1.0080           
   35499 A    8875 TIP4 H2   HW0      0.679100        1.0080           
   35500 A    8875 TIP4 BD1  LP0     -1.358200        0.0000           
   35501 A    8876 TIP4 O1   OW0      0.000000       15.9990           
   35502 A    8876 TIP4 H1   HW0      0.679100        1.0080           
   35503 A    8876 TIP4 H2   HW0      0.679100        1.0080           
   35504 A    8876 TIP4 BD1  LP0     -1.358200        0.0000           
   35505 A    8877 TIP4 O1   OW0      0.000000       15.9990           
   35506 A    8877 TIP4 H1   HW0      0.679100        1.0080           
   35507 A    8877 TIP4 H2   HW0      0.679100        1.0080           
   35508 A    8877 TIP4 BD1  LP0     -1.358200        0.0000           
   35509 A    8878 TIP4 O1   OW0      0.000000       15.9990           
   35510 A    8878 TIP4 H1   HW0      0.679100        1.0080           
   35511 A    8878 TIP4 H2   HW0      0.679100        1.0080           
   35512 A    8878 TIP4 BD1  LP0     -1.358200        0.0000           
   35513 A    8879 TIP4 O1   OW0      0.000000       15.9990           
   35514 A    8879 TIP4 H1   HW0      0.679100        1.0080           
   35515 A    8879 TIP4 H2   HW0      0.679100        1.0080           
   35516 A    8879 TIP4 BD1  LP0     -1.358200        0.0000           
   35517 A    8880 TIP4 O1   OW0      0.000000       15.9990           
   35518 A    8880 TIP4 H1   HW0      0.679100        1.0080           
   35519 A    8880 TIP4 H2   HW0      0.679100        1.0080           
   35520 A    8880 TIP4 BD1  LP0     -1.358200        0.0000           
   35521 A    8881 TIP4 O1   OW0      0.000000       15.9990           
   35522 A    8881 TIP4 H1   HW0      0.679100        1.0080           
   35523 A    8881 TIP4 H2   HW0      0.679100        1.0080           
   35524 A    8881 TIP4 BD1  LP0     -1.358200        0.0000           
   35525 A    8882 TIP4 O1   OW0      0.000000       15.9990           
   35526 A    8882 TIP4 H1   HW0      0.679100        1.0080           
   35527 A    8882 TIP4 H2   HW0      0.679100        1.0080           
   35528 A    8882 TIP4 BD1  LP0     -1.358200        0.0000           
   35529 A    8883 TIP4 O1   OW0      0.000000       15.9990           
   35530 A    8883 TIP4 H1   HW0      0.679100        1.0080           
   35531 A    8883 TIP4 H2   HW0      0.679100        1.0080           
   35532 A    8883 TIP4 BD1  LP0     -1.358200        0.0000           
   35533 A    8884 TIP4 O1   OW0      0.000000       15.9990           
   35534 A    8884 TIP4 H1   HW0      0.679100        1.0080           
   35535 A    8884 TIP4 H2   HW0      0.679100        1.0080           
   35536 A    8884 TIP4 BD1  LP0     -1.358200        0.0000           
   35537 A    8885 TIP4 O1   OW0      0.000000       15.9990           
   35538 A    8885 TIP4 H1   HW0      0.679100        1.0080           
   35539 A    8885 TIP4 H2   HW0      0.679100        1.0080           
   35540 A    8885 TIP4 BD1  LP0     -1.358200        0.0000           
   35541 A    8886 TIP4 O1   OW0      0.000000       15.9990           
   35542 A    8886 TIP4 H1   HW0      0.679100        1.0080           
   35543 A    8886 TIP4 H2   HW0      0.679100        1.0080           
   35544 A    8886 TIP4 BD1  LP0     -1.358200        0.0000           
   35545 A    8887 TIP4 O1   OW0      0.000000       15.9990           
   35546 A    8887 TIP4 H1   HW0      0.679100        1.0080           
   35547 A    8887 TIP4 H2   HW0      0.679100        1.0080           
   35548 A    8887 TIP4 BD1  LP0     -1.358200        0.0000           
   35549 A    8888 TIP4 O1   OW0      0.000000       15.9990           
   35550 A    8888 TIP4 H1   HW0      0.679100        1.0080           
   35551 A    8888 TIP4 H2   HW0      0.679100        1.0080           
   35552 A    8888 TIP4 BD1  LP0     -1.358200        0.0000           
   35553 A    8889 TIP4 O1   OW0      0.000000       15.9990           
   35554 A    8889 TIP4 H1   HW0      0.679100        1.0080           
   35555 A    8889 TIP4 H2   HW0      0.679100        1.0080           
   35556 A    8889 TIP4 BD1  LP0     -1.358200        0.0000           
   35557 A    8890 TIP4 O1   OW0      0.000000       15.9990           
   35558 A    8890 TIP4 H1   HW0      0.679100        1.0080           
   35559 A    8890 TIP4 H2   HW0      0.679100        1.0080           
   35560 A    8890 TIP4 BD1  LP0     -1.358200        0.0000           
   35561 A    8891 TIP4 O1   OW0      0.000000       15.9990           
   35562 A    8891 TIP4 H1   HW0      0.679100        1.0080           
   35563 A    8891 TIP4 H2   HW0      0.679100        1.0080           
   35564 A    8891 TIP4 BD1  LP0     -1.358200        0.0000           
   35565 A    8892 TIP4 O1   OW0      0.000000       15.9990           
   35566 A    8892 TIP4 H1   HW0      0.679100        1.0080           
   35567 A    8892 TIP4 H2   HW0      0.679100        1.0080           
   35568 A    8892 TIP4 BD1  LP0     -1.358200        0.0000           
   35569 A    8893 TIP4 O1   OW0      0.000000       15.9990           
   35570 A    8893 TIP4 H1   HW0      0.679100        1.0080           
   35571 A    8893 TIP4 H2   HW0      0.679100        1.0080           
   35572 A    8893 TIP4 BD1  LP0     -1.358200        0.0000           
   35573 A    8894 TIP4 O1   OW0      0.000000       15.9990           
   35574 A    8894 TIP4 H1   HW0      0.679100        1.0080           
   35575 A    8894 TIP4 H2   HW0      0.679100        1.0080           
   35576 A    8894 TIP4 BD1  LP0     -1.358200        0.0000           
   35577 A    8895 TIP4 O1   OW0      0.000000       15.9990           
   35578 A    8895 TIP4 H1   HW0      0.679100        1.0080           
   35579 A    8895 TIP4 H2   HW0      0.679100        1.0080           
   35580 A    8895 TIP4 BD1  LP0     -1.358200        0.0000           
   35581 A    8896 TIP4 O1   OW0      0.000000       15.9990           
   35582 A    8896 TIP4 H1   HW0      0.679100        1.0080           
   35583 A    8896 TIP4 H2   HW0      0.679100        1.0080           
   35584 A    8896 TIP4 BD1  LP0     -1.358200        0.0000           
   35585 A    8897 TIP4 O1   OW0      0.000000       15.9990           
   35586 A    8897 TIP4 H1   HW0      0.679100        1.0080           
   35587 A    8897 TIP4 H2   HW0      0.679100        1.0080           
   35588 A    8897 TIP4 BD1  LP0     -1.358200        0.0000           
   35589 A    8898 TIP4 O1   OW0      0.000000       15.9990           
   35590 A    8898 TIP4 H1   HW0      0.679100        1.0080           
   35591 A    8898 TIP4 H2   HW0      0.679100        1.0080           
   35592 A    8898 TIP4 BD1  LP0     -1.358200        0.0000           
   35593 A    8899 TIP4 O1   OW0      0.000000       15.9990           
   35594 A    8899 TIP4 H1   HW0      0.679100        1.0080           
   35595 A    8899 TIP4 H2   HW0      0.679100        1.0080           
   35596 A    8899 TIP4 BD1  LP0     -1.358200        0.0000           
   35597 A    8900 TIP4 O1   OW0      0.000000       15.9990           
   35598 A    8900 TIP4 H1   HW0      0.679100        1.0080           
   35599 A    8900 TIP4 H2   HW0      0.679100        1.0080           
   35600 A    8900 TIP4 BD1  LP0     -1.358200        0.0000           
   35601 A    8901 TIP4 O1   OW0      0.000000       15.9990           
   35602 A    8901 TIP4 H1   HW0      0.679100        1.0080           
   35603 A    8901 TIP4 H2   HW0      0.679100        1.0080           
   35604 A    8901 TIP4 BD1  LP0     -1.358200        0.0000           
   35605 A    8902 TIP4 O1   OW0      0.000000       15.9990           
   35606 A    8902 TIP4 H1   HW0      0.679100        1.0080           
   35607 A    8902 TIP4 H2   HW0      0.679100        1.0080           
   35608 A    8902 TIP4 BD1  LP0     -1.358200        0.0000           
   35609 A    8903 TIP4 O1   OW0      0.000000       15.9990           
   35610 A    8903 TIP4 H1   HW0      0.679100        1.0080           
   35611 A    8903 TIP4 H2   HW0      0.679100        1.0080           
   35612 A    8903 TIP4 BD1  LP0     -1.358200        0.0000           
   35613 A    8904 TIP4 O1   OW0      0.000000       15.9990           
   35614 A    8904 TIP4 H1   HW0      0.679100        1.0080           
   35615 A    8904 TIP4 H2   HW0      0.679100        1.0080           
   35616 A    8904 TIP4 BD1  LP0     -1.358200        0.0000           
   35617 A    8905 TIP4 O1   OW0      0.000000       15.9990           
   35618 A    8905 TIP4 H1   HW0      0.679100        1.0080           
   35619 A    8905 TIP4 H2   HW0      0.679100        1.0080           
   35620 A    8905 TIP4 BD1  LP0     -1.358200        0.0000           
   35621 A    8906 TIP4 O1   OW0      0.000000       15.9990           
   35622 A    8906 TIP4 H1   HW0      0.679100        1.0080           
   35623 A    8906 TIP4 H2   HW0      0.679100        1.0080           
   35624 A    8906 TIP4 BD1  LP0     -1.358200        0.0000           
   35625 A    8907 TIP4 O1   OW0      0.000000       15.9990           
   35626 A    8907 TIP4 H1   HW0      0.679100        1.0080           
   35627 A    8907 TIP4 H2   HW0      0.679100        1.0080           
   35628 A    8907 TIP4 BD1  LP0     -1.358200        0.0000           
   35629 A    8908 TIP4 O1   OW0      0.000000       15.9990           
   35630 A    8908 TIP4 H1   HW0      0.679100        1.0080           
   35631 A    8908 TIP4 H2   HW0      0.679100        1.0080           
   35632 A    8908 TIP4 BD1  LP0     -1.358200        0.0000           
   35633 A    8909 TIP4 O1   OW0      0.000000       15.9990           
   35634 A    8909 TIP4 H1   HW0      0.679100        1.0080           
   35635 A    8909 TIP4 H2   HW0      0.679100        1.0080           
   35636 A    8909 TIP4 BD1  LP0     -1.358200        0.0000           
   35637 A    8910 TIP4 O1   OW0      0.000000       15.9990           
   35638 A    8910 TIP4 H1   HW0      0.679100        1.0080           
   35639 A    8910 TIP4 H2   HW0      0.679100        1.0080           
   35640 A    8910 TIP4 BD1  LP0     -1.358200        0.0000           
   35641 A    8911 TIP4 O1   OW0      0.000000       15.9990           
   35642 A    8911 TIP4 H1   HW0      0.679100        1.0080           
   35643 A    8911 TIP4 H2   HW0      0.679100        1.0080           
   35644 A    8911 TIP4 BD1  LP0     -1.358200        0.0000           
   35645 A    8912 TIP4 O1   OW0      0.000000       15.9990           
   35646 A    8912 TIP4 H1   HW0      0.679100        1.0080           
   35647 A    8912 TIP4 H2   HW0      0.679100        1.0080           
   35648 A    8912 TIP4 BD1  LP0     -1.358200        0.0000           
   35649 A    8913 TIP4 O1   OW0      0.000000       15.9990           
   35650 A    8913 TIP4 H1   HW0      0.679100        1.0080           
   35651 A    8913 TIP4 H2   HW0      0.679100        1.0080           
   35652 A    8913 TIP4 BD1  LP0     -1.358200        0.0000           
   35653 A    8914 TIP4 O1   OW0      0.000000       15.9990           
   35654 A    8914 TIP4 H1   HW0      0.679100        1.0080           
   35655 A    8914 TIP4 H2   HW0      0.679100        1.0080           
   35656 A    8914 TIP4 BD1  LP0     -1.358200        0.0000           
   35657 A    8915 TIP4 O1   OW0      0.000000       15.9990           
   35658 A    8915 TIP4 H1   HW0      0.679100        1.0080           
   35659 A    8915 TIP4 H2   HW0      0.679100        1.0080           
   35660 A    8915 TIP4 BD1  LP0     -1.358200        0.0000           
   35661 A    8916 TIP4 O1   OW0      0.000000       15.9990           
   35662 A    8916 TIP4 H1   HW0      0.679100        1.0080           
   35663 A    8916 TIP4 H2   HW0      0.679100        1.0080           
   35664 A    8916 TIP4 BD1  LP0     -1.358200        0.0000           
   35665 A    8917 TIP4 O1   OW0      0.000000       15.9990           
   35666 A    8917 TIP4 H1   HW0      0.679100        1.0080           
   35667 A    8917 TIP4 H2   HW0      0.679100        1.0080           
   35668 A    8917 TIP4 BD1  LP0     -1.358200        0.0000           
   35669 A    8918 TIP4 O1   OW0      0.000000       15.9990           
   35670 A    8918 TIP4 H1   HW0      0.679100        1.0080           
   35671 A    8918 TIP4 H2   HW0      0.679100        1.0080           
   35672 A    8918 TIP4 BD1  LP0     -1.358200        0.0000           
   35673 A    8919 TIP4 O1   OW0      0.000000       15.9990           
   35674 A    8919 TIP4 H1   HW0      0.679100        1.0080           
   35675 A    8919 TIP4 H2   HW0      0.679100        1.0080           
   35676 A    8919 TIP4 BD1  LP0     -1.358200        0.0000           
   35677 A    8920 TIP4 O1   OW0      0.000000       15.9990           
   35678 A    8920 TIP4 H1   HW0      0.679100        1.0080           
   35679 A    8920 TIP4 H2   HW0      0.679100        1.0080           
   35680 A    8920 TIP4 BD1  LP0     -1.358200        0.0000           
   35681 A    8921 TIP4 O1   OW0      0.000000       15.9990           
   35682 A    8921 TIP4 H1   HW0      0.679100        1.0080           
   35683 A    8921 TIP4 H2   HW0      0.679100        1.0080           
   35684 A    8921 TIP4 BD1  LP0     -1.358200        0.0000           
   35685 A    8922 TIP4 O1   OW0      0.000000       15.9990           
   35686 A    8922 TIP4 H1   HW0      0.679100        1.0080           
   35687 A    8922 TIP4 H2   HW0      0.679100        1.0080           
   35688 A    8922 TIP4 BD1  LP0     -1.358200        0.0000           
   35689 A    8923 TIP4 O1   OW0      0.000000       15.9990           
   35690 A    8923 TIP4 H1   HW0      0.679100        1.0080           
   35691 A    8923 TIP4 H2   HW0      0.679100        1.0080           
   35692 A    8923 TIP4 BD1  LP0     -1.358200        0.0000           
   35693 A    8924 TIP4 O1   OW0      0.000000       15.9990           
   35694 A    8924 TIP4 H1   HW0      0.679100        1.0080           
   35695 A    8924 TIP4 H2   HW0      0.679100        1.0080           
   35696 A    8924 TIP4 BD1  LP0     -1.358200        0.0000           
   35697 A    8925 TIP4 O1   OW0      0.000000       15.9990           
   35698 A    8925 TIP4 H1   HW0      0.679100        1.0080           
   35699 A    8925 TIP4 H2   HW0      0.679100        1.0080           
   35700 A    8925 TIP4 BD1  LP0     -1.358200        0.0000           
   35701 A    8926 TIP4 O1   OW0      0.000000       15.9990           
   35702 A    8926 TIP4 H1   HW0      0.679100        1.0080           
   35703 A    8926 TIP4 H2   HW0      0.679100        1.0080           
   35704 A    8926 TIP4 BD1  LP0     -1.358200        0.0000           
   35705 A    8927 TIP4 O1   OW0      0.000000       15.9990           
   35706 A    8927 TIP4 H1   HW0      0.679100        1.0080           
   35707 A    8927 TIP4 H2   HW0      0.679100        1.0080           
   35708 A    8927 TIP4 BD1  LP0     -1.358200        0.0000           
   35709 A    8928 TIP4 O1   OW0      0.000000       15.9990           
   35710 A    8928 TIP4 H1   HW0      0.679100        1.0080           
   35711 A    8928 TIP4 H2   HW0      0.679100        1.0080           
   35712 A    8928 TIP4 BD1  LP0     -1.358200        0.0000           
   35713 A    8929 TIP4 O1   OW0      0.000000       15.9990           
   35714 A    8929 TIP4 H1   HW0      0.679100        1.0080           
   35715 A    8929 TIP4 H2   HW0      0.679100        1.0080           
   35716 A    8929 TIP4 BD1  LP0     -1.358200        0.0000           
   35717 A    8930 TIP4 O1   OW0      0.000000       15.9990           
   35718 A    8930 TIP4 H1   HW0      0.679100        1.0080           
   35719 A    8930 TIP4 H2   HW0      0.679100        1.0080           
   35720 A    8930 TIP4 BD1  LP0     -1.358200        0.0000           
   35721 A    8931 TIP4 O1   OW0      0.000000       15.9990           
   35722 A    8931 TIP4 H1   HW0      0.679100        1.0080           
   35723 A    8931 TIP4 H2   HW0      0.679100        1.0080           
   35724 A    8931 TIP4 BD1  LP0     -1.358200        0.0000           
   35725 A    8932 TIP4 O1   OW0      0.000000       15.9990           
   35726 A    8932 TIP4 H1   HW0      0.679100        1.0080           
   35727 A    8932 TIP4 H2   HW0      0.679100        1.0080           
   35728 A    8932 TIP4 BD1  LP0     -1.358200        0.0000           
   35729 A    8933 TIP4 O1   OW0      0.000000       15.9990           
   35730 A    8933 TIP4 H1   HW0      0.679100        1.0080           
   35731 A    8933 TIP4 H2   HW0      0.679100        1.0080           
   35732 A    8933 TIP4 BD1  LP0     -1.358200        0.0000           
   35733 A    8934 TIP4 O1   OW0      0.000000       15.9990           
   35734 A    8934 TIP4 H1   HW0      0.679100        1.0080           
   35735 A    8934 TIP4 H2   HW0      0.679100        1.0080           
   35736 A    8934 TIP4 BD1  LP0     -1.358200        0.0000           
   35737 A    8935 TIP4 O1   OW0      0.000000       15.9990           
   35738 A    8935 TIP4 H1   HW0      0.679100        1.0080           
   35739 A    8935 TIP4 H2   HW0      0.679100        1.0080           
   35740 A    8935 TIP4 BD1  LP0     -1.358200        0.0000           
   35741 A    8936 TIP4 O1   OW0      0.000000       15.9990           
   35742 A    8936 TIP4 H1   HW0      0.679100        1.0080           
   35743 A    8936 TIP4 H2   HW0      0.679100        1.0080           
   35744 A    8936 TIP4 BD1  LP0     -1.358200        0.0000           
   35745 A    8937 TIP4 O1   OW0      0.000000       15.9990           
   35746 A    8937 TIP4 H1   HW0      0.679100        1.0080           
   35747 A    8937 TIP4 H2   HW0      0.679100        1.0080           
   35748 A    8937 TIP4 BD1  LP0     -1.358200        0.0000           
   35749 A    8938 TIP4 O1   OW0      0.000000       15.9990           
   35750 A    8938 TIP4 H1   HW0      0.679100        1.0080           
   35751 A    8938 TIP4 H2   HW0      0.679100        1.0080           
   35752 A    8938 TIP4 BD1  LP0     -1.358200        0.0000           
   35753 A    8939 TIP4 O1   OW0      0.000000       15.9990           
   35754 A    8939 TIP4 H1   HW0      0.679100        1.0080           
   35755 A    8939 TIP4 H2   HW0      0.679100        1.0080           
   35756 A    8939 TIP4 BD1  LP0     -1.358200        0.0000           
   35757 A    8940 TIP4 O1   OW0      0.000000       15.9990           
   35758 A    8940 TIP4 H1   HW0      0.679100        1.0080           
   35759 A    8940 TIP4 H2   HW0      0.679100        1.0080           
   35760 A    8940 TIP4 BD1  LP0     -1.358200        0.0000           
   35761 A    8941 TIP4 O1   OW0      0.000000       15.9990           
   35762 A    8941 TIP4 H1   HW0      0.679100        1.0080           
   35763 A    8941 TIP4 H2   HW0      0.679100        1.0080           
   35764 A    8941 TIP4 BD1  LP0     -1.358200        0.0000           
   35765 A    8942 TIP4 O1   OW0      0.000000       15.9990           
   35766 A    8942 TIP4 H1   HW0      0.679100        1.0080           
   35767 A    8942 TIP4 H2   HW0      0.679100        1.0080           
   35768 A    8942 TIP4 BD1  LP0     -1.358200        0.0000           
   35769 A    8943 TIP4 O1   OW0      0.000000       15.9990           
   35770 A    8943 TIP4 H1   HW0      0.679100        1.0080           
   35771 A    8943 TIP4 H2   HW0      0.679100        1.0080           
   35772 A    8943 TIP4 BD1  LP0     -1.358200        0.0000           
   35773 A    8944 TIP4 O1   OW0      0.000000       15.9990           
   35774 A    8944 TIP4 H1   HW0      0.679100        1.0080           
   35775 A    8944 TIP4 H2   HW0      0.679100        1.0080           
   35776 A    8944 TIP4 BD1  LP0     -1.358200        0.0000           
   35777 A    8945 TIP4 O1   OW0      0.000000       15.9990           
   35778 A    8945 TIP4 H1   HW0      0.679100        1.0080           
   35779 A    8945 TIP4 H2   HW0      0.679100        1.0080           
   35780 A    8945 TIP4 BD1  LP0     -1.358200        0.0000           
   35781 A    8946 TIP4 O1   OW0      0.000000       15.9990           
   35782 A    8946 TIP4 H1   HW0      0.679100        1.0080           
   35783 A    8946 TIP4 H2   HW0      0.679100        1.0080           
   35784 A    8946 TIP4 BD1  LP0     -1.358200        0.0000           
   35785 A    8947 TIP4 O1   OW0      0.000000       15.9990           
   35786 A    8947 TIP4 H1   HW0      0.679100        1.0080           
   35787 A    8947 TIP4 H2   HW0      0.679100        1.0080           
   35788 A    8947 TIP4 BD1  LP0     -1.358200        0.0000           
   35789 A    8948 TIP4 O1   OW0      0.000000       15.9990           
   35790 A    8948 TIP4 H1   HW0      0.679100        1.0080           
   35791 A    8948 TIP4 H2   HW0      0.679100        1.0080           
   35792 A    8948 TIP4 BD1  LP0     -1.358200        0.0000           
   35793 A    8949 TIP4 O1   OW0      0.000000       15.9990           
   35794 A    8949 TIP4 H1   HW0      0.679100        1.0080           
   35795 A    8949 TIP4 H2   HW0      0.679100        1.0080           
   35796 A    8949 TIP4 BD1  LP0     -1.358200        0.0000           
   35797 A    8950 TIP4 O1   OW0      0.000000       15.9990           
   35798 A    8950 TIP4 H1   HW0      0.679100        1.0080           
   35799 A    8950 TIP4 H2   HW0      0.679100        1.0080           
   35800 A    8950 TIP4 BD1  LP0     -1.358200        0.0000           
   35801 A    8951 TIP4 O1   OW0      0.000000       15.9990           
   35802 A    8951 TIP4 H1   HW0      0.679100        1.0080           
   35803 A    8951 TIP4 H2   HW0      0.679100        1.0080           
   35804 A    8951 TIP4 BD1  LP0     -1.358200        0.0000           
   35805 A    8952 TIP4 O1   OW0      0.000000       15.9990           
   35806 A    8952 TIP4 H1   HW0      0.679100        1.0080           
   35807 A    8952 TIP4 H2   HW0      0.679100        1.0080           
   35808 A    8952 TIP4 BD1  LP0     -1.358200        0.0000           
   35809 A    8953 TIP4 O1   OW0      0.000000       15.9990           
   35810 A    8953 TIP4 H1   HW0      0.679100        1.0080           
   35811 A    8953 TIP4 H2   HW0      0.679100        1.0080           
   35812 A    8953 TIP4 BD1  LP0     -1.358200        0.0000           
   35813 A    8954 TIP4 O1   OW0      0.000000       15.9990           
   35814 A    8954 TIP4 H1   HW0      0.679100        1.0080           
   35815 A    8954 TIP4 H2   HW0      0.679100        1.0080           
   35816 A    8954 TIP4 BD1  LP0     -1.358200        0.0000           
   35817 A    8955 TIP4 O1   OW0      0.000000       15.9990           
   35818 A    8955 TIP4 H1   HW0      0.679100        1.0080           
   35819 A    8955 TIP4 H2   HW0      0.679100        1.0080           
   35820 A    8955 TIP4 BD1  LP0     -1.358200        0.0000           
   35821 A    8956 TIP4 O1   OW0      0.000000       15.9990           
   35822 A    8956 TIP4 H1   HW0      0.679100        1.0080           
   35823 A    8956 TIP4 H2   HW0      0.679100        1.0080           
   35824 A    8956 TIP4 BD1  LP0     -1.358200        0.0000           
   35825 A    8957 TIP4 O1   OW0      0.000000       15.9990           
   35826 A    8957 TIP4 H1   HW0      0.679100        1.0080           
   35827 A    8957 TIP4 H2   HW0      0.679100        1.0080           
   35828 A    8957 TIP4 BD1  LP0     -1.358200        0.0000           
   35829 A    8958 TIP4 O1   OW0      0.000000       15.9990           
   35830 A    8958 TIP4 H1   HW0      0.679100        1.0080           
   35831 A    8958 TIP4 H2   HW0      0.679100        1.0080           
   35832 A    8958 TIP4 BD1  LP0     -1.358200        0.0000           
   35833 A    8959 TIP4 O1   OW0      0.000000       15.9990           
   35834 A    8959 TIP4 H1   HW0      0.679100        1.0080           
   35835 A    8959 TIP4 H2   HW0      0.679100        1.0080           
   35836 A    8959 TIP4 BD1  LP0     -1.358200        0.0000           
   35837 A    8960 TIP4 O1   OW0      0.000000       15.9990           
   35838 A    8960 TIP4 H1   HW0      0.679100        1.0080           
   35839 A    8960 TIP4 H2   HW0      0.679100        1.0080           
   35840 A    8960 TIP4 BD1  LP0     -1.358200        0.0000           
   35841 A    8961 TIP4 O1   OW0      0.000000       15.9990           
   35842 A    8961 TIP4 H1   HW0      0.679100        1.0080           
   35843 A    8961 TIP4 H2   HW0      0.679100        1.0080           
   35844 A    8961 TIP4 BD1  LP0     -1.358200        0.0000           
   35845 A    8962 TIP4 O1   OW0      0.000000       15.9990           
   35846 A    8962 TIP4 H1   HW0      0.679100        1.0080           
   35847 A    8962 TIP4 H2   HW0      0.679100        1.0080           
   35848 A    8962 TIP4 BD1  LP0     -1.358200        0.0000           
   35849 A    8963 TIP4 O1   OW0      0.000000       15.9990           
   35850 A    8963 TIP4 H1   HW0      0.679100        1.0080           
   35851 A    8963 TIP4 H2   HW0      0.679100        1.0080           
   35852 A    8963 TIP4 BD1  LP0     -1.358200        0.0000           
   35853 A    8964 TIP4 O1   OW0      0.000000       15.9990           
   35854 A    8964 TIP4 H1   HW0      0.679100        1.0080           
   35855 A    8964 TIP4 H2   HW0      0.679100        1.0080           
   35856 A    8964 TIP4 BD1  LP0     -1.358200        0.0000           
   35857 A    8965 TIP4 O1   OW0      0.000000       15.9990           
   35858 A    8965 TIP4 H1   HW0      0.679100        1.0080           
   35859 A    8965 TIP4 H2   HW0      0.679100        1.0080           
   35860 A    8965 TIP4 BD1  LP0     -1.358200        0.0000           
   35861 A    8966 TIP4 O1   OW0      0.000000       15.9990           
   35862 A    8966 TIP4 H1   HW0      0.679100        1.0080           
   35863 A    8966 TIP4 H2   HW0      0.679100        1.0080           
   35864 A    8966 TIP4 BD1  LP0     -1.358200        0.0000           
   35865 A    8967 TIP4 O1   OW0      0.000000       15.9990           
   35866 A    8967 TIP4 H1   HW0      0.679100        1.0080           
   35867 A    8967 TIP4 H2   HW0      0.679100        1.0080           
   35868 A    8967 TIP4 BD1  LP0     -1.358200        0.0000           
   35869 A    8968 TIP4 O1   OW0      0.000000       15.9990           
   35870 A    8968 TIP4 H1   HW0      0.679100        1.0080           
   35871 A    8968 TIP4 H2   HW0      0.679100        1.0080           
   35872 A    8968 TIP4 BD1  LP0     -1.358200        0.0000           
   35873 A    8969 TIP4 O1   OW0      0.000000       15.9990           
   35874 A    8969 TIP4 H1   HW0      0.679100        1.0080           
   35875 A    8969 TIP4 H2   HW0      0.679100        1.0080           
   35876 A    8969 TIP4 BD1  LP0     -1.358200        0.0000           
   35877 A    8970 TIP4 O1   OW0      0.000000       15.9990           
   35878 A    8970 TIP4 H1   HW0      0.679100        1.0080           
   35879 A    8970 TIP4 H2   HW0      0.679100        1.0080           
   35880 A    8970 TIP4 BD1  LP0     -1.358200        0.0000           
   35881 A    8971 TIP4 O1   OW0      0.000000       15.9990           
   35882 A    8971 TIP4 H1   HW0      0.679100        1.0080           
   35883 A    8971 TIP4 H2   HW0      0.679100        1.0080           
   35884 A    8971 TIP4 BD1  LP0     -1.358200        0.0000           
   35885 A    8972 TIP4 O1   OW0      0.000000       15.9990           
   35886 A    8972 TIP4 H1   HW0      0.679100        1.0080           
   35887 A    8972 TIP4 H2   HW0      0.679100        1.0080           
   35888 A    8972 TIP4 BD1  LP0     -1.358200        0.0000           
   35889 A    8973 TIP4 O1   OW0      0.000000       15.9990           
   35890 A    8973 TIP4 H1   HW0      0.679100        1.0080           
   35891 A    8973 TIP4 H2   HW0      0.679100        1.0080           
   35892 A    8973 TIP4 BD1  LP0     -1.358200        0.0000           
   35893 A    8974 TIP4 O1   OW0      0.000000       15.9990           
   35894 A    8974 TIP4 H1   HW0      0.679100        1.0080           
   35895 A    8974 TIP4 H2   HW0      0.679100        1.0080           
   35896 A    8974 TIP4 BD1  LP0     -1.358200        0.0000           
   35897 A    8975 TIP4 O1   OW0      0.000000       15.9990           
   35898 A    8975 TIP4 H1   HW0      0.679100        1.0080           
   35899 A    8975 TIP4 H2   HW0      0.679100        1.0080           
   35900 A    8975 TIP4 BD1  LP0     -1.358200        0.0000           
   35901 A    8976 TIP4 O1   OW0      0.000000       15.9990           
   35902 A    8976 TIP4 H1   HW0      0.679100        1.0080           
   35903 A    8976 TIP4 H2   HW0      0.679100        1.0080           
   35904 A    8976 TIP4 BD1  LP0     -1.358200        0.0000           
   35905 A    8977 TIP4 O1   OW0      0.000000       15.9990           
   35906 A    8977 TIP4 H1   HW0      0.679100        1.0080           
   35907 A    8977 TIP4 H2   HW0      0.679100        1.0080           
   35908 A    8977 TIP4 BD1  LP0     -1.358200        0.0000           
   35909 A    8978 TIP4 O1   OW0      0.000000       15.9990           
   35910 A    8978 TIP4 H1   HW0      0.679100        1.0080           
   35911 A    8978 TIP4 H2   HW0      0.679100        1.0080           
   35912 A    8978 TIP4 BD1  LP0     -1.358200        0.0000           
   35913 A    8979 TIP4 O1   OW0      0.000000       15.9990           
   35914 A    8979 TIP4 H1   HW0      0.679100        1.0080           
   35915 A    8979 TIP4 H2   HW0      0.679100        1.0080           
   35916 A    8979 TIP4 BD1  LP0     -1.358200        0.0000           
   35917 A    8980 TIP4 O1   OW0      0.000000       15.9990           
   35918 A    8980 TIP4 H1   HW0      0.679100        1.0080           
   35919 A    8980 TIP4 H2   HW0      0.679100        1.0080           
   35920 A    8980 TIP4 BD1  LP0     -1.358200        0.0000           
   35921 A    8981 TIP4 O1   OW0      0.000000       15.9990           
   35922 A    8981 TIP4 H1   HW0      0.679100        1.0080           
   35923 A    8981 TIP4 H2   HW0      0.679100        1.0080           
   35924 A    8981 TIP4 BD1  LP0     -1.358200        0.0000           
   35925 A    8982 TIP4 O1   OW0      0.000000       15.9990           
   35926 A    8982 TIP4 H1   HW0      0.679100        1.0080           
   35927 A    8982 TIP4 H2   HW0      0.679100        1.0080           
   35928 A    8982 TIP4 BD1  LP0     -1.358200        0.0000           
   35929 A    8983 TIP4 O1   OW0      0.000000       15.9990           
   35930 A    8983 TIP4 H1   HW0      0.679100        1.0080           
   35931 A    8983 TIP4 H2   HW0      0.679100        1.0080           
   35932 A    8983 TIP4 BD1  LP0     -1.358200        0.0000           
   35933 A    8984 TIP4 O1   OW0      0.000000       15.9990           
   35934 A    8984 TIP4 H1   HW0      0.679100        1.0080           
   35935 A    8984 TIP4 H2   HW0      0.679100        1.0080           
   35936 A    8984 TIP4 BD1  LP0     -1.358200        0.0000           
   35937 A    8985 TIP4 O1   OW0      0.000000       15.9990           
   35938 A    8985 TIP4 H1   HW0      0.679100        1.0080           
   35939 A    8985 TIP4 H2   HW0      0.679100        1.0080           
   35940 A    8985 TIP4 BD1  LP0     -1.358200        0.0000           
   35941 A    8986 TIP4 O1   OW0      0.000000       15.9990           
   35942 A    8986 TIP4 H1   HW0      0.679100        1.0080           
   35943 A    8986 TIP4 H2   HW0      0.679100        1.0080           
   35944 A    8986 TIP4 BD1  LP0     -1.358200        0.0000           
   35945 A    8987 TIP4 O1   OW0      0.000000       15.9990           
   35946 A    8987 TIP4 H1   HW0      0.679100        1.0080           
   35947 A    8987 TIP4 H2   HW0      0.679100        1.0080           
   35948 A    8987 TIP4 BD1  LP0     -1.358200        0.0000           
   35949 A    8988 TIP4 O1   OW0      0.000000       15.9990           
   35950 A    8988 TIP4 H1   HW0      0.679100        1.0080           
   35951 A    8988 TIP4 H2   HW0      0.679100        1.0080           
   35952 A    8988 TIP4 BD1  LP0     -1.358200        0.0000           
   35953 A    8989 TIP4 O1   OW0      0.000000       15.9990           
   35954 A    8989 TIP4 H1   HW0      0.679100        1.0080           
   35955 A    8989 TIP4 H2   HW0      0.679100        1.0080           
   35956 A    8989 TIP4 BD1  LP0     -1.358200        0.0000           
   35957 A    8990 TIP4 O1   OW0      0.000000       15.9990           
   35958 A    8990 TIP4 H1   HW0      0.679100        1.0080           
   35959 A    8990 TIP4 H2   HW0      0.679100        1.0080           
   35960 A    8990 TIP4 BD1  LP0     -1.358200        0.0000           
   35961 A    8991 TIP4 O1   OW0      0.000000       15.9990           
   35962 A    8991 TIP4 H1   HW0      0.679100        1.0080           
   35963 A    8991 TIP4 H2   HW0      0.679100        1.0080           
   35964 A    8991 TIP4 BD1  LP0     -1.358200        0.0000           
   35965 A    8992 TIP4 O1   OW0      0.000000       15.9990           
   35966 A    8992 TIP4 H1   HW0      0.679100        1.0080           
   35967 A    8992 TIP4 H2   HW0      0.679100        1.0080           
   35968 A    8992 TIP4 BD1  LP0     -1.358200        0.0000           
   35969 A    8993 TIP4 O1   OW0      0.000000       15.9990           
   35970 A    8993 TIP4 H1   HW0      0.679100        1.0080           
   35971 A    8993 TIP4 H2   HW0      0.679100        1.0080           
   35972 A    8993 TIP4 BD1  LP0     -1.358200        0.0000           
   35973 A    8994 TIP4 O1   OW0      0.000000       15.9990           
   35974 A    8994 TIP4 H1   HW0      0.679100        1.0080           
   35975 A    8994 TIP4 H2   HW0      0.679100        1.0080           
   35976 A    8994 TIP4 BD1  LP0     -1.358200        0.0000           
   35977 A    8995 TIP4 O1   OW0      0.000000       15.9990           
   35978 A    8995 TIP4 H1   HW0      0.679100        1.0080           
   35979 A    8995 TIP4 H2   HW0      0.679100        1.0080           
   35980 A    8995 TIP4 BD1  LP0     -1.358200        0.0000           
   35981 A    8996 TIP4 O1   OW0      0.000000       15.9990           
   35982 A    8996 TIP4 H1   HW0      0.679100        1.0080           
   35983 A    8996 TIP4 H2   HW0      0.679100        1.0080           
   35984 A    8996 TIP4 BD1  LP0     -1.358200        0.0000           
   35985 A    8997 TIP4 O1   OW0      0.000000       15.9990           
   35986 A    8997 TIP4 H1   HW0      0.679100        1.0080           
   35987 A    8997 TIP4 H2   HW0      0.679100        1.0080           
   35988 A    8997 TIP4 BD1  LP0     -1.358200        0.0000           
   35989 A    8998 TIP4 O1   OW0      0.000000       15.9990           
   35990 A    8998 TIP4 H1   HW0      0.679100        1.0080           
   35991 A    8998 TIP4 H2   HW0      0.679100        1.0080           
   35992 A    8998 TIP4 BD1  LP0     -1.358200        0.0000           
   35993 A    8999 TIP4 O1   OW0      0.000000       15.9990           
   35994 A    8999 TIP4 H1   HW0      0.679100        1.0080           
   35995 A    8999 TIP4 H2   HW0      0.679100        1.0080           
   35996 A    8999 TIP4 BD1  LP0     -1.358200        0.0000           
   35997 A    9000 TIP4 O1   OW0      0.000000       15.9990           
   35998 A    9000 TIP4 H1   HW0      0.679100        1.0080           
   35999 A    9000 TIP4 H2   HW0      0.679100        1.0080           
   36000 A    9000 TIP4 BD1  LP0     -1.358200        0.0000           
   36001 A    9001 TIP4 O1   OW0      0.000000       15.9990           
   36002 A    9001 TIP4 H1   HW0      0.679100        1.0080           
   36003 A    9001 TIP4 H2   HW0      0.679100        1.0080           
   36004 A    9001 TIP4 BD1  LP0     -1.358200        0.0000           
   36005 A    9002 TIP4 O1   OW0      0.000000       15.9990           
   36006 A    9002 TIP4 H1   HW0      0.679100        1.0080           
   36007 A    9002 TIP4 H2   HW0      0.679100        1.0080           
   36008 A    9002 TIP4 BD1  LP0     -1.358200        0.0000           
   36009 A    9003 TIP4 O1   OW0      0.000000       15.9990           
   36010 A    9003 TIP4 H1   HW0      0.679100        1.0080           
   36011 A    9003 TIP4 H2   HW0      0.679100        1.0080           
   36012 A    9003 TIP4 BD1  LP0     -1.358200        0.0000           
   36013 A    9004 TIP4 O1   OW0      0.000000       15.9990           
   36014 A    9004 TIP4 H1   HW0      0.679100        1.0080           
   36015 A    9004 TIP4 H2   HW0      0.679100        1.0080           
   36016 A    9004 TIP4 BD1  LP0     -1.358200        0.0000           
   36017 A    9005 TIP4 O1   OW0      0.000000       15.9990           
   36018 A    9005 TIP4 H1   HW0      0.679100        1.0080           
   36019 A    9005 TIP4 H2   HW0      0.679100        1.0080           
   36020 A    9005 TIP4 BD1  LP0     -1.358200        0.0000           
   36021 A    9006 TIP4 O1   OW0      0.000000       15.9990           
   36022 A    9006 TIP4 H1   HW0      0.679100        1.0080           
   36023 A    9006 TIP4 H2   HW0      0.679100        1.0080           
   36024 A    9006 TIP4 BD1  LP0     -1.358200        0.0000           
   36025 A    9007 TIP4 O1   OW0      0.000000       15.9990           
   36026 A    9007 TIP4 H1   HW0      0.679100        1.0080           
   36027 A    9007 TIP4 H2   HW0      0.679100        1.0080           
   36028 A    9007 TIP4 BD1  LP0     -1.358200        0.0000           
   36029 A    9008 TIP4 O1   OW0      0.000000       15.9990           
   36030 A    9008 TIP4 H1   HW0      0.679100        1.0080           
   36031 A    9008 TIP4 H2   HW0      0.679100        1.0080           
   36032 A    9008 TIP4 BD1  LP0     -1.358200        0.0000           
   36033 A    9009 TIP4 O1   OW0      0.000000       15.9990           
   36034 A    9009 TIP4 H1   HW0      0.679100        1.0080           
   36035 A    9009 TIP4 H2   HW0      0.679100        1.0080           
   36036 A    9009 TIP4 BD1  LP0     -1.358200        0.0000           
   36037 A    9010 TIP4 O1   OW0      0.000000       15.9990           
   36038 A    9010 TIP4 H1   HW0      0.679100        1.0080           
   36039 A    9010 TIP4 H2   HW0      0.679100        1.0080           
   36040 A    9010 TIP4 BD1  LP0     -1.358200        0.0000           
   36041 A    9011 TIP4 O1   OW0      0.000000       15.9990           
   36042 A    9011 TIP4 H1   HW0      0.679100        1.0080           
   36043 A    9011 TIP4 H2   HW0      0.679100        1.0080           
   36044 A    9011 TIP4 BD1  LP0     -1.358200        0.0000           
   36045 A    9012 TIP4 O1   OW0      0.000000       15.9990           
   36046 A    9012 TIP4 H1   HW0      0.679100        1.0080           
   36047 A    9012 TIP4 H2   HW0      0.679100        1.0080           
   36048 A    9012 TIP4 BD1  LP0     -1.358200        0.0000           
   36049 A    9013 TIP4 O1   OW0      0.000000       15.9990           
   36050 A    9013 TIP4 H1   HW0      0.679100        1.0080           
   36051 A    9013 TIP4 H2   HW0      0.679100        1.0080           
   36052 A    9013 TIP4 BD1  LP0     -1.358200        0.0000           
   36053 A    9014 TIP4 O1   OW0      0.000000       15.9990           
   36054 A    9014 TIP4 H1   HW0      0.679100        1.0080           
   36055 A    9014 TIP4 H2   HW0      0.679100        1.0080           
   36056 A    9014 TIP4 BD1  LP0     -1.358200        0.0000           
   36057 A    9015 TIP4 O1   OW0      0.000000       15.9990           
   36058 A    9015 TIP4 H1   HW0      0.679100        1.0080           
   36059 A    9015 TIP4 H2   HW0      0.679100        1.0080           
   36060 A    9015 TIP4 BD1  LP0     -1.358200        0.0000           
   36061 A    9016 TIP4 O1   OW0      0.000000       15.9990           
   36062 A    9016 TIP4 H1   HW0      0.679100        1.0080           
   36063 A    9016 TIP4 H2   HW0      0.679100        1.0080           
   36064 A    9016 TIP4 BD1  LP0     -1.358200        0.0000           
   36065 A    9017 TIP4 O1   OW0      0.000000       15.9990           
   36066 A    9017 TIP4 H1   HW0      0.679100        1.0080           
   36067 A    9017 TIP4 H2   HW0      0.679100        1.0080           
   36068 A    9017 TIP4 BD1  LP0     -1.358200        0.0000           
   36069 A    9018 TIP4 O1   OW0      0.000000       15.9990           
   36070 A    9018 TIP4 H1   HW0      0.679100        1.0080           
   36071 A    9018 TIP4 H2   HW0      0.679100        1.0080           
   36072 A    9018 TIP4 BD1  LP0     -1.358200        0.0000           
   36073 A    9019 TIP4 O1   OW0      0.000000       15.9990           
   36074 A    9019 TIP4 H1   HW0      0.679100        1.0080           
   36075 A    9019 TIP4 H2   HW0      0.679100        1.0080           
   36076 A    9019 TIP4 BD1  LP0     -1.358200        0.0000           
   36077 A    9020 TIP4 O1   OW0      0.000000       15.9990           
   36078 A    9020 TIP4 H1   HW0      0.679100        1.0080           
   36079 A    9020 TIP4 H2   HW0      0.679100        1.0080           
   36080 A    9020 TIP4 BD1  LP0     -1.358200        0.0000           
   36081 A    9021 TIP4 O1   OW0      0.000000       15.9990           
   36082 A    9021 TIP4 H1   HW0      0.679100        1.0080           
   36083 A    9021 TIP4 H2   HW0      0.679100        1.0080           
   36084 A    9021 TIP4 BD1  LP0     -1.358200        0.0000           
   36085 A    9022 TIP4 O1   OW0      0.000000       15.9990           
   36086 A    9022 TIP4 H1   HW0      0.679100        1.0080           
   36087 A    9022 TIP4 H2   HW0      0.679100        1.0080           
   36088 A    9022 TIP4 BD1  LP0     -1.358200        0.0000           
   36089 A    9023 TIP4 O1   OW0      0.000000       15.9990           
   36090 A    9023 TIP4 H1   HW0      0.679100        1.0080           
   36091 A    9023 TIP4 H2   HW0      0.679100        1.0080           
   36092 A    9023 TIP4 BD1  LP0     -1.358200        0.0000           
   36093 A    9024 TIP4 O1   OW0      0.000000       15.9990           
   36094 A    9024 TIP4 H1   HW0      0.679100        1.0080           
   36095 A    9024 TIP4 H2   HW0      0.679100        1.0080           
   36096 A    9024 TIP4 BD1  LP0     -1.358200        0.0000           
   36097 A    9025 TIP4 O1   OW0      0.000000       15.9990           
   36098 A    9025 TIP4 H1   HW0      0.679100        1.0080           
   36099 A    9025 TIP4 H2   HW0      0.679100        1.0080           
   36100 A    9025 TIP4 BD1  LP0     -1.358200        0.0000           
   36101 A    9026 TIP4 O1   OW0      0.000000       15.9990           
   36102 A    9026 TIP4 H1   HW0      0.679100        1.0080           
   36103 A    9026 TIP4 H2   HW0      0.679100        1.0080           
   36104 A    9026 TIP4 BD1  LP0     -1.358200        0.0000           
   36105 A    9027 TIP4 O1   OW0      0.000000       15.9990           
   36106 A    9027 TIP4 H1   HW0      0.679100        1.0080           
   36107 A    9027 TIP4 H2   HW0      0.679100        1.0080           
   36108 A    9027 TIP4 BD1  LP0     -1.358200        0.0000           
   36109 A    9028 TIP4 O1   OW0      0.000000       15.9990           
   36110 A    9028 TIP4 H1   HW0      0.679100        1.0080           
   36111 A    9028 TIP4 H2   HW0      0.679100        1.0080           
   36112 A    9028 TIP4 BD1  LP0     -1.358200        0.0000           
   36113 A    9029 TIP4 O1   OW0      0.000000       15.9990           
   36114 A    9029 TIP4 H1   HW0      0.679100        1.0080           
   36115 A    9029 TIP4 H2   HW0      0.679100        1.0080           
   36116 A    9029 TIP4 BD1  LP0     -1.358200        0.0000           
   36117 A    9030 TIP4 O1   OW0      0.000000       15.9990           
   36118 A    9030 TIP4 H1   HW0      0.679100        1.0080           
   36119 A    9030 TIP4 H2   HW0      0.679100        1.0080           
   36120 A    9030 TIP4 BD1  LP0     -1.358200        0.0000           
   36121 A    9031 TIP4 O1   OW0      0.000000       15.9990           
   36122 A    9031 TIP4 H1   HW0      0.679100        1.0080           
   36123 A    9031 TIP4 H2   HW0      0.679100        1.0080           
   36124 A    9031 TIP4 BD1  LP0     -1.358200        0.0000           
   36125 A    9032 TIP4 O1   OW0      0.000000       15.9990           
   36126 A    9032 TIP4 H1   HW0      0.679100        1.0080           
   36127 A    9032 TIP4 H2   HW0      0.679100        1.0080           
   36128 A    9032 TIP4 BD1  LP0     -1.358200        0.0000           
   36129 A    9033 TIP4 O1   OW0      0.000000       15.9990           
   36130 A    9033 TIP4 H1   HW0      0.679100        1.0080           
   36131 A    9033 TIP4 H2   HW0      0.679100        1.0080           
   36132 A    9033 TIP4 BD1  LP0     -1.358200        0.0000           
   36133 A    9034 TIP4 O1   OW0      0.000000       15.9990           
   36134 A    9034 TIP4 H1   HW0      0.679100        1.0080           
   36135 A    9034 TIP4 H2   HW0      0.679100        1.0080           
   36136 A    9034 TIP4 BD1  LP0     -1.358200        0.0000           
   36137 A    9035 TIP4 O1   OW0      0.000000       15.9990           
   36138 A    9035 TIP4 H1   HW0      0.679100        1.0080           
   36139 A    9035 TIP4 H2   HW0      0.679100        1.0080           
   36140 A    9035 TIP4 BD1  LP0     -1.358200        0.0000           
   36141 A    9036 TIP4 O1   OW0      0.000000       15.9990           
   36142 A    9036 TIP4 H1   HW0      0.679100        1.0080           
   36143 A    9036 TIP4 H2   HW0      0.679100        1.0080           
   36144 A    9036 TIP4 BD1  LP0     -1.358200        0.0000           
   36145 A    9037 TIP4 O1   OW0      0.000000       15.9990           
   36146 A    9037 TIP4 H1   HW0      0.679100        1.0080           
   36147 A    9037 TIP4 H2   HW0      0.679100        1.0080           
   36148 A    9037 TIP4 BD1  LP0     -1.358200        0.0000           
   36149 A    9038 TIP4 O1   OW0      0.000000       15.9990           
   36150 A    9038 TIP4 H1   HW0      0.679100        1.0080           
   36151 A    9038 TIP4 H2   HW0      0.679100        1.0080           
   36152 A    9038 TIP4 BD1  LP0     -1.358200        0.0000           
   36153 A    9039 TIP4 O1   OW0      0.000000       15.9990           
   36154 A    9039 TIP4 H1   HW0      0.679100        1.0080           
   36155 A    9039 TIP4 H2   HW0      0.679100        1.0080           
   36156 A    9039 TIP4 BD1  LP0     -1.358200        0.0000           
   36157 A    9040 TIP4 O1   OW0      0.000000       15.9990           
   36158 A    9040 TIP4 H1   HW0      0.679100        1.0080           
   36159 A    9040 TIP4 H2   HW0      0.679100        1.0080           
   36160 A    9040 TIP4 BD1  LP0     -1.358200        0.0000           
   36161 A    9041 TIP4 O1   OW0      0.000000       15.9990           
   36162 A    9041 TIP4 H1   HW0      0.679100        1.0080           
   36163 A    9041 TIP4 H2   HW0      0.679100        1.0080           
   36164 A    9041 TIP4 BD1  LP0     -1.358200        0.0000           
   36165 A    9042 TIP4 O1   OW0      0.000000       15.9990           
   36166 A    9042 TIP4 H1   HW0      0.679100        1.0080           
   36167 A    9042 TIP4 H2   HW0      0.679100        1.0080           
   36168 A    9042 TIP4 BD1  LP0     -1.358200        0.0000           
   36169 A    9043 TIP4 O1   OW0      0.000000       15.9990           
   36170 A    9043 TIP4 H1   HW0      0.679100        1.0080           
   36171 A    9043 TIP4 H2   HW0      0.679100        1.0080           
   36172 A    9043 TIP4 BD1  LP0     -1.358200        0.0000           
   36173 A    9044 TIP4 O1   OW0      0.000000       15.9990           
   36174 A    9044 TIP4 H1   HW0      0.679100        1.0080           
   36175 A    9044 TIP4 H2   HW0      0.679100        1.0080           
   36176 A    9044 TIP4 BD1  LP0     -1.358200        0.0000           
   36177 A    9045 TIP4 O1   OW0      0.000000       15.9990           
   36178 A    9045 TIP4 H1   HW0      0.679100        1.0080           
   36179 A    9045 TIP4 H2   HW0      0.679100        1.0080           
   36180 A    9045 TIP4 BD1  LP0     -1.358200        0.0000           
   36181 A    9046 TIP4 O1   OW0      0.000000       15.9990           
   36182 A    9046 TIP4 H1   HW0      0.679100        1.0080           
   36183 A    9046 TIP4 H2   HW0      0.679100        1.0080           
   36184 A    9046 TIP4 BD1  LP0     -1.358200        0.0000           
   36185 A    9047 TIP4 O1   OW0      0.000000       15.9990           
   36186 A    9047 TIP4 H1   HW0      0.679100        1.0080           
   36187 A    9047 TIP4 H2   HW0      0.679100        1.0080           
   36188 A    9047 TIP4 BD1  LP0     -1.358200        0.0000           
   36189 A    9048 TIP4 O1   OW0      0.000000       15.9990           
   36190 A    9048 TIP4 H1   HW0      0.679100        1.0080           
   36191 A    9048 TIP4 H2   HW0      0.679100        1.0080           
   36192 A    9048 TIP4 BD1  LP0     -1.358200        0.0000           
   36193 A    9049 TIP4 O1   OW0      0.000000       15.9990           
   36194 A    9049 TIP4 H1   HW0      0.679100        1.0080           
   36195 A    9049 TIP4 H2   HW0      0.679100        1.0080           
   36196 A    9049 TIP4 BD1  LP0     -1.358200        0.0000           
   36197 A    9050 TIP4 O1   OW0      0.000000       15.9990           
   36198 A    9050 TIP4 H1   HW0      0.679100        1.0080           
   36199 A    9050 TIP4 H2   HW0      0.679100        1.0080           
   36200 A    9050 TIP4 BD1  LP0     -1.358200        0.0000           
   36201 A    9051 TIP4 O1   OW0      0.000000       15.9990           
   36202 A    9051 TIP4 H1   HW0      0.679100        1.0080           
   36203 A    9051 TIP4 H2   HW0      0.679100        1.0080           
   36204 A    9051 TIP4 BD1  LP0     -1.358200        0.0000           
   36205 A    9052 TIP4 O1   OW0      0.000000       15.9990           
   36206 A    9052 TIP4 H1   HW0      0.679100        1.0080           
   36207 A    9052 TIP4 H2   HW0      0.679100        1.0080           
   36208 A    9052 TIP4 BD1  LP0     -1.358200        0.0000           
   36209 A    9053 TIP4 O1   OW0      0.000000       15.9990           
   36210 A    9053 TIP4 H1   HW0      0.679100        1.0080           
   36211 A    9053 TIP4 H2   HW0      0.679100        1.0080           
   36212 A    9053 TIP4 BD1  LP0     -1.358200        0.0000           
   36213 A    9054 TIP4 O1   OW0      0.000000       15.9990           
   36214 A    9054 TIP4 H1   HW0      0.679100        1.0080           
   36215 A    9054 TIP4 H2   HW0      0.679100        1.0080           
   36216 A    9054 TIP4 BD1  LP0     -1.358200        0.0000           
   36217 A    9055 TIP4 O1   OW0      0.000000       15.9990           
   36218 A    9055 TIP4 H1   HW0      0.679100        1.0080           
   36219 A    9055 TIP4 H2   HW0      0.679100        1.0080           
   36220 A    9055 TIP4 BD1  LP0     -1.358200        0.0000           
   36221 A    9056 TIP4 O1   OW0      0.000000       15.9990           
   36222 A    9056 TIP4 H1   HW0      0.679100        1.0080           
   36223 A    9056 TIP4 H2   HW0      0.679100        1.0080           
   36224 A    9056 TIP4 BD1  LP0     -1.358200        0.0000           
   36225 A    9057 TIP4 O1   OW0      0.000000       15.9990           
   36226 A    9057 TIP4 H1   HW0      0.679100        1.0080           
   36227 A    9057 TIP4 H2   HW0      0.679100        1.0080           
   36228 A    9057 TIP4 BD1  LP0     -1.358200        0.0000           
   36229 A    9058 TIP4 O1   OW0      0.000000       15.9990           
   36230 A    9058 TIP4 H1   HW0      0.679100        1.0080           
   36231 A    9058 TIP4 H2   HW0      0.679100        1.0080           
   36232 A    9058 TIP4 BD1  LP0     -1.358200        0.0000           
   36233 A    9059 TIP4 O1   OW0      0.000000       15.9990           
   36234 A    9059 TIP4 H1   HW0      0.679100        1.0080           
   36235 A    9059 TIP4 H2   HW0      0.679100        1.0080           
   36236 A    9059 TIP4 BD1  LP0     -1.358200        0.0000           
   36237 A    9060 TIP4 O1   OW0      0.000000       15.9990           
   36238 A    9060 TIP4 H1   HW0      0.679100        1.0080           
   36239 A    9060 TIP4 H2   HW0      0.679100        1.0080           
   36240 A    9060 TIP4 BD1  LP0     -1.358200        0.0000           
   36241 A    9061 TIP4 O1   OW0      0.000000       15.9990           
   36242 A    9061 TIP4 H1   HW0      0.679100        1.0080           
   36243 A    9061 TIP4 H2   HW0      0.679100        1.0080           
   36244 A    9061 TIP4 BD1  LP0     -1.358200        0.0000           
   36245 A    9062 TIP4 O1   OW0      0.000000       15.9990           
   36246 A    9062 TIP4 H1   HW0      0.679100        1.0080           
   36247 A    9062 TIP4 H2   HW0      0.679100        1.0080           
   36248 A    9062 TIP4 BD1  LP0     -1.358200        0.0000           
   36249 A    9063 TIP4 O1   OW0      0.000000       15.9990           
   36250 A    9063 TIP4 H1   HW0      0.679100        1.0080           
   36251 A    9063 TIP4 H2   HW0      0.679100        1.0080           
   36252 A    9063 TIP4 BD1  LP0     -1.358200        0.0000           
   36253 A    9064 TIP4 O1   OW0      0.000000       15.9990           
   36254 A    9064 TIP4 H1   HW0      0.679100        1.0080           
   36255 A    9064 TIP4 H2   HW0      0.679100        1.0080           
   36256 A    9064 TIP4 BD1  LP0     -1.358200        0.0000           
   36257 A    9065 TIP4 O1   OW0      0.000000       15.9990           
   36258 A    9065 TIP4 H1   HW0      0.679100        1.0080           
   36259 A    9065 TIP4 H2   HW0      0.679100        1.0080           
   36260 A    9065 TIP4 BD1  LP0     -1.358200        0.0000           
   36261 A    9066 TIP4 O1   OW0      0.000000       15.9990           
   36262 A    9066 TIP4 H1   HW0      0.679100        1.0080           
   36263 A    9066 TIP4 H2   HW0      0.679100        1.0080           
   36264 A    9066 TIP4 BD1  LP0     -1.358200        0.0000           
   36265 A    9067 TIP4 O1   OW0      0.000000       15.9990           
   36266 A    9067 TIP4 H1   HW0      0.679100        1.0080           
   36267 A    9067 TIP4 H2   HW0      0.679100        1.0080           
   36268 A    9067 TIP4 BD1  LP0     -1.358200        0.0000           
   36269 A    9068 TIP4 O1   OW0      0.000000       15.9990           
   36270 A    9068 TIP4 H1   HW0      0.679100        1.0080           
   36271 A    9068 TIP4 H2   HW0      0.679100        1.0080           
   36272 A    9068 TIP4 BD1  LP0     -1.358200        0.0000           
   36273 A    9069 TIP4 O1   OW0      0.000000       15.9990           
   36274 A    9069 TIP4 H1   HW0      0.679100        1.0080           
   36275 A    9069 TIP4 H2   HW0      0.679100        1.0080           
   36276 A    9069 TIP4 BD1  LP0     -1.358200        0.0000           
   36277 A    9070 TIP4 O1   OW0      0.000000       15.9990           
   36278 A    9070 TIP4 H1   HW0      0.679100        1.0080           
   36279 A    9070 TIP4 H2   HW0      0.679100        1.0080           
   36280 A    9070 TIP4 BD1  LP0     -1.358200        0.0000           
   36281 A    9071 TIP4 O1   OW0      0.000000       15.9990           
   36282 A    9071 TIP4 H1   HW0      0.679100        1.0080           
   36283 A    9071 TIP4 H2   HW0      0.679100        1.0080           
   36284 A    9071 TIP4 BD1  LP0     -1.358200        0.0000           
   36285 A    9072 TIP4 O1   OW0      0.000000       15.9990           
   36286 A    9072 TIP4 H1   HW0      0.679100        1.0080           
   36287 A    9072 TIP4 H2   HW0      0.679100        1.0080           
   36288 A    9072 TIP4 BD1  LP0     -1.358200        0.0000           
   36289 A    9073 TIP4 O1   OW0      0.000000       15.9990           
   36290 A    9073 TIP4 H1   HW0      0.679100        1.0080           
   36291 A    9073 TIP4 H2   HW0      0.679100        1.0080           
   36292 A    9073 TIP4 BD1  LP0     -1.358200        0.0000           
   36293 A    9074 TIP4 O1   OW0      0.000000       15.9990           
   36294 A    9074 TIP4 H1   HW0      0.679100        1.0080           
   36295 A    9074 TIP4 H2   HW0      0.679100        1.0080           
   36296 A    9074 TIP4 BD1  LP0     -1.358200        0.0000           
   36297 A    9075 TIP4 O1   OW0      0.000000       15.9990           
   36298 A    9075 TIP4 H1   HW0      0.679100        1.0080           
   36299 A    9075 TIP4 H2   HW0      0.679100        1.0080           
   36300 A    9075 TIP4 BD1  LP0     -1.358200        0.0000           
   36301 A    9076 TIP4 O1   OW0      0.000000       15.9990           
   36302 A    9076 TIP4 H1   HW0      0.679100        1.0080           
   36303 A    9076 TIP4 H2   HW0      0.679100        1.0080           
   36304 A    9076 TIP4 BD1  LP0     -1.358200        0.0000           
   36305 A    9077 TIP4 O1   OW0      0.000000       15.9990           
   36306 A    9077 TIP4 H1   HW0      0.679100        1.0080           
   36307 A    9077 TIP4 H2   HW0      0.679100        1.0080           
   36308 A    9077 TIP4 BD1  LP0     -1.358200        0.0000           
   36309 A    9078 TIP4 O1   OW0      0.000000       15.9990           
   36310 A    9078 TIP4 H1   HW0      0.679100        1.0080           
   36311 A    9078 TIP4 H2   HW0      0.679100        1.0080           
   36312 A    9078 TIP4 BD1  LP0     -1.358200        0.0000           
   36313 A    9079 TIP4 O1   OW0      0.000000       15.9990           
   36314 A    9079 TIP4 H1   HW0      0.679100        1.0080           
   36315 A    9079 TIP4 H2   HW0      0.679100        1.0080           
   36316 A    9079 TIP4 BD1  LP0     -1.358200        0.0000           
   36317 A    9080 TIP4 O1   OW0      0.000000       15.9990           
   36318 A    9080 TIP4 H1   HW0      0.679100        1.0080           
   36319 A    9080 TIP4 H2   HW0      0.679100        1.0080           
   36320 A    9080 TIP4 BD1  LP0     -1.358200        0.0000           
   36321 A    9081 TIP4 O1   OW0      0.000000       15.9990           
   36322 A    9081 TIP4 H1   HW0      0.679100        1.0080           
   36323 A    9081 TIP4 H2   HW0      0.679100        1.0080           
   36324 A    9081 TIP4 BD1  LP0     -1.358200        0.0000           
   36325 A    9082 TIP4 O1   OW0      0.000000       15.9990           
   36326 A    9082 TIP4 H1   HW0      0.679100        1.0080           
   36327 A    9082 TIP4 H2   HW0      0.679100        1.0080           
   36328 A    9082 TIP4 BD1  LP0     -1.358200        0.0000           
   36329 A    9083 TIP4 O1   OW0      0.000000       15.9990           
   36330 A    9083 TIP4 H1   HW0      0.679100        1.0080           
   36331 A    9083 TIP4 H2   HW0      0.679100        1.0080           
   36332 A    9083 TIP4 BD1  LP0     -1.358200        0.0000           
   36333 A    9084 TIP4 O1   OW0      0.000000       15.9990           
   36334 A    9084 TIP4 H1   HW0      0.679100        1.0080           
   36335 A    9084 TIP4 H2   HW0      0.679100        1.0080           
   36336 A    9084 TIP4 BD1  LP0     -1.358200        0.0000           
   36337 A    9085 TIP4 O1   OW0      0.000000       15.9990           
   36338 A    9085 TIP4 H1   HW0      0.679100        1.0080           
   36339 A    9085 TIP4 H2   HW0      0.679100        1.0080           
   36340 A    9085 TIP4 BD1  LP0     -1.358200        0.0000           
   36341 A    9086 TIP4 O1   OW0      0.000000       15.9990           
   36342 A    9086 TIP4 H1   HW0      0.679100        1.0080           
   36343 A    9086 TIP4 H2   HW0      0.679100        1.0080           
   36344 A    9086 TIP4 BD1  LP0     -1.358200        0.0000           
   36345 A    9087 TIP4 O1   OW0      0.000000       15.9990           
   36346 A    9087 TIP4 H1   HW0      0.679100        1.0080           
   36347 A    9087 TIP4 H2   HW0      0.679100        1.0080           
   36348 A    9087 TIP4 BD1  LP0     -1.358200        0.0000           
   36349 A    9088 TIP4 O1   OW0      0.000000       15.9990           
   36350 A    9088 TIP4 H1   HW0      0.679100        1.0080           
   36351 A    9088 TIP4 H2   HW0      0.679100        1.0080           
   36352 A    9088 TIP4 BD1  LP0     -1.358200        0.0000           
   36353 A    9089 TIP4 O1   OW0      0.000000       15.9990           
   36354 A    9089 TIP4 H1   HW0      0.679100        1.0080           
   36355 A    9089 TIP4 H2   HW0      0.679100        1.0080           
   36356 A    9089 TIP4 BD1  LP0     -1.358200        0.0000           
   36357 A    9090 TIP4 O1   OW0      0.000000       15.9990           
   36358 A    9090 TIP4 H1   HW0      0.679100        1.0080           
   36359 A    9090 TIP4 H2   HW0      0.679100        1.0080           
   36360 A    9090 TIP4 BD1  LP0     -1.358200        0.0000           
   36361 A    9091 TIP4 O1   OW0      0.000000       15.9990           
   36362 A    9091 TIP4 H1   HW0      0.679100        1.0080           
   36363 A    9091 TIP4 H2   HW0      0.679100        1.0080           
   36364 A    9091 TIP4 BD1  LP0     -1.358200        0.0000           
   36365 A    9092 TIP4 O1   OW0      0.000000       15.9990           
   36366 A    9092 TIP4 H1   HW0      0.679100        1.0080           
   36367 A    9092 TIP4 H2   HW0      0.679100        1.0080           
   36368 A    9092 TIP4 BD1  LP0     -1.358200        0.0000           
   36369 A    9093 TIP4 O1   OW0      0.000000       15.9990           
   36370 A    9093 TIP4 H1   HW0      0.679100        1.0080           
   36371 A    9093 TIP4 H2   HW0      0.679100        1.0080           
   36372 A    9093 TIP4 BD1  LP0     -1.358200        0.0000           
   36373 A    9094 TIP4 O1   OW0      0.000000       15.9990           
   36374 A    9094 TIP4 H1   HW0      0.679100        1.0080           
   36375 A    9094 TIP4 H2   HW0      0.679100        1.0080           
   36376 A    9094 TIP4 BD1  LP0     -1.358200        0.0000           
   36377 A    9095 TIP4 O1   OW0      0.000000       15.9990           
   36378 A    9095 TIP4 H1   HW0      0.679100        1.0080           
   36379 A    9095 TIP4 H2   HW0      0.679100        1.0080           
   36380 A    9095 TIP4 BD1  LP0     -1.358200        0.0000           
   36381 A    9096 TIP4 O1   OW0      0.000000       15.9990           
   36382 A    9096 TIP4 H1   HW0      0.679100        1.0080           
   36383 A    9096 TIP4 H2   HW0      0.679100        1.0080           
   36384 A    9096 TIP4 BD1  LP0     -1.358200        0.0000           
   36385 A    9097 TIP4 O1   OW0      0.000000       15.9990           
   36386 A    9097 TIP4 H1   HW0      0.679100        1.0080           
   36387 A    9097 TIP4 H2   HW0      0.679100        1.0080           
   36388 A    9097 TIP4 BD1  LP0     -1.358200        0.0000           
   36389 A    9098 TIP4 O1   OW0      0.000000       15.9990           
   36390 A    9098 TIP4 H1   HW0      0.679100        1.0080           
   36391 A    9098 TIP4 H2   HW0      0.679100        1.0080           
   36392 A    9098 TIP4 BD1  LP0     -1.358200        0.0000           
   36393 A    9099 TIP4 O1   OW0      0.000000       15.9990           
   36394 A    9099 TIP4 H1   HW0      0.679100        1.0080           
   36395 A    9099 TIP4 H2   HW0      0.679100        1.0080           
   36396 A    9099 TIP4 BD1  LP0     -1.358200        0.0000           
   36397 A    9100 TIP4 O1   OW0      0.000000       15.9990           
   36398 A    9100 TIP4 H1   HW0      0.679100        1.0080           
   36399 A    9100 TIP4 H2   HW0      0.679100        1.0080           
   36400 A    9100 TIP4 BD1  LP0     -1.358200        0.0000           
   36401 A    9101 TIP4 O1   OW0      0.000000       15.9990           
   36402 A    9101 TIP4 H1   HW0      0.679100        1.0080           
   36403 A    9101 TIP4 H2   HW0      0.679100        1.0080           
   36404 A    9101 TIP4 BD1  LP0     -1.358200        0.0000           
   36405 A    9102 TIP4 O1   OW0      0.000000       15.9990           
   36406 A    9102 TIP4 H1   HW0      0.679100        1.0080           
   36407 A    9102 TIP4 H2   HW0      0.679100        1.0080           
   36408 A    9102 TIP4 BD1  LP0     -1.358200        0.0000           
   36409 A    9103 TIP4 O1   OW0      0.000000       15.9990           
   36410 A    9103 TIP4 H1   HW0      0.679100        1.0080           
   36411 A    9103 TIP4 H2   HW0      0.679100        1.0080           
   36412 A    9103 TIP4 BD1  LP0     -1.358200        0.0000           
   36413 A    9104 TIP4 O1   OW0      0.000000       15.9990           
   36414 A    9104 TIP4 H1   HW0      0.679100        1.0080           
   36415 A    9104 TIP4 H2   HW0      0.679100        1.0080           
   36416 A    9104 TIP4 BD1  LP0     -1.358200        0.0000           
   36417 A    9105 TIP4 O1   OW0      0.000000       15.9990           
   36418 A    9105 TIP4 H1   HW0      0.679100        1.0080           
   36419 A    9105 TIP4 H2   HW0      0.679100        1.0080           
   36420 A    9105 TIP4 BD1  LP0     -1.358200        0.0000           
   36421 A    9106 TIP4 O1   OW0      0.000000       15.9990           
   36422 A    9106 TIP4 H1   HW0      0.679100        1.0080           
   36423 A    9106 TIP4 H2   HW0      0.679100        1.0080           
   36424 A    9106 TIP4 BD1  LP0     -1.358200        0.0000           
   36425 A    9107 TIP4 O1   OW0      0.000000       15.9990           
   36426 A    9107 TIP4 H1   HW0      0.679100        1.0080           
   36427 A    9107 TIP4 H2   HW0      0.679100        1.0080           
   36428 A    9107 TIP4 BD1  LP0     -1.358200        0.0000           
   36429 A    9108 TIP4 O1   OW0      0.000000       15.9990           
   36430 A    9108 TIP4 H1   HW0      0.679100        1.0080           
   36431 A    9108 TIP4 H2   HW0      0.679100        1.0080           
   36432 A    9108 TIP4 BD1  LP0     -1.358200        0.0000           
   36433 A    9109 TIP4 O1   OW0      0.000000       15.9990           
   36434 A    9109 TIP4 H1   HW0      0.679100        1.0080           
   36435 A    9109 TIP4 H2   HW0      0.679100        1.0080           
   36436 A    9109 TIP4 BD1  LP0     -1.358200        0.0000           
   36437 A    9110 TIP4 O1   OW0      0.000000       15.9990           
   36438 A    9110 TIP4 H1   HW0      0.679100        1.0080           
   36439 A    9110 TIP4 H2   HW0      0.679100        1.0080           
   36440 A    9110 TIP4 BD1  LP0     -1.358200        0.0000           
   36441 A    9111 TIP4 O1   OW0      0.000000       15.9990           
   36442 A    9111 TIP4 H1   HW0      0.679100        1.0080           
   36443 A    9111 TIP4 H2   HW0      0.679100        1.0080           
   36444 A    9111 TIP4 BD1  LP0     -1.358200        0.0000           
   36445 A    9112 TIP4 O1   OW0      0.000000       15.9990           
   36446 A    9112 TIP4 H1   HW0      0.679100        1.0080           
   36447 A    9112 TIP4 H2   HW0      0.679100        1.0080           
   36448 A    9112 TIP4 BD1  LP0     -1.358200        0.0000           
   36449 A    9113 TIP4 O1   OW0      0.000000       15.9990           
   36450 A    9113 TIP4 H1   HW0      0.679100        1.0080           
   36451 A    9113 TIP4 H2   HW0      0.679100        1.0080           
   36452 A    9113 TIP4 BD1  LP0     -1.358200        0.0000           
   36453 A    9114 TIP4 O1   OW0      0.000000       15.9990           
   36454 A    9114 TIP4 H1   HW0      0.679100        1.0080           
   36455 A    9114 TIP4 H2   HW0      0.679100        1.0080           
   36456 A    9114 TIP4 BD1  LP0     -1.358200        0.0000           
   36457 A    9115 TIP4 O1   OW0      0.000000       15.9990           
   36458 A    9115 TIP4 H1   HW0      0.679100        1.0080           
   36459 A    9115 TIP4 H2   HW0      0.679100        1.0080           
   36460 A    9115 TIP4 BD1  LP0     -1.358200        0.0000           
   36461 A    9116 TIP4 O1   OW0      0.000000       15.9990           
   36462 A    9116 TIP4 H1   HW0      0.679100        1.0080           
   36463 A    9116 TIP4 H2   HW0      0.679100        1.0080           
   36464 A    9116 TIP4 BD1  LP0     -1.358200        0.0000           
   36465 A    9117 TIP4 O1   OW0      0.000000       15.9990           
   36466 A    9117 TIP4 H1   HW0      0.679100        1.0080           
   36467 A    9117 TIP4 H2   HW0      0.679100        1.0080           
   36468 A    9117 TIP4 BD1  LP0     -1.358200        0.0000           
   36469 A    9118 TIP4 O1   OW0      0.000000       15.9990           
   36470 A    9118 TIP4 H1   HW0      0.679100        1.0080           
   36471 A    9118 TIP4 H2   HW0      0.679100        1.0080           
   36472 A    9118 TIP4 BD1  LP0     -1.358200        0.0000           
   36473 A    9119 TIP4 O1   OW0      0.000000       15.9990           
   36474 A    9119 TIP4 H1   HW0      0.679100        1.0080           
   36475 A    9119 TIP4 H2   HW0      0.679100        1.0080           
   36476 A    9119 TIP4 BD1  LP0     -1.358200        0.0000           
   36477 A    9120 TIP4 O1   OW0      0.000000       15.9990           
   36478 A    9120 TIP4 H1   HW0      0.679100        1.0080           
   36479 A    9120 TIP4 H2   HW0      0.679100        1.0080           
   36480 A    9120 TIP4 BD1  LP0     -1.358200        0.0000           
   36481 A    9121 TIP4 O1   OW0      0.000000       15.9990           
   36482 A    9121 TIP4 H1   HW0      0.679100        1.0080           
   36483 A    9121 TIP4 H2   HW0      0.679100        1.0080           
   36484 A    9121 TIP4 BD1  LP0     -1.358200        0.0000           
   36485 A    9122 TIP4 O1   OW0      0.000000       15.9990           
   36486 A    9122 TIP4 H1   HW0      0.679100        1.0080           
   36487 A    9122 TIP4 H2   HW0      0.679100        1.0080           
   36488 A    9122 TIP4 BD1  LP0     -1.358200        0.0000           
   36489 A    9123 TIP4 O1   OW0      0.000000       15.9990           
   36490 A    9123 TIP4 H1   HW0      0.679100        1.0080           
   36491 A    9123 TIP4 H2   HW0      0.679100        1.0080           
   36492 A    9123 TIP4 BD1  LP0     -1.358200        0.0000           
   36493 A    9124 TIP4 O1   OW0      0.000000       15.9990           
   36494 A    9124 TIP4 H1   HW0      0.679100        1.0080           
   36495 A    9124 TIP4 H2   HW0      0.679100        1.0080           
   36496 A    9124 TIP4 BD1  LP0     -1.358200        0.0000           
   36497 A    9125 TIP4 O1   OW0      0.000000       15.9990           
   36498 A    9125 TIP4 H1   HW0      0.679100        1.0080           
   36499 A    9125 TIP4 H2   HW0      0.679100        1.0080           
   36500 A    9125 TIP4 BD1  LP0     -1.358200        0.0000           
   36501 A    9126 TIP4 O1   OW0      0.000000       15.9990           
   36502 A    9126 TIP4 H1   HW0      0.679100        1.0080           
   36503 A    9126 TIP4 H2   HW0      0.679100        1.0080           
   36504 A    9126 TIP4 BD1  LP0     -1.358200        0.0000           
   36505 A    9127 TIP4 O1   OW0      0.000000       15.9990           
   36506 A    9127 TIP4 H1   HW0      0.679100        1.0080           
   36507 A    9127 TIP4 H2   HW0      0.679100        1.0080           
   36508 A    9127 TIP4 BD1  LP0     -1.358200        0.0000           
   36509 A    9128 TIP4 O1   OW0      0.000000       15.9990           
   36510 A    9128 TIP4 H1   HW0      0.679100        1.0080           
   36511 A    9128 TIP4 H2   HW0      0.679100        1.0080           
   36512 A    9128 TIP4 BD1  LP0     -1.358200        0.0000           
   36513 A    9129 TIP4 O1   OW0      0.000000       15.9990           
   36514 A    9129 TIP4 H1   HW0      0.679100        1.0080           
   36515 A    9129 TIP4 H2   HW0      0.679100        1.0080           
   36516 A    9129 TIP4 BD1  LP0     -1.358200        0.0000           
   36517 A    9130 TIP4 O1   OW0      0.000000       15.9990           
   36518 A    9130 TIP4 H1   HW0      0.679100        1.0080           
   36519 A    9130 TIP4 H2   HW0      0.679100        1.0080           
   36520 A    9130 TIP4 BD1  LP0     -1.358200        0.0000           
   36521 A    9131 TIP4 O1   OW0      0.000000       15.9990           
   36522 A    9131 TIP4 H1   HW0      0.679100        1.0080           
   36523 A    9131 TIP4 H2   HW0      0.679100        1.0080           
   36524 A    9131 TIP4 BD1  LP0     -1.358200        0.0000           
   36525 A    9132 TIP4 O1   OW0      0.000000       15.9990           
   36526 A    9132 TIP4 H1   HW0      0.679100        1.0080           
   36527 A    9132 TIP4 H2   HW0      0.679100        1.0080           
   36528 A    9132 TIP4 BD1  LP0     -1.358200        0.0000           
   36529 A    9133 TIP4 O1   OW0      0.000000       15.9990           
   36530 A    9133 TIP4 H1   HW0      0.679100        1.0080           
   36531 A    9133 TIP4 H2   HW0      0.679100        1.0080           
   36532 A    9133 TIP4 BD1  LP0     -1.358200        0.0000           
   36533 A    9134 TIP4 O1   OW0      0.000000       15.9990           
   36534 A    9134 TIP4 H1   HW0      0.679100        1.0080           
   36535 A    9134 TIP4 H2   HW0      0.679100        1.0080           
   36536 A    9134 TIP4 BD1  LP0     -1.358200        0.0000           
   36537 A    9135 TIP4 O1   OW0      0.000000       15.9990           
   36538 A    9135 TIP4 H1   HW0      0.679100        1.0080           
   36539 A    9135 TIP4 H2   HW0      0.679100        1.0080           
   36540 A    9135 TIP4 BD1  LP0     -1.358200        0.0000           
   36541 A    9136 TIP4 O1   OW0      0.000000       15.9990           
   36542 A    9136 TIP4 H1   HW0      0.679100        1.0080           
   36543 A    9136 TIP4 H2   HW0      0.679100        1.0080           
   36544 A    9136 TIP4 BD1  LP0     -1.358200        0.0000           
   36545 A    9137 TIP4 O1   OW0      0.000000       15.9990           
   36546 A    9137 TIP4 H1   HW0      0.679100        1.0080           
   36547 A    9137 TIP4 H2   HW0      0.679100        1.0080           
   36548 A    9137 TIP4 BD1  LP0     -1.358200        0.0000           
   36549 A    9138 TIP4 O1   OW0      0.000000       15.9990           
   36550 A    9138 TIP4 H1   HW0      0.679100        1.0080           
   36551 A    9138 TIP4 H2   HW0      0.679100        1.0080           
   36552 A    9138 TIP4 BD1  LP0     -1.358200        0.0000           
   36553 A    9139 TIP4 O1   OW0      0.000000       15.9990           
   36554 A    9139 TIP4 H1   HW0      0.679100        1.0080           
   36555 A    9139 TIP4 H2   HW0      0.679100        1.0080           
   36556 A    9139 TIP4 BD1  LP0     -1.358200        0.0000           
   36557 A    9140 TIP4 O1   OW0      0.000000       15.9990           
   36558 A    9140 TIP4 H1   HW0      0.679100        1.0080           
   36559 A    9140 TIP4 H2   HW0      0.679100        1.0080           
   36560 A    9140 TIP4 BD1  LP0     -1.358200        0.0000           
   36561 A    9141 TIP4 O1   OW0      0.000000       15.9990           
   36562 A    9141 TIP4 H1   HW0      0.679100        1.0080           
   36563 A    9141 TIP4 H2   HW0      0.679100        1.0080           
   36564 A    9141 TIP4 BD1  LP0     -1.358200        0.0000           
   36565 A    9142 TIP4 O1   OW0      0.000000       15.9990           
   36566 A    9142 TIP4 H1   HW0      0.679100        1.0080           
   36567 A    9142 TIP4 H2   HW0      0.679100        1.0080           
   36568 A    9142 TIP4 BD1  LP0     -1.358200        0.0000           
   36569 A    9143 TIP4 O1   OW0      0.000000       15.9990           
   36570 A    9143 TIP4 H1   HW0      0.679100        1.0080           
   36571 A    9143 TIP4 H2   HW0      0.679100        1.0080           
   36572 A    9143 TIP4 BD1  LP0     -1.358200        0.0000           
   36573 A    9144 TIP4 O1   OW0      0.000000       15.9990           
   36574 A    9144 TIP4 H1   HW0      0.679100        1.0080           
   36575 A    9144 TIP4 H2   HW0      0.679100        1.0080           
   36576 A    9144 TIP4 BD1  LP0     -1.358200        0.0000           
   36577 A    9145 TIP4 O1   OW0      0.000000       15.9990           
   36578 A    9145 TIP4 H1   HW0      0.679100        1.0080           
   36579 A    9145 TIP4 H2   HW0      0.679100        1.0080           
   36580 A    9145 TIP4 BD1  LP0     -1.358200        0.0000           
   36581 A    9146 TIP4 O1   OW0      0.000000       15.9990           
   36582 A    9146 TIP4 H1   HW0      0.679100        1.0080           
   36583 A    9146 TIP4 H2   HW0      0.679100        1.0080           
   36584 A    9146 TIP4 BD1  LP0     -1.358200        0.0000           
   36585 A    9147 TIP4 O1   OW0      0.000000       15.9990           
   36586 A    9147 TIP4 H1   HW0      0.679100        1.0080           
   36587 A    9147 TIP4 H2   HW0      0.679100        1.0080           
   36588 A    9147 TIP4 BD1  LP0     -1.358200        0.0000           
   36589 A    9148 TIP4 O1   OW0      0.000000       15.9990           
   36590 A    9148 TIP4 H1   HW0      0.679100        1.0080           
   36591 A    9148 TIP4 H2   HW0      0.679100        1.0080           
   36592 A    9148 TIP4 BD1  LP0     -1.358200        0.0000           
   36593 A    9149 TIP4 O1   OW0      0.000000       15.9990           
   36594 A    9149 TIP4 H1   HW0      0.679100        1.0080           
   36595 A    9149 TIP4 H2   HW0      0.679100        1.0080           
   36596 A    9149 TIP4 BD1  LP0     -1.358200        0.0000           
   36597 A    9150 TIP4 O1   OW0      0.000000       15.9990           
   36598 A    9150 TIP4 H1   HW0      0.679100        1.0080           
   36599 A    9150 TIP4 H2   HW0      0.679100        1.0080           
   36600 A    9150 TIP4 BD1  LP0     -1.358200        0.0000           
   36601 A    9151 TIP4 O1   OW0      0.000000       15.9990           
   36602 A    9151 TIP4 H1   HW0      0.679100        1.0080           
   36603 A    9151 TIP4 H2   HW0      0.679100        1.0080           
   36604 A    9151 TIP4 BD1  LP0     -1.358200        0.0000           
   36605 A    9152 TIP4 O1   OW0      0.000000       15.9990           
   36606 A    9152 TIP4 H1   HW0      0.679100        1.0080           
   36607 A    9152 TIP4 H2   HW0      0.679100        1.0080           
   36608 A    9152 TIP4 BD1  LP0     -1.358200        0.0000           
   36609 A    9153 TIP4 O1   OW0      0.000000       15.9990           
   36610 A    9153 TIP4 H1   HW0      0.679100        1.0080           
   36611 A    9153 TIP4 H2   HW0      0.679100        1.0080           
   36612 A    9153 TIP4 BD1  LP0     -1.358200        0.0000           
   36613 A    9154 TIP4 O1   OW0      0.000000       15.9990           
   36614 A    9154 TIP4 H1   HW0      0.679100        1.0080           
   36615 A    9154 TIP4 H2   HW0      0.679100        1.0080           
   36616 A    9154 TIP4 BD1  LP0     -1.358200        0.0000           
   36617 A    9155 TIP4 O1   OW0      0.000000       15.9990           
   36618 A    9155 TIP4 H1   HW0      0.679100        1.0080           
   36619 A    9155 TIP4 H2   HW0      0.679100        1.0080           
   36620 A    9155 TIP4 BD1  LP0     -1.358200        0.0000           
   36621 A    9156 TIP4 O1   OW0      0.000000       15.9990           
   36622 A    9156 TIP4 H1   HW0      0.679100        1.0080           
   36623 A    9156 TIP4 H2   HW0      0.679100        1.0080           
   36624 A    9156 TIP4 BD1  LP0     -1.358200        0.0000           
   36625 A    9157 TIP4 O1   OW0      0.000000       15.9990           
   36626 A    9157 TIP4 H1   HW0      0.679100        1.0080           
   36627 A    9157 TIP4 H2   HW0      0.679100        1.0080           
   36628 A    9157 TIP4 BD1  LP0     -1.358200        0.0000           
   36629 A    9158 TIP4 O1   OW0      0.000000       15.9990           
   36630 A    9158 TIP4 H1   HW0      0.679100        1.0080           
   36631 A    9158 TIP4 H2   HW0      0.679100        1.0080           
   36632 A    9158 TIP4 BD1  LP0     -1.358200        0.0000           
   36633 A    9159 TIP4 O1   OW0      0.000000       15.9990           
   36634 A    9159 TIP4 H1   HW0      0.679100        1.0080           
   36635 A    9159 TIP4 H2   HW0      0.679100        1.0080           
   36636 A    9159 TIP4 BD1  LP0     -1.358200        0.0000           
   36637 A    9160 TIP4 O1   OW0      0.000000       15.9990           
   36638 A    9160 TIP4 H1   HW0      0.679100        1.0080           
   36639 A    9160 TIP4 H2   HW0      0.679100        1.0080           
   36640 A    9160 TIP4 BD1  LP0     -1.358200        0.0000           
   36641 A    9161 TIP4 O1   OW0      0.000000       15.9990           
   36642 A    9161 TIP4 H1   HW0      0.679100        1.0080           
   36643 A    9161 TIP4 H2   HW0      0.679100        1.0080           
   36644 A    9161 TIP4 BD1  LP0     -1.358200        0.0000           
   36645 A    9162 TIP4 O1   OW0      0.000000       15.9990           
   36646 A    9162 TIP4 H1   HW0      0.679100        1.0080           
   36647 A    9162 TIP4 H2   HW0      0.679100        1.0080           
   36648 A    9162 TIP4 BD1  LP0     -1.358200        0.0000           
   36649 A    9163 TIP4 O1   OW0      0.000000       15.9990           
   36650 A    9163 TIP4 H1   HW0      0.679100        1.0080           
   36651 A    9163 TIP4 H2   HW0      0.679100        1.0080           
   36652 A    9163 TIP4 BD1  LP0     -1.358200        0.0000           
   36653 A    9164 TIP4 O1   OW0      0.000000       15.9990           
   36654 A    9164 TIP4 H1   HW0      0.679100        1.0080           
   36655 A    9164 TIP4 H2   HW0      0.679100        1.0080           
   36656 A    9164 TIP4 BD1  LP0     -1.358200        0.0000           
   36657 A    9165 TIP4 O1   OW0      0.000000       15.9990           
   36658 A    9165 TIP4 H1   HW0      0.679100        1.0080           
   36659 A    9165 TIP4 H2   HW0      0.679100        1.0080           
   36660 A    9165 TIP4 BD1  LP0     -1.358200        0.0000           
   36661 A    9166 TIP4 O1   OW0      0.000000       15.9990           
   36662 A    9166 TIP4 H1   HW0      0.679100        1.0080           
   36663 A    9166 TIP4 H2   HW0      0.679100        1.0080           
   36664 A    9166 TIP4 BD1  LP0     -1.358200        0.0000           
   36665 A    9167 TIP4 O1   OW0      0.000000       15.9990           
   36666 A    9167 TIP4 H1   HW0      0.679100        1.0080           
   36667 A    9167 TIP4 H2   HW0      0.679100        1.0080           
   36668 A    9167 TIP4 BD1  LP0     -1.358200        0.0000           
   36669 A    9168 TIP4 O1   OW0      0.000000       15.9990           
   36670 A    9168 TIP4 H1   HW0      0.679100        1.0080           
   36671 A    9168 TIP4 H2   HW0      0.679100        1.0080           
   36672 A    9168 TIP4 BD1  LP0     -1.358200        0.0000           
   36673 A    9169 TIP4 O1   OW0      0.000000       15.9990           
   36674 A    9169 TIP4 H1   HW0      0.679100        1.0080           
   36675 A    9169 TIP4 H2   HW0      0.679100        1.0080           
   36676 A    9169 TIP4 BD1  LP0     -1.358200        0.0000           
   36677 A    9170 TIP4 O1   OW0      0.000000       15.9990           
   36678 A    9170 TIP4 H1   HW0      0.679100        1.0080           
   36679 A    9170 TIP4 H2   HW0      0.679100        1.0080           
   36680 A    9170 TIP4 BD1  LP0     -1.358200        0.0000           
   36681 A    9171 TIP4 O1   OW0      0.000000       15.9990           
   36682 A    9171 TIP4 H1   HW0      0.679100        1.0080           
   36683 A    9171 TIP4 H2   HW0      0.679100        1.0080           
   36684 A    9171 TIP4 BD1  LP0     -1.358200        0.0000           
   36685 A    9172 TIP4 O1   OW0      0.000000       15.9990           
   36686 A    9172 TIP4 H1   HW0      0.679100        1.0080           
   36687 A    9172 TIP4 H2   HW0      0.679100        1.0080           
   36688 A    9172 TIP4 BD1  LP0     -1.358200        0.0000           
   36689 A    9173 TIP4 O1   OW0      0.000000       15.9990           
   36690 A    9173 TIP4 H1   HW0      0.679100        1.0080           
   36691 A    9173 TIP4 H2   HW0      0.679100        1.0080           
   36692 A    9173 TIP4 BD1  LP0     -1.358200        0.0000           
   36693 A    9174 TIP4 O1   OW0      0.000000       15.9990           
   36694 A    9174 TIP4 H1   HW0      0.679100        1.0080           
   36695 A    9174 TIP4 H2   HW0      0.679100        1.0080           
   36696 A    9174 TIP4 BD1  LP0     -1.358200        0.0000           
   36697 A    9175 TIP4 O1   OW0      0.000000       15.9990           
   36698 A    9175 TIP4 H1   HW0      0.679100        1.0080           
   36699 A    9175 TIP4 H2   HW0      0.679100        1.0080           
   36700 A    9175 TIP4 BD1  LP0     -1.358200        0.0000           
   36701 A    9176 TIP4 O1   OW0      0.000000       15.9990           
   36702 A    9176 TIP4 H1   HW0      0.679100        1.0080           
   36703 A    9176 TIP4 H2   HW0      0.679100        1.0080           
   36704 A    9176 TIP4 BD1  LP0     -1.358200        0.0000           
   36705 A    9177 TIP4 O1   OW0      0.000000       15.9990           
   36706 A    9177 TIP4 H1   HW0      0.679100        1.0080           
   36707 A    9177 TIP4 H2   HW0      0.679100        1.0080           
   36708 A    9177 TIP4 BD1  LP0     -1.358200        0.0000           
   36709 A    9178 TIP4 O1   OW0      0.000000       15.9990           
   36710 A    9178 TIP4 H1   HW0      0.679100        1.0080           
   36711 A    9178 TIP4 H2   HW0      0.679100        1.0080           
   36712 A    9178 TIP4 BD1  LP0     -1.358200        0.0000           
   36713 A    9179 TIP4 O1   OW0      0.000000       15.9990           
   36714 A    9179 TIP4 H1   HW0      0.679100        1.0080           
   36715 A    9179 TIP4 H2   HW0      0.679100        1.0080           
   36716 A    9179 TIP4 BD1  LP0     -1.358200        0.0000           
   36717 A    9180 TIP4 O1   OW0      0.000000       15.9990           
   36718 A    9180 TIP4 H1   HW0      0.679100        1.0080           
   36719 A    9180 TIP4 H2   HW0      0.679100        1.0080           
   36720 A    9180 TIP4 BD1  LP0     -1.358200        0.0000           
   36721 A    9181 TIP4 O1   OW0      0.000000       15.9990           
   36722 A    9181 TIP4 H1   HW0      0.679100        1.0080           
   36723 A    9181 TIP4 H2   HW0      0.679100        1.0080           
   36724 A    9181 TIP4 BD1  LP0     -1.358200        0.0000           
   36725 A    9182 TIP4 O1   OW0      0.000000       15.9990           
   36726 A    9182 TIP4 H1   HW0      0.679100        1.0080           
   36727 A    9182 TIP4 H2   HW0      0.679100        1.0080           
   36728 A    9182 TIP4 BD1  LP0     -1.358200        0.0000           
   36729 A    9183 TIP4 O1   OW0      0.000000       15.9990           
   36730 A    9183 TIP4 H1   HW0      0.679100        1.0080           
   36731 A    9183 TIP4 H2   HW0      0.679100        1.0080           
   36732 A    9183 TIP4 BD1  LP0     -1.358200        0.0000           
   36733 A    9184 TIP4 O1   OW0      0.000000       15.9990           
   36734 A    9184 TIP4 H1   HW0      0.679100        1.0080           
   36735 A    9184 TIP4 H2   HW0      0.679100        1.0080           
   36736 A    9184 TIP4 BD1  LP0     -1.358200        0.0000           
   36737 A    9185 TIP4 O1   OW0      0.000000       15.9990           
   36738 A    9185 TIP4 H1   HW0      0.679100        1.0080           
   36739 A    9185 TIP4 H2   HW0      0.679100        1.0080           
   36740 A    9185 TIP4 BD1  LP0     -1.358200        0.0000           
   36741 A    9186 TIP4 O1   OW0      0.000000       15.9990           
   36742 A    9186 TIP4 H1   HW0      0.679100        1.0080           
   36743 A    9186 TIP4 H2   HW0      0.679100        1.0080           
   36744 A    9186 TIP4 BD1  LP0     -1.358200        0.0000           
   36745 A    9187 TIP4 O1   OW0      0.000000       15.9990           
   36746 A    9187 TIP4 H1   HW0      0.679100        1.0080           
   36747 A    9187 TIP4 H2   HW0      0.679100        1.0080           
   36748 A    9187 TIP4 BD1  LP0     -1.358200        0.0000           
   36749 A    9188 TIP4 O1   OW0      0.000000       15.9990           
   36750 A    9188 TIP4 H1   HW0      0.679100        1.0080           
   36751 A    9188 TIP4 H2   HW0      0.679100        1.0080           
   36752 A    9188 TIP4 BD1  LP0     -1.358200        0.0000           
   36753 A    9189 TIP4 O1   OW0      0.000000       15.9990           
   36754 A    9189 TIP4 H1   HW0      0.679100        1.0080           
   36755 A    9189 TIP4 H2   HW0      0.679100        1.0080           
   36756 A    9189 TIP4 BD1  LP0     -1.358200        0.0000           
   36757 A    9190 TIP4 O1   OW0      0.000000       15.9990           
   36758 A    9190 TIP4 H1   HW0      0.679100        1.0080           
   36759 A    9190 TIP4 H2   HW0      0.679100        1.0080           
   36760 A    9190 TIP4 BD1  LP0     -1.358200        0.0000           
   36761 A    9191 TIP4 O1   OW0      0.000000       15.9990           
   36762 A    9191 TIP4 H1   HW0      0.679100        1.0080           
   36763 A    9191 TIP4 H2   HW0      0.679100        1.0080           
   36764 A    9191 TIP4 BD1  LP0     -1.358200        0.0000           
   36765 A    9192 TIP4 O1   OW0      0.000000       15.9990           
   36766 A    9192 TIP4 H1   HW0      0.679100        1.0080           
   36767 A    9192 TIP4 H2   HW0      0.679100        1.0080           
   36768 A    9192 TIP4 BD1  LP0     -1.358200        0.0000           
   36769 A    9193 TIP4 O1   OW0      0.000000       15.9990           
   36770 A    9193 TIP4 H1   HW0      0.679100        1.0080           
   36771 A    9193 TIP4 H2   HW0      0.679100        1.0080           
   36772 A    9193 TIP4 BD1  LP0     -1.358200        0.0000           
   36773 A    9194 TIP4 O1   OW0      0.000000       15.9990           
   36774 A    9194 TIP4 H1   HW0      0.679100        1.0080           
   36775 A    9194 TIP4 H2   HW0      0.679100        1.0080           
   36776 A    9194 TIP4 BD1  LP0     -1.358200        0.0000           
   36777 A    9195 TIP4 O1   OW0      0.000000       15.9990           
   36778 A    9195 TIP4 H1   HW0      0.679100        1.0080           
   36779 A    9195 TIP4 H2   HW0      0.679100        1.0080           
   36780 A    9195 TIP4 BD1  LP0     -1.358200        0.0000           
   36781 A    9196 TIP4 O1   OW0      0.000000       15.9990           
   36782 A    9196 TIP4 H1   HW0      0.679100        1.0080           
   36783 A    9196 TIP4 H2   HW0      0.679100        1.0080           
   36784 A    9196 TIP4 BD1  LP0     -1.358200        0.0000           
   36785 A    9197 TIP4 O1   OW0      0.000000       15.9990           
   36786 A    9197 TIP4 H1   HW0      0.679100        1.0080           
   36787 A    9197 TIP4 H2   HW0      0.679100        1.0080           
   36788 A    9197 TIP4 BD1  LP0     -1.358200        0.0000           
   36789 A    9198 TIP4 O1   OW0      0.000000       15.9990           
   36790 A    9198 TIP4 H1   HW0      0.679100        1.0080           
   36791 A    9198 TIP4 H2   HW0      0.679100        1.0080           
   36792 A    9198 TIP4 BD1  LP0     -1.358200        0.0000           
   36793 A    9199 TIP4 O1   OW0      0.000000       15.9990           
   36794 A    9199 TIP4 H1   HW0      0.679100        1.0080           
   36795 A    9199 TIP4 H2   HW0      0.679100        1.0080           
   36796 A    9199 TIP4 BD1  LP0     -1.358200        0.0000           
   36797 A    9200 TIP4 O1   OW0      0.000000       15.9990           
   36798 A    9200 TIP4 H1   HW0      0.679100        1.0080           
   36799 A    9200 TIP4 H2   HW0      0.679100        1.0080           
   36800 A    9200 TIP4 BD1  LP0     -1.358200        0.0000           
   36801 A    9201 TIP4 O1   OW0      0.000000       15.9990           
   36802 A    9201 TIP4 H1   HW0      0.679100        1.0080           
   36803 A    9201 TIP4 H2   HW0      0.679100        1.0080           
   36804 A    9201 TIP4 BD1  LP0     -1.358200        0.0000           
   36805 A    9202 TIP4 O1   OW0      0.000000       15.9990           
   36806 A    9202 TIP4 H1   HW0      0.679100        1.0080           
   36807 A    9202 TIP4 H2   HW0      0.679100        1.0080           
   36808 A    9202 TIP4 BD1  LP0     -1.358200        0.0000           
   36809 A    9203 TIP4 O1   OW0      0.000000       15.9990           
   36810 A    9203 TIP4 H1   HW0      0.679100        1.0080           
   36811 A    9203 TIP4 H2   HW0      0.679100        1.0080           
   36812 A    9203 TIP4 BD1  LP0     -1.358200        0.0000           
   36813 A    9204 TIP4 O1   OW0      0.000000       15.9990           
   36814 A    9204 TIP4 H1   HW0      0.679100        1.0080           
   36815 A    9204 TIP4 H2   HW0      0.679100        1.0080           
   36816 A    9204 TIP4 BD1  LP0     -1.358200        0.0000           
   36817 A    9205 TIP4 O1   OW0      0.000000       15.9990           
   36818 A    9205 TIP4 H1   HW0      0.679100        1.0080           
   36819 A    9205 TIP4 H2   HW0      0.679100        1.0080           
   36820 A    9205 TIP4 BD1  LP0     -1.358200        0.0000           
   36821 A    9206 TIP4 O1   OW0      0.000000       15.9990           
   36822 A    9206 TIP4 H1   HW0      0.679100        1.0080           
   36823 A    9206 TIP4 H2   HW0      0.679100        1.0080           
   36824 A    9206 TIP4 BD1  LP0     -1.358200        0.0000           
   36825 A    9207 TIP4 O1   OW0      0.000000       15.9990           
   36826 A    9207 TIP4 H1   HW0      0.679100        1.0080           
   36827 A    9207 TIP4 H2   HW0      0.679100        1.0080           
   36828 A    9207 TIP4 BD1  LP0     -1.358200        0.0000           
   36829 A    9208 TIP4 O1   OW0      0.000000       15.9990           
   36830 A    9208 TIP4 H1   HW0      0.679100        1.0080           
   36831 A    9208 TIP4 H2   HW0      0.679100        1.0080           
   36832 A    9208 TIP4 BD1  LP0     -1.358200        0.0000           
   36833 A    9209 TIP4 O1   OW0      0.000000       15.9990           
   36834 A    9209 TIP4 H1   HW0      0.679100        1.0080           
   36835 A    9209 TIP4 H2   HW0      0.679100        1.0080           
   36836 A    9209 TIP4 BD1  LP0     -1.358200        0.0000           
   36837 A    9210 TIP4 O1   OW0      0.000000       15.9990           
   36838 A    9210 TIP4 H1   HW0      0.679100        1.0080           
   36839 A    9210 TIP4 H2   HW0      0.679100        1.0080           
   36840 A    9210 TIP4 BD1  LP0     -1.358200        0.0000           
   36841 A    9211 TIP4 O1   OW0      0.000000       15.9990           
   36842 A    9211 TIP4 H1   HW0      0.679100        1.0080           
   36843 A    9211 TIP4 H2   HW0      0.679100        1.0080           
   36844 A    9211 TIP4 BD1  LP0     -1.358200        0.0000           
   36845 A    9212 TIP4 O1   OW0      0.000000       15.9990           
   36846 A    9212 TIP4 H1   HW0      0.679100        1.0080           
   36847 A    9212 TIP4 H2   HW0      0.679100        1.0080           
   36848 A    9212 TIP4 BD1  LP0     -1.358200        0.0000           
   36849 A    9213 TIP4 O1   OW0      0.000000       15.9990           
   36850 A    9213 TIP4 H1   HW0      0.679100        1.0080           
   36851 A    9213 TIP4 H2   HW0      0.679100        1.0080           
   36852 A    9213 TIP4 BD1  LP0     -1.358200        0.0000           
   36853 A    9214 TIP4 O1   OW0      0.000000       15.9990           
   36854 A    9214 TIP4 H1   HW0      0.679100        1.0080           
   36855 A    9214 TIP4 H2   HW0      0.679100        1.0080           
   36856 A    9214 TIP4 BD1  LP0     -1.358200        0.0000           
   36857 A    9215 TIP4 O1   OW0      0.000000       15.9990           
   36858 A    9215 TIP4 H1   HW0      0.679100        1.0080           
   36859 A    9215 TIP4 H2   HW0      0.679100        1.0080           
   36860 A    9215 TIP4 BD1  LP0     -1.358200        0.0000           
   36861 A    9216 TIP4 O1   OW0      0.000000       15.9990           
   36862 A    9216 TIP4 H1   HW0      0.679100        1.0080           
   36863 A    9216 TIP4 H2   HW0      0.679100        1.0080           
   36864 A    9216 TIP4 BD1  LP0     -1.358200        0.0000           
   36865 A    9217 TIP4 O1   OW0      0.000000       15.9990           
   36866 A    9217 TIP4 H1   HW0      0.679100        1.0080           
   36867 A    9217 TIP4 H2   HW0      0.679100        1.0080           
   36868 A    9217 TIP4 BD1  LP0     -1.358200        0.0000           
   36869 A    9218 TIP4 O1   OW0      0.000000       15.9990           
   36870 A    9218 TIP4 H1   HW0      0.679100        1.0080           
   36871 A    9218 TIP4 H2   HW0      0.679100        1.0080           
   36872 A    9218 TIP4 BD1  LP0     -1.358200        0.0000           
   36873 A    9219 TIP4 O1   OW0      0.000000       15.9990           
   36874 A    9219 TIP4 H1   HW0      0.679100        1.0080           
   36875 A    9219 TIP4 H2   HW0      0.679100        1.0080           
   36876 A    9219 TIP4 BD1  LP0     -1.358200        0.0000           
   36877 A    9220 TIP4 O1   OW0      0.000000       15.9990           
   36878 A    9220 TIP4 H1   HW0      0.679100        1.0080           
   36879 A    9220 TIP4 H2   HW0      0.679100        1.0080           
   36880 A    9220 TIP4 BD1  LP0     -1.358200        0.0000           
   36881 A    9221 TIP4 O1   OW0      0.000000       15.9990           
   36882 A    9221 TIP4 H1   HW0      0.679100        1.0080           
   36883 A    9221 TIP4 H2   HW0      0.679100        1.0080           
   36884 A    9221 TIP4 BD1  LP0     -1.358200        0.0000           
   36885 A    9222 TIP4 O1   OW0      0.000000       15.9990           
   36886 A    9222 TIP4 H1   HW0      0.679100        1.0080           
   36887 A    9222 TIP4 H2   HW0      0.679100        1.0080           
   36888 A    9222 TIP4 BD1  LP0     -1.358200        0.0000           
   36889 A    9223 TIP4 O1   OW0      0.000000       15.9990           
   36890 A    9223 TIP4 H1   HW0      0.679100        1.0080           
   36891 A    9223 TIP4 H2   HW0      0.679100        1.0080           
   36892 A    9223 TIP4 BD1  LP0     -1.358200        0.0000           
   36893 A    9224 TIP4 O1   OW0      0.000000       15.9990           
   36894 A    9224 TIP4 H1   HW0      0.679100        1.0080           
   36895 A    9224 TIP4 H2   HW0      0.679100        1.0080           
   36896 A    9224 TIP4 BD1  LP0     -1.358200        0.0000           
   36897 A    9225 TIP4 O1   OW0      0.000000       15.9990           
   36898 A    9225 TIP4 H1   HW0      0.679100        1.0080           
   36899 A    9225 TIP4 H2   HW0      0.679100        1.0080           
   36900 A    9225 TIP4 BD1  LP0     -1.358200        0.0000           
   36901 A    9226 TIP4 O1   OW0      0.000000       15.9990           
   36902 A    9226 TIP4 H1   HW0      0.679100        1.0080           
   36903 A    9226 TIP4 H2   HW0      0.679100        1.0080           
   36904 A    9226 TIP4 BD1  LP0     -1.358200        0.0000           
   36905 A    9227 TIP4 O1   OW0      0.000000       15.9990           
   36906 A    9227 TIP4 H1   HW0      0.679100        1.0080           
   36907 A    9227 TIP4 H2   HW0      0.679100        1.0080           
   36908 A    9227 TIP4 BD1  LP0     -1.358200        0.0000           
   36909 A    9228 TIP4 O1   OW0      0.000000       15.9990           
   36910 A    9228 TIP4 H1   HW0      0.679100        1.0080           
   36911 A    9228 TIP4 H2   HW0      0.679100        1.0080           
   36912 A    9228 TIP4 BD1  LP0     -1.358200        0.0000           
   36913 A    9229 TIP4 O1   OW0      0.000000       15.9990           
   36914 A    9229 TIP4 H1   HW0      0.679100        1.0080           
   36915 A    9229 TIP4 H2   HW0      0.679100        1.0080           
   36916 A    9229 TIP4 BD1  LP0     -1.358200        0.0000           
   36917 A    9230 TIP4 O1   OW0      0.000000       15.9990           
   36918 A    9230 TIP4 H1   HW0      0.679100        1.0080           
   36919 A    9230 TIP4 H2   HW0      0.679100        1.0080           
   36920 A    9230 TIP4 BD1  LP0     -1.358200        0.0000           
   36921 A    9231 TIP4 O1   OW0      0.000000       15.9990           
   36922 A    9231 TIP4 H1   HW0      0.679100        1.0080           
   36923 A    9231 TIP4 H2   HW0      0.679100        1.0080           
   36924 A    9231 TIP4 BD1  LP0     -1.358200        0.0000           
   36925 A    9232 TIP4 O1   OW0      0.000000       15.9990           
   36926 A    9232 TIP4 H1   HW0      0.679100        1.0080           
   36927 A    9232 TIP4 H2   HW0      0.679100        1.0080           
   36928 A    9232 TIP4 BD1  LP0     -1.358200        0.0000           
   36929 A    9233 TIP4 O1   OW0      0.000000       15.9990           
   36930 A    9233 TIP4 H1   HW0      0.679100        1.0080           
   36931 A    9233 TIP4 H2   HW0      0.679100        1.0080           
   36932 A    9233 TIP4 BD1  LP0     -1.358200        0.0000           
   36933 A    9234 TIP4 O1   OW0      0.000000       15.9990           
   36934 A    9234 TIP4 H1   HW0      0.679100        1.0080           
   36935 A    9234 TIP4 H2   HW0      0.679100        1.0080           
   36936 A    9234 TIP4 BD1  LP0     -1.358200        0.0000           
   36937 A    9235 TIP4 O1   OW0      0.000000       15.9990           
   36938 A    9235 TIP4 H1   HW0      0.679100        1.0080           
   36939 A    9235 TIP4 H2   HW0      0.679100        1.0080           
   36940 A    9235 TIP4 BD1  LP0     -1.358200        0.0000           
   36941 A    9236 TIP4 O1   OW0      0.000000       15.9990           
   36942 A    9236 TIP4 H1   HW0      0.679100        1.0080           
   36943 A    9236 TIP4 H2   HW0      0.679100        1.0080           
   36944 A    9236 TIP4 BD1  LP0     -1.358200        0.0000           
   36945 A    9237 TIP4 O1   OW0      0.000000       15.9990           
   36946 A    9237 TIP4 H1   HW0      0.679100        1.0080           
   36947 A    9237 TIP4 H2   HW0      0.679100        1.0080           
   36948 A    9237 TIP4 BD1  LP0     -1.358200        0.0000           
   36949 A    9238 TIP4 O1   OW0      0.000000       15.9990           
   36950 A    9238 TIP4 H1   HW0      0.679100        1.0080           
   36951 A    9238 TIP4 H2   HW0      0.679100        1.0080           
   36952 A    9238 TIP4 BD1  LP0     -1.358200        0.0000           
   36953 A    9239 TIP4 O1   OW0      0.000000       15.9990           
   36954 A    9239 TIP4 H1   HW0      0.679100        1.0080           
   36955 A    9239 TIP4 H2   HW0      0.679100        1.0080           
   36956 A    9239 TIP4 BD1  LP0     -1.358200        0.0000           
   36957 A    9240 TIP4 O1   OW0      0.000000       15.9990           
   36958 A    9240 TIP4 H1   HW0      0.679100        1.0080           
   36959 A    9240 TIP4 H2   HW0      0.679100        1.0080           
   36960 A    9240 TIP4 BD1  LP0     -1.358200        0.0000           
   36961 A    9241 TIP4 O1   OW0      0.000000       15.9990           
   36962 A    9241 TIP4 H1   HW0      0.679100        1.0080           
   36963 A    9241 TIP4 H2   HW0      0.679100        1.0080           
   36964 A    9241 TIP4 BD1  LP0     -1.358200        0.0000           
   36965 A    9242 TIP4 O1   OW0      0.000000       15.9990           
   36966 A    9242 TIP4 H1   HW0      0.679100        1.0080           
   36967 A    9242 TIP4 H2   HW0      0.679100        1.0080           
   36968 A    9242 TIP4 BD1  LP0     -1.358200        0.0000           
   36969 A    9243 TIP4 O1   OW0      0.000000       15.9990           
   36970 A    9243 TIP4 H1   HW0      0.679100        1.0080           
   36971 A    9243 TIP4 H2   HW0      0.679100        1.0080           
   36972 A    9243 TIP4 BD1  LP0     -1.358200        0.0000           
   36973 A    9244 TIP4 O1   OW0      0.000000       15.9990           
   36974 A    9244 TIP4 H1   HW0      0.679100        1.0080           
   36975 A    9244 TIP4 H2   HW0      0.679100        1.0080           
   36976 A    9244 TIP4 BD1  LP0     -1.358200        0.0000           
   36977 A    9245 TIP4 O1   OW0      0.000000       15.9990           
   36978 A    9245 TIP4 H1   HW0      0.679100        1.0080           
   36979 A    9245 TIP4 H2   HW0      0.679100        1.0080           
   36980 A    9245 TIP4 BD1  LP0     -1.358200        0.0000           
   36981 A    9246 TIP4 O1   OW0      0.000000       15.9990           
   36982 A    9246 TIP4 H1   HW0      0.679100        1.0080           
   36983 A    9246 TIP4 H2   HW0      0.679100        1.0080           
   36984 A    9246 TIP4 BD1  LP0     -1.358200        0.0000           
   36985 A    9247 TIP4 O1   OW0      0.000000       15.9990           
   36986 A    9247 TIP4 H1   HW0      0.679100        1.0080           
   36987 A    9247 TIP4 H2   HW0      0.679100        1.0080           
   36988 A    9247 TIP4 BD1  LP0     -1.358200        0.0000           
   36989 A    9248 TIP4 O1   OW0      0.000000       15.9990           
   36990 A    9248 TIP4 H1   HW0      0.679100        1.0080           
   36991 A    9248 TIP4 H2   HW0      0.679100        1.0080           
   36992 A    9248 TIP4 BD1  LP0     -1.358200        0.0000           
   36993 A    9249 TIP4 O1   OW0      0.000000       15.9990           
   36994 A    9249 TIP4 H1   HW0      0.679100        1.0080           
   36995 A    9249 TIP4 H2   HW0      0.679100        1.0080           
   36996 A    9249 TIP4 BD1  LP0     -1.358200        0.0000           
   36997 A    9250 TIP4 O1   OW0      0.000000       15.9990           
   36998 A    9250 TIP4 H1   HW0      0.679100        1.0080           
   36999 A    9250 TIP4 H2   HW0      0.679100        1.0080           
   37000 A    9250 TIP4 BD1  LP0     -1.358200        0.0000           
   37001 A    9251 TIP4 O1   OW0      0.000000       15.9990           
   37002 A    9251 TIP4 H1   HW0      0.679100        1.0080           
   37003 A    9251 TIP4 H2   HW0      0.679100        1.0080           
   37004 A    9251 TIP4 BD1  LP0     -1.358200        0.0000           
   37005 A    9252 TIP4 O1   OW0      0.000000       15.9990           
   37006 A    9252 TIP4 H1   HW0      0.679100        1.0080           
   37007 A    9252 TIP4 H2   HW0      0.679100        1.0080           
   37008 A    9252 TIP4 BD1  LP0     -1.358200        0.0000           
   37009 A    9253 TIP4 O1   OW0      0.000000       15.9990           
   37010 A    9253 TIP4 H1   HW0      0.679100        1.0080           
   37011 A    9253 TIP4 H2   HW0      0.679100        1.0080           
   37012 A    9253 TIP4 BD1  LP0     -1.358200        0.0000           
   37013 A    9254 TIP4 O1   OW0      0.000000       15.9990           
   37014 A    9254 TIP4 H1   HW0      0.679100        1.0080           
   37015 A    9254 TIP4 H2   HW0      0.679100        1.0080           
   37016 A    9254 TIP4 BD1  LP0     -1.358200        0.0000           
   37017 A    9255 TIP4 O1   OW0      0.000000       15.9990           
   37018 A    9255 TIP4 H1   HW0      0.679100        1.0080           
   37019 A    9255 TIP4 H2   HW0      0.679100        1.0080           
   37020 A    9255 TIP4 BD1  LP0     -1.358200        0.0000           
   37021 A    9256 TIP4 O1   OW0      0.000000       15.9990           
   37022 A    9256 TIP4 H1   HW0      0.679100        1.0080           
   37023 A    9256 TIP4 H2   HW0      0.679100        1.0080           
   37024 A    9256 TIP4 BD1  LP0     -1.358200        0.0000           
   37025 A    9257 TIP4 O1   OW0      0.000000       15.9990           
   37026 A    9257 TIP4 H1   HW0      0.679100        1.0080           
   37027 A    9257 TIP4 H2   HW0      0.679100        1.0080           
   37028 A    9257 TIP4 BD1  LP0     -1.358200        0.0000           
   37029 A    9258 TIP4 O1   OW0      0.000000       15.9990           
   37030 A    9258 TIP4 H1   HW0      0.679100        1.0080           
   37031 A    9258 TIP4 H2   HW0      0.679100        1.0080           
   37032 A    9258 TIP4 BD1  LP0     -1.358200        0.0000           
   37033 A    9259 TIP4 O1   OW0      0.000000       15.9990           
   37034 A    9259 TIP4 H1   HW0      0.679100        1.0080           
   37035 A    9259 TIP4 H2   HW0      0.679100        1.0080           
   37036 A    9259 TIP4 BD1  LP0     -1.358200        0.0000           
   37037 A    9260 TIP4 O1   OW0      0.000000       15.9990           
   37038 A    9260 TIP4 H1   HW0      0.679100        1.0080           
   37039 A    9260 TIP4 H2   HW0      0.679100        1.0080           
   37040 A    9260 TIP4 BD1  LP0     -1.358200        0.0000           
   37041 A    9261 TIP4 O1   OW0      0.000000       15.9990           
   37042 A    9261 TIP4 H1   HW0      0.679100        1.0080           
   37043 A    9261 TIP4 H2   HW0      0.679100        1.0080           
   37044 A    9261 TIP4 BD1  LP0     -1.358200        0.0000           
   37045 A    9262 TIP4 O1   OW0      0.000000       15.9990           
   37046 A    9262 TIP4 H1   HW0      0.679100        1.0080           
   37047 A    9262 TIP4 H2   HW0      0.679100        1.0080           
   37048 A    9262 TIP4 BD1  LP0     -1.358200        0.0000           
   37049 A    9263 TIP4 O1   OW0      0.000000       15.9990           
   37050 A    9263 TIP4 H1   HW0      0.679100        1.0080           
   37051 A    9263 TIP4 H2   HW0      0.679100        1.0080           
   37052 A    9263 TIP4 BD1  LP0     -1.358200        0.0000           
   37053 A    9264 TIP4 O1   OW0      0.000000       15.9990           
   37054 A    9264 TIP4 H1   HW0      0.679100        1.0080           
   37055 A    9264 TIP4 H2   HW0      0.679100        1.0080           
   37056 A    9264 TIP4 BD1  LP0     -1.358200        0.0000           
   37057 A    9265 TIP4 O1   OW0      0.000000       15.9990           
   37058 A    9265 TIP4 H1   HW0      0.679100        1.0080           
   37059 A    9265 TIP4 H2   HW0      0.679100        1.0080           
   37060 A    9265 TIP4 BD1  LP0     -1.358200        0.0000           
   37061 A    9266 TIP4 O1   OW0      0.000000       15.9990           
   37062 A    9266 TIP4 H1   HW0      0.679100        1.0080           
   37063 A    9266 TIP4 H2   HW0      0.679100        1.0080           
   37064 A    9266 TIP4 BD1  LP0     -1.358200        0.0000           
   37065 A    9267 TIP4 O1   OW0      0.000000       15.9990           
   37066 A    9267 TIP4 H1   HW0      0.679100        1.0080           
   37067 A    9267 TIP4 H2   HW0      0.679100        1.0080           
   37068 A    9267 TIP4 BD1  LP0     -1.358200        0.0000           
   37069 A    9268 TIP4 O1   OW0      0.000000       15.9990           
   37070 A    9268 TIP4 H1   HW0      0.679100        1.0080           
   37071 A    9268 TIP4 H2   HW0      0.679100        1.0080           
   37072 A    9268 TIP4 BD1  LP0     -1.358200        0.0000           
   37073 A    9269 TIP4 O1   OW0      0.000000       15.9990           
   37074 A    9269 TIP4 H1   HW0      0.679100        1.0080           
   37075 A    9269 TIP4 H2   HW0      0.679100        1.0080           
   37076 A    9269 TIP4 BD1  LP0     -1.358200        0.0000           
   37077 A    9270 TIP4 O1   OW0      0.000000       15.9990           
   37078 A    9270 TIP4 H1   HW0      0.679100        1.0080           
   37079 A    9270 TIP4 H2   HW0      0.679100        1.0080           
   37080 A    9270 TIP4 BD1  LP0     -1.358200        0.0000           
   37081 A    9271 TIP4 O1   OW0      0.000000       15.9990           
   37082 A    9271 TIP4 H1   HW0      0.679100        1.0080           
   37083 A    9271 TIP4 H2   HW0      0.679100        1.0080           
   37084 A    9271 TIP4 BD1  LP0     -1.358200        0.0000           
   37085 A    9272 TIP4 O1   OW0      0.000000       15.9990           
   37086 A    9272 TIP4 H1   HW0      0.679100        1.0080           
   37087 A    9272 TIP4 H2   HW0      0.679100        1.0080           
   37088 A    9272 TIP4 BD1  LP0     -1.358200        0.0000           
   37089 A    9273 TIP4 O1   OW0      0.000000       15.9990           
   37090 A    9273 TIP4 H1   HW0      0.679100        1.0080           
   37091 A    9273 TIP4 H2   HW0      0.679100        1.0080           
   37092 A    9273 TIP4 BD1  LP0     -1.358200        0.0000           
   37093 A    9274 TIP4 O1   OW0      0.000000       15.9990           
   37094 A    9274 TIP4 H1   HW0      0.679100        1.0080           
   37095 A    9274 TIP4 H2   HW0      0.679100        1.0080           
   37096 A    9274 TIP4 BD1  LP0     -1.358200        0.0000           
   37097 A    9275 TIP4 O1   OW0      0.000000       15.9990           
   37098 A    9275 TIP4 H1   HW0      0.679100        1.0080           
   37099 A    9275 TIP4 H2   HW0      0.679100        1.0080           
   37100 A    9275 TIP4 BD1  LP0     -1.358200        0.0000           
   37101 A    9276 TIP4 O1   OW0      0.000000       15.9990           
   37102 A    9276 TIP4 H1   HW0      0.679100        1.0080           
   37103 A    9276 TIP4 H2   HW0      0.679100        1.0080           
   37104 A    9276 TIP4 BD1  LP0     -1.358200        0.0000           
   37105 A    9277 TIP4 O1   OW0      0.000000       15.9990           
   37106 A    9277 TIP4 H1   HW0      0.679100        1.0080           
   37107 A    9277 TIP4 H2   HW0      0.679100        1.0080           
   37108 A    9277 TIP4 BD1  LP0     -1.358200        0.0000           
   37109 A    9278 TIP4 O1   OW0      0.000000       15.9990           
   37110 A    9278 TIP4 H1   HW0      0.679100        1.0080           
   37111 A    9278 TIP4 H2   HW0      0.679100        1.0080           
   37112 A    9278 TIP4 BD1  LP0     -1.358200        0.0000           
   37113 A    9279 TIP4 O1   OW0      0.000000       15.9990           
   37114 A    9279 TIP4 H1   HW0      0.679100        1.0080           
   37115 A    9279 TIP4 H2   HW0      0.679100        1.0080           
   37116 A    9279 TIP4 BD1  LP0     -1.358200        0.0000           
   37117 A    9280 TIP4 O1   OW0      0.000000       15.9990           
   37118 A    9280 TIP4 H1   HW0      0.679100        1.0080           
   37119 A    9280 TIP4 H2   HW0      0.679100        1.0080           
   37120 A    9280 TIP4 BD1  LP0     -1.358200        0.0000           
   37121 A    9281 TIP4 O1   OW0      0.000000       15.9990           
   37122 A    9281 TIP4 H1   HW0      0.679100        1.0080           
   37123 A    9281 TIP4 H2   HW0      0.679100        1.0080           
   37124 A    9281 TIP4 BD1  LP0     -1.358200        0.0000           
   37125 A    9282 TIP4 O1   OW0      0.000000       15.9990           
   37126 A    9282 TIP4 H1   HW0      0.679100        1.0080           
   37127 A    9282 TIP4 H2   HW0      0.679100        1.0080           
   37128 A    9282 TIP4 BD1  LP0     -1.358200        0.0000           
   37129 A    9283 TIP4 O1   OW0      0.000000       15.9990           
   37130 A    9283 TIP4 H1   HW0      0.679100        1.0080           
   37131 A    9283 TIP4 H2   HW0      0.679100        1.0080           
   37132 A    9283 TIP4 BD1  LP0     -1.358200        0.0000           
   37133 A    9284 TIP4 O1   OW0      0.000000       15.9990           
   37134 A    9284 TIP4 H1   HW0      0.679100        1.0080           
   37135 A    9284 TIP4 H2   HW0      0.679100        1.0080           
   37136 A    9284 TIP4 BD1  LP0     -1.358200        0.0000           
   37137 A    9285 TIP4 O1   OW0      0.000000       15.9990           
   37138 A    9285 TIP4 H1   HW0      0.679100        1.0080           
   37139 A    9285 TIP4 H2   HW0      0.679100        1.0080           
   37140 A    9285 TIP4 BD1  LP0     -1.358200        0.0000           
   37141 A    9286 TIP4 O1   OW0      0.000000       15.9990           
   37142 A    9286 TIP4 H1   HW0      0.679100        1.0080           
   37143 A    9286 TIP4 H2   HW0      0.679100        1.0080           
   37144 A    9286 TIP4 BD1  LP0     -1.358200        0.0000           
   37145 A    9287 TIP4 O1   OW0      0.000000       15.9990           
   37146 A    9287 TIP4 H1   HW0      0.679100        1.0080           
   37147 A    9287 TIP4 H2   HW0      0.679100        1.0080           
   37148 A    9287 TIP4 BD1  LP0     -1.358200        0.0000           
   37149 A    9288 TIP4 O1   OW0      0.000000       15.9990           
   37150 A    9288 TIP4 H1   HW0      0.679100        1.0080           
   37151 A    9288 TIP4 H2   HW0      0.679100        1.0080           
   37152 A    9288 TIP4 BD1  LP0     -1.358200        0.0000           
   37153 A    9289 TIP4 O1   OW0      0.000000       15.9990           
   37154 A    9289 TIP4 H1   HW0      0.679100        1.0080           
   37155 A    9289 TIP4 H2   HW0      0.679100        1.0080           
   37156 A    9289 TIP4 BD1  LP0     -1.358200        0.0000           
   37157 A    9290 TIP4 O1   OW0      0.000000       15.9990           
   37158 A    9290 TIP4 H1   HW0      0.679100        1.0080           
   37159 A    9290 TIP4 H2   HW0      0.679100        1.0080           
   37160 A    9290 TIP4 BD1  LP0     -1.358200        0.0000           
   37161 A    9291 TIP4 O1   OW0      0.000000       15.9990           
   37162 A    9291 TIP4 H1   HW0      0.679100        1.0080           
   37163 A    9291 TIP4 H2   HW0      0.679100        1.0080           
   37164 A    9291 TIP4 BD1  LP0     -1.358200        0.0000           
   37165 A    9292 TIP4 O1   OW0      0.000000       15.9990           
   37166 A    9292 TIP4 H1   HW0      0.679100        1.0080           
   37167 A    9292 TIP4 H2   HW0      0.679100        1.0080           
   37168 A    9292 TIP4 BD1  LP0     -1.358200        0.0000           
   37169 A    9293 TIP4 O1   OW0      0.000000       15.9990           
   37170 A    9293 TIP4 H1   HW0      0.679100        1.0080           
   37171 A    9293 TIP4 H2   HW0      0.679100        1.0080           
   37172 A    9293 TIP4 BD1  LP0     -1.358200        0.0000           
   37173 A    9294 TIP4 O1   OW0      0.000000       15.9990           
   37174 A    9294 TIP4 H1   HW0      0.679100        1.0080           
   37175 A    9294 TIP4 H2   HW0      0.679100        1.0080           
   37176 A    9294 TIP4 BD1  LP0     -1.358200        0.0000           
   37177 A    9295 TIP4 O1   OW0      0.000000       15.9990           
   37178 A    9295 TIP4 H1   HW0      0.679100        1.0080           
   37179 A    9295 TIP4 H2   HW0      0.679100        1.0080           
   37180 A    9295 TIP4 BD1  LP0     -1.358200        0.0000           
   37181 A    9296 TIP4 O1   OW0      0.000000       15.9990           
   37182 A    9296 TIP4 H1   HW0      0.679100        1.0080           
   37183 A    9296 TIP4 H2   HW0      0.679100        1.0080           
   37184 A    9296 TIP4 BD1  LP0     -1.358200        0.0000           
   37185 A    9297 TIP4 O1   OW0      0.000000       15.9990           
   37186 A    9297 TIP4 H1   HW0      0.679100        1.0080           
   37187 A    9297 TIP4 H2   HW0      0.679100        1.0080           
   37188 A    9297 TIP4 BD1  LP0     -1.358200        0.0000           
   37189 A    9298 TIP4 O1   OW0      0.000000       15.9990           
   37190 A    9298 TIP4 H1   HW0      0.679100        1.0080           
   37191 A    9298 TIP4 H2   HW0      0.679100        1.0080           
   37192 A    9298 TIP4 BD1  LP0     -1.358200        0.0000           
   37193 A    9299 TIP4 O1   OW0      0.000000       15.9990           
   37194 A    9299 TIP4 H1   HW0      0.679100        1.0080           
   37195 A    9299 TIP4 H2   HW0      0.679100        1.0080           
   37196 A    9299 TIP4 BD1  LP0     -1.358200        0.0000           
   37197 A    9300 TIP4 O1   OW0      0.000000       15.9990           
   37198 A    9300 TIP4 H1   HW0      0.679100        1.0080           
   37199 A    9300 TIP4 H2   HW0      0.679100        1.0080           
   37200 A    9300 TIP4 BD1  LP0     -1.358200        0.0000           
   37201 A    9301 TIP4 O1   OW0      0.000000       15.9990           
   37202 A    9301 TIP4 H1   HW0      0.679100        1.0080           
   37203 A    9301 TIP4 H2   HW0      0.679100        1.0080           
   37204 A    9301 TIP4 BD1  LP0     -1.358200        0.0000           
   37205 A    9302 TIP4 O1   OW0      0.000000       15.9990           
   37206 A    9302 TIP4 H1   HW0      0.679100        1.0080           
   37207 A    9302 TIP4 H2   HW0      0.679100        1.0080           
   37208 A    9302 TIP4 BD1  LP0     -1.358200        0.0000           
   37209 A    9303 TIP4 O1   OW0      0.000000       15.9990           
   37210 A    9303 TIP4 H1   HW0      0.679100        1.0080           
   37211 A    9303 TIP4 H2   HW0      0.679100        1.0080           
   37212 A    9303 TIP4 BD1  LP0     -1.358200        0.0000           
   37213 A    9304 TIP4 O1   OW0      0.000000       15.9990           
   37214 A    9304 TIP4 H1   HW0      0.679100        1.0080           
   37215 A    9304 TIP4 H2   HW0      0.679100        1.0080           
   37216 A    9304 TIP4 BD1  LP0     -1.358200        0.0000           
   37217 A    9305 TIP4 O1   OW0      0.000000       15.9990           
   37218 A    9305 TIP4 H1   HW0      0.679100        1.0080           
   37219 A    9305 TIP4 H2   HW0      0.679100        1.0080           
   37220 A    9305 TIP4 BD1  LP0     -1.358200        0.0000           
   37221 A    9306 TIP4 O1   OW0      0.000000       15.9990           
   37222 A    9306 TIP4 H1   HW0      0.679100        1.0080           
   37223 A    9306 TIP4 H2   HW0      0.679100        1.0080           
   37224 A    9306 TIP4 BD1  LP0     -1.358200        0.0000           
   37225 A    9307 TIP4 O1   OW0      0.000000       15.9990           
   37226 A    9307 TIP4 H1   HW0      0.679100        1.0080           
   37227 A    9307 TIP4 H2   HW0      0.679100        1.0080           
   37228 A    9307 TIP4 BD1  LP0     -1.358200        0.0000           
   37229 A    9308 TIP4 O1   OW0      0.000000       15.9990           
   37230 A    9308 TIP4 H1   HW0      0.679100        1.0080           
   37231 A    9308 TIP4 H2   HW0      0.679100        1.0080           
   37232 A    9308 TIP4 BD1  LP0     -1.358200        0.0000           
   37233 A    9309 TIP4 O1   OW0      0.000000       15.9990           
   37234 A    9309 TIP4 H1   HW0      0.679100        1.0080           
   37235 A    9309 TIP4 H2   HW0      0.679100        1.0080           
   37236 A    9309 TIP4 BD1  LP0     -1.358200        0.0000           
   37237 A    9310 TIP4 O1   OW0      0.000000       15.9990           
   37238 A    9310 TIP4 H1   HW0      0.679100        1.0080           
   37239 A    9310 TIP4 H2   HW0      0.679100        1.0080           
   37240 A    9310 TIP4 BD1  LP0     -1.358200        0.0000           
   37241 A    9311 TIP4 O1   OW0      0.000000       15.9990           
   37242 A    9311 TIP4 H1   HW0      0.679100        1.0080           
   37243 A    9311 TIP4 H2   HW0      0.679100        1.0080           
   37244 A    9311 TIP4 BD1  LP0     -1.358200        0.0000           
   37245 A    9312 TIP4 O1   OW0      0.000000       15.9990           
   37246 A    9312 TIP4 H1   HW0      0.679100        1.0080           
   37247 A    9312 TIP4 H2   HW0      0.679100        1.0080           
   37248 A    9312 TIP4 BD1  LP0     -1.358200        0.0000           
   37249 A    9313 TIP4 O1   OW0      0.000000       15.9990           
   37250 A    9313 TIP4 H1   HW0      0.679100        1.0080           
   37251 A    9313 TIP4 H2   HW0      0.679100        1.0080           
   37252 A    9313 TIP4 BD1  LP0     -1.358200        0.0000           
   37253 A    9314 TIP4 O1   OW0      0.000000       15.9990           
   37254 A    9314 TIP4 H1   HW0      0.679100        1.0080           
   37255 A    9314 TIP4 H2   HW0      0.679100        1.0080           
   37256 A    9314 TIP4 BD1  LP0     -1.358200        0.0000           
   37257 A    9315 TIP4 O1   OW0      0.000000       15.9990           
   37258 A    9315 TIP4 H1   HW0      0.679100        1.0080           
   37259 A    9315 TIP4 H2   HW0      0.679100        1.0080           
   37260 A    9315 TIP4 BD1  LP0     -1.358200        0.0000           
   37261 A    9316 TIP4 O1   OW0      0.000000       15.9990           
   37262 A    9316 TIP4 H1   HW0      0.679100        1.0080           
   37263 A    9316 TIP4 H2   HW0      0.679100        1.0080           
   37264 A    9316 TIP4 BD1  LP0     -1.358200        0.0000           
   37265 A    9317 TIP4 O1   OW0      0.000000       15.9990           
   37266 A    9317 TIP4 H1   HW0      0.679100        1.0080           
   37267 A    9317 TIP4 H2   HW0      0.679100        1.0080           
   37268 A    9317 TIP4 BD1  LP0     -1.358200        0.0000           
   37269 A    9318 TIP4 O1   OW0      0.000000       15.9990           
   37270 A    9318 TIP4 H1   HW0      0.679100        1.0080           
   37271 A    9318 TIP4 H2   HW0      0.679100        1.0080           
   37272 A    9318 TIP4 BD1  LP0     -1.358200        0.0000           
   37273 A    9319 TIP4 O1   OW0      0.000000       15.9990           
   37274 A    9319 TIP4 H1   HW0      0.679100        1.0080           
   37275 A    9319 TIP4 H2   HW0      0.679100        1.0080           
   37276 A    9319 TIP4 BD1  LP0     -1.358200        0.0000           
   37277 A    9320 TIP4 O1   OW0      0.000000       15.9990           
   37278 A    9320 TIP4 H1   HW0      0.679100        1.0080           
   37279 A    9320 TIP4 H2   HW0      0.679100        1.0080           
   37280 A    9320 TIP4 BD1  LP0     -1.358200        0.0000           
   37281 A    9321 TIP4 O1   OW0      0.000000       15.9990           
   37282 A    9321 TIP4 H1   HW0      0.679100        1.0080           
   37283 A    9321 TIP4 H2   HW0      0.679100        1.0080           
   37284 A    9321 TIP4 BD1  LP0     -1.358200        0.0000           
   37285 A    9322 TIP4 O1   OW0      0.000000       15.9990           
   37286 A    9322 TIP4 H1   HW0      0.679100        1.0080           
   37287 A    9322 TIP4 H2   HW0      0.679100        1.0080           
   37288 A    9322 TIP4 BD1  LP0     -1.358200        0.0000           
   37289 A    9323 TIP4 O1   OW0      0.000000       15.9990           
   37290 A    9323 TIP4 H1   HW0      0.679100        1.0080           
   37291 A    9323 TIP4 H2   HW0      0.679100        1.0080           
   37292 A    9323 TIP4 BD1  LP0     -1.358200        0.0000           
   37293 A    9324 TIP4 O1   OW0      0.000000       15.9990           
   37294 A    9324 TIP4 H1   HW0      0.679100        1.0080           
   37295 A    9324 TIP4 H2   HW0      0.679100        1.0080           
   37296 A    9324 TIP4 BD1  LP0     -1.358200        0.0000           
   37297 A    9325 TIP4 O1   OW0      0.000000       15.9990           
   37298 A    9325 TIP4 H1   HW0      0.679100        1.0080           
   37299 A    9325 TIP4 H2   HW0      0.679100        1.0080           
   37300 A    9325 TIP4 BD1  LP0     -1.358200        0.0000           
   37301 A    9326 TIP4 O1   OW0      0.000000       15.9990           
   37302 A    9326 TIP4 H1   HW0      0.679100        1.0080           
   37303 A    9326 TIP4 H2   HW0      0.679100        1.0080           
   37304 A    9326 TIP4 BD1  LP0     -1.358200        0.0000           
   37305 A    9327 TIP4 O1   OW0      0.000000       15.9990           
   37306 A    9327 TIP4 H1   HW0      0.679100        1.0080           
   37307 A    9327 TIP4 H2   HW0      0.679100        1.0080           
   37308 A    9327 TIP4 BD1  LP0     -1.358200        0.0000           
   37309 A    9328 TIP4 O1   OW0      0.000000       15.9990           
   37310 A    9328 TIP4 H1   HW0      0.679100        1.0080           
   37311 A    9328 TIP4 H2   HW0      0.679100        1.0080           
   37312 A    9328 TIP4 BD1  LP0     -1.358200        0.0000           
   37313 A    9329 TIP4 O1   OW0      0.000000       15.9990           
   37314 A    9329 TIP4 H1   HW0      0.679100        1.0080           
   37315 A    9329 TIP4 H2   HW0      0.679100        1.0080           
   37316 A    9329 TIP4 BD1  LP0     -1.358200        0.0000           
   37317 A    9330 TIP4 O1   OW0      0.000000       15.9990           
   37318 A    9330 TIP4 H1   HW0      0.679100        1.0080           
   37319 A    9330 TIP4 H2   HW0      0.679100        1.0080           
   37320 A    9330 TIP4 BD1  LP0     -1.358200        0.0000           
   37321 A    9331 TIP4 O1   OW0      0.000000       15.9990           
   37322 A    9331 TIP4 H1   HW0      0.679100        1.0080           
   37323 A    9331 TIP4 H2   HW0      0.679100        1.0080           
   37324 A    9331 TIP4 BD1  LP0     -1.358200        0.0000           
   37325 A    9332 TIP4 O1   OW0      0.000000       15.9990           
   37326 A    9332 TIP4 H1   HW0      0.679100        1.0080           
   37327 A    9332 TIP4 H2   HW0      0.679100        1.0080           
   37328 A    9332 TIP4 BD1  LP0     -1.358200        0.0000           
   37329 A    9333 TIP4 O1   OW0      0.000000       15.9990           
   37330 A    9333 TIP4 H1   HW0      0.679100        1.0080           
   37331 A    9333 TIP4 H2   HW0      0.679100        1.0080           
   37332 A    9333 TIP4 BD1  LP0     -1.358200        0.0000           
   37333 A    9334 TIP4 O1   OW0      0.000000       15.9990           
   37334 A    9334 TIP4 H1   HW0      0.679100        1.0080           
   37335 A    9334 TIP4 H2   HW0      0.679100        1.0080           
   37336 A    9334 TIP4 BD1  LP0     -1.358200        0.0000           
   37337 A    9335 TIP4 O1   OW0      0.000000       15.9990           
   37338 A    9335 TIP4 H1   HW0      0.679100        1.0080           
   37339 A    9335 TIP4 H2   HW0      0.679100        1.0080           
   37340 A    9335 TIP4 BD1  LP0     -1.358200        0.0000           
   37341 A    9336 TIP4 O1   OW0      0.000000       15.9990           
   37342 A    9336 TIP4 H1   HW0      0.679100        1.0080           
   37343 A    9336 TIP4 H2   HW0      0.679100        1.0080           
   37344 A    9336 TIP4 BD1  LP0     -1.358200        0.0000           
   37345 A    9337 TIP4 O1   OW0      0.000000       15.9990           
   37346 A    9337 TIP4 H1   HW0      0.679100        1.0080           
   37347 A    9337 TIP4 H2   HW0      0.679100        1.0080           
   37348 A    9337 TIP4 BD1  LP0     -1.358200        0.0000           
   37349 A    9338 TIP4 O1   OW0      0.000000       15.9990           
   37350 A    9338 TIP4 H1   HW0      0.679100        1.0080           
   37351 A    9338 TIP4 H2   HW0      0.679100        1.0080           
   37352 A    9338 TIP4 BD1  LP0     -1.358200        0.0000           
   37353 A    9339 TIP4 O1   OW0      0.000000       15.9990           
   37354 A    9339 TIP4 H1   HW0      0.679100        1.0080           
   37355 A    9339 TIP4 H2   HW0      0.679100        1.0080           
   37356 A    9339 TIP4 BD1  LP0     -1.358200        0.0000           
   37357 A    9340 TIP4 O1   OW0      0.000000       15.9990           
   37358 A    9340 TIP4 H1   HW0      0.679100        1.0080           
   37359 A    9340 TIP4 H2   HW0      0.679100        1.0080           
   37360 A    9340 TIP4 BD1  LP0     -1.358200        0.0000           
   37361 A    9341 TIP4 O1   OW0      0.000000       15.9990           
   37362 A    9341 TIP4 H1   HW0      0.679100        1.0080           
   37363 A    9341 TIP4 H2   HW0      0.679100        1.0080           
   37364 A    9341 TIP4 BD1  LP0     -1.358200        0.0000           
   37365 A    9342 TIP4 O1   OW0      0.000000       15.9990           
   37366 A    9342 TIP4 H1   HW0      0.679100        1.0080           
   37367 A    9342 TIP4 H2   HW0      0.679100        1.0080           
   37368 A    9342 TIP4 BD1  LP0     -1.358200        0.0000           
   37369 A    9343 TIP4 O1   OW0      0.000000       15.9990           
   37370 A    9343 TIP4 H1   HW0      0.679100        1.0080           
   37371 A    9343 TIP4 H2   HW0      0.679100        1.0080           
   37372 A    9343 TIP4 BD1  LP0     -1.358200        0.0000           
   37373 A    9344 TIP4 O1   OW0      0.000000       15.9990           
   37374 A    9344 TIP4 H1   HW0      0.679100        1.0080           
   37375 A    9344 TIP4 H2   HW0      0.679100        1.0080           
   37376 A    9344 TIP4 BD1  LP0     -1.358200        0.0000           
   37377 A    9345 TIP4 O1   OW0      0.000000       15.9990           
   37378 A    9345 TIP4 H1   HW0      0.679100        1.0080           
   37379 A    9345 TIP4 H2   HW0      0.679100        1.0080           
   37380 A    9345 TIP4 BD1  LP0     -1.358200        0.0000           
   37381 A    9346 TIP4 O1   OW0      0.000000       15.9990           
   37382 A    9346 TIP4 H1   HW0      0.679100        1.0080           
   37383 A    9346 TIP4 H2   HW0      0.679100        1.0080           
   37384 A    9346 TIP4 BD1  LP0     -1.358200        0.0000           
   37385 A    9347 TIP4 O1   OW0      0.000000       15.9990           
   37386 A    9347 TIP4 H1   HW0      0.679100        1.0080           
   37387 A    9347 TIP4 H2   HW0      0.679100        1.0080           
   37388 A    9347 TIP4 BD1  LP0     -1.358200        0.0000           
   37389 A    9348 TIP4 O1   OW0      0.000000       15.9990           
   37390 A    9348 TIP4 H1   HW0      0.679100        1.0080           
   37391 A    9348 TIP4 H2   HW0      0.679100        1.0080           
   37392 A    9348 TIP4 BD1  LP0     -1.358200        0.0000           
   37393 A    9349 TIP4 O1   OW0      0.000000       15.9990           
   37394 A    9349 TIP4 H1   HW0      0.679100        1.0080           
   37395 A    9349 TIP4 H2   HW0      0.679100        1.0080           
   37396 A    9349 TIP4 BD1  LP0     -1.358200        0.0000           
   37397 A    9350 TIP4 O1   OW0      0.000000       15.9990           
   37398 A    9350 TIP4 H1   HW0      0.679100        1.0080           
   37399 A    9350 TIP4 H2   HW0      0.679100        1.0080           
   37400 A    9350 TIP4 BD1  LP0     -1.358200        0.0000           
   37401 A    9351 TIP4 O1   OW0      0.000000       15.9990           
   37402 A    9351 TIP4 H1   HW0      0.679100        1.0080           
   37403 A    9351 TIP4 H2   HW0      0.679100        1.0080           
   37404 A    9351 TIP4 BD1  LP0     -1.358200        0.0000           
   37405 A    9352 TIP4 O1   OW0      0.000000       15.9990           
   37406 A    9352 TIP4 H1   HW0      0.679100        1.0080           
   37407 A    9352 TIP4 H2   HW0      0.679100        1.0080           
   37408 A    9352 TIP4 BD1  LP0     -1.358200        0.0000           
   37409 A    9353 TIP4 O1   OW0      0.000000       15.9990           
   37410 A    9353 TIP4 H1   HW0      0.679100        1.0080           
   37411 A    9353 TIP4 H2   HW0      0.679100        1.0080           
   37412 A    9353 TIP4 BD1  LP0     -1.358200        0.0000           
   37413 A    9354 TIP4 O1   OW0      0.000000       15.9990           
   37414 A    9354 TIP4 H1   HW0      0.679100        1.0080           
   37415 A    9354 TIP4 H2   HW0      0.679100        1.0080           
   37416 A    9354 TIP4 BD1  LP0     -1.358200        0.0000           
   37417 A    9355 TIP4 O1   OW0      0.000000       15.9990           
   37418 A    9355 TIP4 H1   HW0      0.679100        1.0080           
   37419 A    9355 TIP4 H2   HW0      0.679100        1.0080           
   37420 A    9355 TIP4 BD1  LP0     -1.358200        0.0000           
   37421 A    9356 TIP4 O1   OW0      0.000000       15.9990           
   37422 A    9356 TIP4 H1   HW0      0.679100        1.0080           
   37423 A    9356 TIP4 H2   HW0      0.679100        1.0080           
   37424 A    9356 TIP4 BD1  LP0     -1.358200        0.0000           
   37425 A    9357 TIP4 O1   OW0      0.000000       15.9990           
   37426 A    9357 TIP4 H1   HW0      0.679100        1.0080           
   37427 A    9357 TIP4 H2   HW0      0.679100        1.0080           
   37428 A    9357 TIP4 BD1  LP0     -1.358200        0.0000           
   37429 A    9358 TIP4 O1   OW0      0.000000       15.9990           
   37430 A    9358 TIP4 H1   HW0      0.679100        1.0080           
   37431 A    9358 TIP4 H2   HW0      0.679100        1.0080           
   37432 A    9358 TIP4 BD1  LP0     -1.358200        0.0000           
   37433 A    9359 TIP4 O1   OW0      0.000000       15.9990           
   37434 A    9359 TIP4 H1   HW0      0.679100        1.0080           
   37435 A    9359 TIP4 H2   HW0      0.679100        1.0080           
   37436 A    9359 TIP4 BD1  LP0     -1.358200        0.0000           
   37437 A    9360 TIP4 O1   OW0      0.000000       15.9990           
   37438 A    9360 TIP4 H1   HW0      0.679100        1.0080           
   37439 A    9360 TIP4 H2   HW0      0.679100        1.0080           
   37440 A    9360 TIP4 BD1  LP0     -1.358200        0.0000           
   37441 A    9361 TIP4 O1   OW0      0.000000       15.9990           
   37442 A    9361 TIP4 H1   HW0      0.679100        1.0080           
   37443 A    9361 TIP4 H2   HW0      0.679100        1.0080           
   37444 A    9361 TIP4 BD1  LP0     -1.358200        0.0000           
   37445 A    9362 TIP4 O1   OW0      0.000000       15.9990           
   37446 A    9362 TIP4 H1   HW0      0.679100        1.0080           
   37447 A    9362 TIP4 H2   HW0      0.679100        1.0080           
   37448 A    9362 TIP4 BD1  LP0     -1.358200        0.0000           
   37449 A    9363 TIP4 O1   OW0      0.000000       15.9990           
   37450 A    9363 TIP4 H1   HW0      0.679100        1.0080           
   37451 A    9363 TIP4 H2   HW0      0.679100        1.0080           
   37452 A    9363 TIP4 BD1  LP0     -1.358200        0.0000           
   37453 A    9364 TIP4 O1   OW0      0.000000       15.9990           
   37454 A    9364 TIP4 H1   HW0      0.679100        1.0080           
   37455 A    9364 TIP4 H2   HW0      0.679100        1.0080           
   37456 A    9364 TIP4 BD1  LP0     -1.358200        0.0000           
   37457 A    9365 TIP4 O1   OW0      0.000000       15.9990           
   37458 A    9365 TIP4 H1   HW0      0.679100        1.0080           
   37459 A    9365 TIP4 H2   HW0      0.679100        1.0080           
   37460 A    9365 TIP4 BD1  LP0     -1.358200        0.0000           
   37461 A    9366 TIP4 O1   OW0      0.000000       15.9990           
   37462 A    9366 TIP4 H1   HW0      0.679100        1.0080           
   37463 A    9366 TIP4 H2   HW0      0.679100        1.0080           
   37464 A    9366 TIP4 BD1  LP0     -1.358200        0.0000           
   37465 A    9367 TIP4 O1   OW0      0.000000       15.9990           
   37466 A    9367 TIP4 H1   HW0      0.679100        1.0080           
   37467 A    9367 TIP4 H2   HW0      0.679100        1.0080           
   37468 A    9367 TIP4 BD1  LP0     -1.358200        0.0000           
   37469 A    9368 TIP4 O1   OW0      0.000000       15.9990           
   37470 A    9368 TIP4 H1   HW0      0.679100        1.0080           
   37471 A    9368 TIP4 H2   HW0      0.679100        1.0080           
   37472 A    9368 TIP4 BD1  LP0     -1.358200        0.0000           
   37473 A    9369 TIP4 O1   OW0      0.000000       15.9990           
   37474 A    9369 TIP4 H1   HW0      0.679100        1.0080           
   37475 A    9369 TIP4 H2   HW0      0.679100        1.0080           
   37476 A    9369 TIP4 BD1  LP0     -1.358200        0.0000           
   37477 A    9370 TIP4 O1   OW0      0.000000       15.9990           
   37478 A    9370 TIP4 H1   HW0      0.679100        1.0080           
   37479 A    9370 TIP4 H2   HW0      0.679100        1.0080           
   37480 A    9370 TIP4 BD1  LP0     -1.358200        0.0000           
   37481 A    9371 TIP4 O1   OW0      0.000000       15.9990           
   37482 A    9371 TIP4 H1   HW0      0.679100        1.0080           
   37483 A    9371 TIP4 H2   HW0      0.679100        1.0080           
   37484 A    9371 TIP4 BD1  LP0     -1.358200        0.0000           
   37485 A    9372 TIP4 O1   OW0      0.000000       15.9990           
   37486 A    9372 TIP4 H1   HW0      0.679100        1.0080           
   37487 A    9372 TIP4 H2   HW0      0.679100        1.0080           
   37488 A    9372 TIP4 BD1  LP0     -1.358200        0.0000           
   37489 A    9373 TIP4 O1   OW0      0.000000       15.9990           
   37490 A    9373 TIP4 H1   HW0      0.679100        1.0080           
   37491 A    9373 TIP4 H2   HW0      0.679100        1.0080           
   37492 A    9373 TIP4 BD1  LP0     -1.358200        0.0000           
   37493 A    9374 TIP4 O1   OW0      0.000000       15.9990           
   37494 A    9374 TIP4 H1   HW0      0.679100        1.0080           
   37495 A    9374 TIP4 H2   HW0      0.679100        1.0080           
   37496 A    9374 TIP4 BD1  LP0     -1.358200        0.0000           
   37497 A    9375 TIP4 O1   OW0      0.000000       15.9990           
   37498 A    9375 TIP4 H1   HW0      0.679100        1.0080           
   37499 A    9375 TIP4 H2   HW0      0.679100        1.0080           
   37500 A    9375 TIP4 BD1  LP0     -1.358200        0.0000           
   37501 A    9376 TIP4 O1   OW0      0.000000       15.9990           
   37502 A    9376 TIP4 H1   HW0      0.679100        1.0080           
   37503 A    9376 TIP4 H2   HW0      0.679100        1.0080           
   37504 A    9376 TIP4 BD1  LP0     -1.358200        0.0000           
   37505 A    9377 TIP4 O1   OW0      0.000000       15.9990           
   37506 A    9377 TIP4 H1   HW0      0.679100        1.0080           
   37507 A    9377 TIP4 H2   HW0      0.679100        1.0080           
   37508 A    9377 TIP4 BD1  LP0     -1.358200        0.0000           
   37509 A    9378 TIP4 O1   OW0      0.000000       15.9990           
   37510 A    9378 TIP4 H1   HW0      0.679100        1.0080           
   37511 A    9378 TIP4 H2   HW0      0.679100        1.0080           
   37512 A    9378 TIP4 BD1  LP0     -1.358200        0.0000           
   37513 A    9379 TIP4 O1   OW0      0.000000       15.9990           
   37514 A    9379 TIP4 H1   HW0      0.679100        1.0080           
   37515 A    9379 TIP4 H2   HW0      0.679100        1.0080           
   37516 A    9379 TIP4 BD1  LP0     -1.358200        0.0000           
   37517 A    9380 TIP4 O1   OW0      0.000000       15.9990           
   37518 A    9380 TIP4 H1   HW0      0.679100        1.0080           
   37519 A    9380 TIP4 H2   HW0      0.679100        1.0080           
   37520 A    9380 TIP4 BD1  LP0     -1.358200        0.0000           
   37521 A    9381 TIP4 O1   OW0      0.000000       15.9990           
   37522 A    9381 TIP4 H1   HW0      0.679100        1.0080           
   37523 A    9381 TIP4 H2   HW0      0.679100        1.0080           
   37524 A    9381 TIP4 BD1  LP0     -1.358200        0.0000           
   37525 A    9382 TIP4 O1   OW0      0.000000       15.9990           
   37526 A    9382 TIP4 H1   HW0      0.679100        1.0080           
   37527 A    9382 TIP4 H2   HW0      0.679100        1.0080           
   37528 A    9382 TIP4 BD1  LP0     -1.358200        0.0000           
   37529 A    9383 TIP4 O1   OW0      0.000000       15.9990           
   37530 A    9383 TIP4 H1   HW0      0.679100        1.0080           
   37531 A    9383 TIP4 H2   HW0      0.679100        1.0080           
   37532 A    9383 TIP4 BD1  LP0     -1.358200        0.0000           
   37533 A    9384 TIP4 O1   OW0      0.000000       15.9990           
   37534 A    9384 TIP4 H1   HW0      0.679100        1.0080           
   37535 A    9384 TIP4 H2   HW0      0.679100        1.0080           
   37536 A    9384 TIP4 BD1  LP0     -1.358200        0.0000           
   37537 A    9385 TIP4 O1   OW0      0.000000       15.9990           
   37538 A    9385 TIP4 H1   HW0      0.679100        1.0080           
   37539 A    9385 TIP4 H2   HW0      0.679100        1.0080           
   37540 A    9385 TIP4 BD1  LP0     -1.358200        0.0000           
   37541 A    9386 TIP4 O1   OW0      0.000000       15.9990           
   37542 A    9386 TIP4 H1   HW0      0.679100        1.0080           
   37543 A    9386 TIP4 H2   HW0      0.679100        1.0080           
   37544 A    9386 TIP4 BD1  LP0     -1.358200        0.0000           
   37545 A    9387 TIP4 O1   OW0      0.000000       15.9990           
   37546 A    9387 TIP4 H1   HW0      0.679100        1.0080           
   37547 A    9387 TIP4 H2   HW0      0.679100        1.0080           
   37548 A    9387 TIP4 BD1  LP0     -1.358200        0.0000           
   37549 A    9388 TIP4 O1   OW0      0.000000       15.9990           
   37550 A    9388 TIP4 H1   HW0      0.679100        1.0080           
   37551 A    9388 TIP4 H2   HW0      0.679100        1.0080           
   37552 A    9388 TIP4 BD1  LP0     -1.358200        0.0000           
   37553 A    9389 TIP4 O1   OW0      0.000000       15.9990           
   37554 A    9389 TIP4 H1   HW0      0.679100        1.0080           
   37555 A    9389 TIP4 H2   HW0      0.679100        1.0080           
   37556 A    9389 TIP4 BD1  LP0     -1.358200        0.0000           
   37557 A    9390 TIP4 O1   OW0      0.000000       15.9990           
   37558 A    9390 TIP4 H1   HW0      0.679100        1.0080           
   37559 A    9390 TIP4 H2   HW0      0.679100        1.0080           
   37560 A    9390 TIP4 BD1  LP0     -1.358200        0.0000           
   37561 A    9391 TIP4 O1   OW0      0.000000       15.9990           
   37562 A    9391 TIP4 H1   HW0      0.679100        1.0080           
   37563 A    9391 TIP4 H2   HW0      0.679100        1.0080           
   37564 A    9391 TIP4 BD1  LP0     -1.358200        0.0000           
   37565 A    9392 TIP4 O1   OW0      0.000000       15.9990           
   37566 A    9392 TIP4 H1   HW0      0.679100        1.0080           
   37567 A    9392 TIP4 H2   HW0      0.679100        1.0080           
   37568 A    9392 TIP4 BD1  LP0     -1.358200        0.0000           
   37569 A    9393 TIP4 O1   OW0      0.000000       15.9990           
   37570 A    9393 TIP4 H1   HW0      0.679100        1.0080           
   37571 A    9393 TIP4 H2   HW0      0.679100        1.0080           
   37572 A    9393 TIP4 BD1  LP0     -1.358200        0.0000           
   37573 A    9394 TIP4 O1   OW0      0.000000       15.9990           
   37574 A    9394 TIP4 H1   HW0      0.679100        1.0080           
   37575 A    9394 TIP4 H2   HW0      0.679100        1.0080           
   37576 A    9394 TIP4 BD1  LP0     -1.358200        0.0000           
   37577 A    9395 TIP4 O1   OW0      0.000000       15.9990           
   37578 A    9395 TIP4 H1   HW0      0.679100        1.0080           
   37579 A    9395 TIP4 H2   HW0      0.679100        1.0080           
   37580 A    9395 TIP4 BD1  LP0     -1.358200        0.0000           
   37581 A    9396 TIP4 O1   OW0      0.000000       15.9990           
   37582 A    9396 TIP4 H1   HW0      0.679100        1.0080           
   37583 A    9396 TIP4 H2   HW0      0.679100        1.0080           
   37584 A    9396 TIP4 BD1  LP0     -1.358200        0.0000           
   37585 A    9397 TIP4 O1   OW0      0.000000       15.9990           
   37586 A    9397 TIP4 H1   HW0      0.679100        1.0080           
   37587 A    9397 TIP4 H2   HW0      0.679100        1.0080           
   37588 A    9397 TIP4 BD1  LP0     -1.358200        0.0000           
   37589 A    9398 TIP4 O1   OW0      0.000000       15.9990           
   37590 A    9398 TIP4 H1   HW0      0.679100        1.0080           
   37591 A    9398 TIP4 H2   HW0      0.679100        1.0080           
   37592 A    9398 TIP4 BD1  LP0     -1.358200        0.0000           
   37593 A    9399 TIP4 O1   OW0      0.000000       15.9990           
   37594 A    9399 TIP4 H1   HW0      0.679100        1.0080           
   37595 A    9399 TIP4 H2   HW0      0.679100        1.0080           
   37596 A    9399 TIP4 BD1  LP0     -1.358200        0.0000           
   37597 A    9400 TIP4 O1   OW0      0.000000       15.9990           
   37598 A    9400 TIP4 H1   HW0      0.679100        1.0080           
   37599 A    9400 TIP4 H2   HW0      0.679100        1.0080           
   37600 A    9400 TIP4 BD1  LP0     -1.358200        0.0000           
   37601 A    9401 TIP4 O1   OW0      0.000000       15.9990           
   37602 A    9401 TIP4 H1   HW0      0.679100        1.0080           
   37603 A    9401 TIP4 H2   HW0      0.679100        1.0080           
   37604 A    9401 TIP4 BD1  LP0     -1.358200        0.0000           
   37605 A    9402 TIP4 O1   OW0      0.000000       15.9990           
   37606 A    9402 TIP4 H1   HW0      0.679100        1.0080           
   37607 A    9402 TIP4 H2   HW0      0.679100        1.0080           
   37608 A    9402 TIP4 BD1  LP0     -1.358200        0.0000           
   37609 A    9403 TIP4 O1   OW0      0.000000       15.9990           
   37610 A    9403 TIP4 H1   HW0      0.679100        1.0080           
   37611 A    9403 TIP4 H2   HW0      0.679100        1.0080           
   37612 A    9403 TIP4 BD1  LP0     -1.358200        0.0000           
   37613 A    9404 TIP4 O1   OW0      0.000000       15.9990           
   37614 A    9404 TIP4 H1   HW0      0.679100        1.0080           
   37615 A    9404 TIP4 H2   HW0      0.679100        1.0080           
   37616 A    9404 TIP4 BD1  LP0     -1.358200        0.0000           
   37617 A    9405 TIP4 O1   OW0      0.000000       15.9990           
   37618 A    9405 TIP4 H1   HW0      0.679100        1.0080           
   37619 A    9405 TIP4 H2   HW0      0.679100        1.0080           
   37620 A    9405 TIP4 BD1  LP0     -1.358200        0.0000           
   37621 A    9406 TIP4 O1   OW0      0.000000       15.9990           
   37622 A    9406 TIP4 H1   HW0      0.679100        1.0080           
   37623 A    9406 TIP4 H2   HW0      0.679100        1.0080           
   37624 A    9406 TIP4 BD1  LP0     -1.358200        0.0000           
   37625 A    9407 TIP4 O1   OW0      0.000000       15.9990           
   37626 A    9407 TIP4 H1   HW0      0.679100        1.0080           
   37627 A    9407 TIP4 H2   HW0      0.679100        1.0080           
   37628 A    9407 TIP4 BD1  LP0     -1.358200        0.0000           
   37629 A    9408 TIP4 O1   OW0      0.000000       15.9990           
   37630 A    9408 TIP4 H1   HW0      0.679100        1.0080           
   37631 A    9408 TIP4 H2   HW0      0.679100        1.0080           
   37632 A    9408 TIP4 BD1  LP0     -1.358200        0.0000           
   37633 A    9409 TIP4 O1   OW0      0.000000       15.9990           
   37634 A    9409 TIP4 H1   HW0      0.679100        1.0080           
   37635 A    9409 TIP4 H2   HW0      0.679100        1.0080           
   37636 A    9409 TIP4 BD1  LP0     -1.358200        0.0000           
   37637 A    9410 TIP4 O1   OW0      0.000000       15.9990           
   37638 A    9410 TIP4 H1   HW0      0.679100        1.0080           
   37639 A    9410 TIP4 H2   HW0      0.679100        1.0080           
   37640 A    9410 TIP4 BD1  LP0     -1.358200        0.0000           
   37641 A    9411 TIP4 O1   OW0      0.000000       15.9990           
   37642 A    9411 TIP4 H1   HW0      0.679100        1.0080           
   37643 A    9411 TIP4 H2   HW0      0.679100        1.0080           
   37644 A    9411 TIP4 BD1  LP0     -1.358200        0.0000           
   37645 A    9412 TIP4 O1   OW0      0.000000       15.9990           
   37646 A    9412 TIP4 H1   HW0      0.679100        1.0080           
   37647 A    9412 TIP4 H2   HW0      0.679100        1.0080           
   37648 A    9412 TIP4 BD1  LP0     -1.358200        0.0000           
   37649 A    9413 TIP4 O1   OW0      0.000000       15.9990           
   37650 A    9413 TIP4 H1   HW0      0.679100        1.0080           
   37651 A    9413 TIP4 H2   HW0      0.679100        1.0080           
   37652 A    9413 TIP4 BD1  LP0     -1.358200        0.0000           
   37653 A    9414 TIP4 O1   OW0      0.000000       15.9990           
   37654 A    9414 TIP4 H1   HW0      0.679100        1.0080           
   37655 A    9414 TIP4 H2   HW0      0.679100        1.0080           
   37656 A    9414 TIP4 BD1  LP0     -1.358200        0.0000           
   37657 A    9415 TIP4 O1   OW0      0.000000       15.9990           
   37658 A    9415 TIP4 H1   HW0      0.679100        1.0080           
   37659 A    9415 TIP4 H2   HW0      0.679100        1.0080           
   37660 A    9415 TIP4 BD1  LP0     -1.358200        0.0000           
   37661 A    9416 TIP4 O1   OW0      0.000000       15.9990           
   37662 A    9416 TIP4 H1   HW0      0.679100        1.0080           
   37663 A    9416 TIP4 H2   HW0      0.679100        1.0080           
   37664 A    9416 TIP4 BD1  LP0     -1.358200        0.0000           
   37665 A    9417 TIP4 O1   OW0      0.000000       15.9990           
   37666 A    9417 TIP4 H1   HW0      0.679100        1.0080           
   37667 A    9417 TIP4 H2   HW0      0.679100        1.0080           
   37668 A    9417 TIP4 BD1  LP0     -1.358200        0.0000           
   37669 A    9418 TIP4 O1   OW0      0.000000       15.9990           
   37670 A    9418 TIP4 H1   HW0      0.679100        1.0080           
   37671 A    9418 TIP4 H2   HW0      0.679100        1.0080           
   37672 A    9418 TIP4 BD1  LP0     -1.358200        0.0000           
   37673 A    9419 TIP4 O1   OW0      0.000000       15.9990           
   37674 A    9419 TIP4 H1   HW0      0.679100        1.0080           
   37675 A    9419 TIP4 H2   HW0      0.679100        1.0080           
   37676 A    9419 TIP4 BD1  LP0     -1.358200        0.0000           
   37677 A    9420 TIP4 O1   OW0      0.000000       15.9990           
   37678 A    9420 TIP4 H1   HW0      0.679100        1.0080           
   37679 A    9420 TIP4 H2   HW0      0.679100        1.0080           
   37680 A    9420 TIP4 BD1  LP0     -1.358200        0.0000           
   37681 A    9421 TIP4 O1   OW0      0.000000       15.9990           
   37682 A    9421 TIP4 H1   HW0      0.679100        1.0080           
   37683 A    9421 TIP4 H2   HW0      0.679100        1.0080           
   37684 A    9421 TIP4 BD1  LP0     -1.358200        0.0000           
   37685 A    9422 TIP4 O1   OW0      0.000000       15.9990           
   37686 A    9422 TIP4 H1   HW0      0.679100        1.0080           
   37687 A    9422 TIP4 H2   HW0      0.679100        1.0080           
   37688 A    9422 TIP4 BD1  LP0     -1.358200        0.0000           
   37689 A    9423 TIP4 O1   OW0      0.000000       15.9990           
   37690 A    9423 TIP4 H1   HW0      0.679100        1.0080           
   37691 A    9423 TIP4 H2   HW0      0.679100        1.0080           
   37692 A    9423 TIP4 BD1  LP0     -1.358200        0.0000           
   37693 A    9424 TIP4 O1   OW0      0.000000       15.9990           
   37694 A    9424 TIP4 H1   HW0      0.679100        1.0080           
   37695 A    9424 TIP4 H2   HW0      0.679100        1.0080           
   37696 A    9424 TIP4 BD1  LP0     -1.358200        0.0000           
   37697 A    9425 TIP4 O1   OW0      0.000000       15.9990           
   37698 A    9425 TIP4 H1   HW0      0.679100        1.0080           
   37699 A    9425 TIP4 H2   HW0      0.679100        1.0080           
   37700 A    9425 TIP4 BD1  LP0     -1.358200        0.0000           
   37701 A    9426 TIP4 O1   OW0      0.000000       15.9990           
   37702 A    9426 TIP4 H1   HW0      0.679100        1.0080           
   37703 A    9426 TIP4 H2   HW0      0.679100        1.0080           
   37704 A    9426 TIP4 BD1  LP0     -1.358200        0.0000           
   37705 A    9427 TIP4 O1   OW0      0.000000       15.9990           
   37706 A    9427 TIP4 H1   HW0      0.679100        1.0080           
   37707 A    9427 TIP4 H2   HW0      0.679100        1.0080           
   37708 A    9427 TIP4 BD1  LP0     -1.358200        0.0000           
   37709 A    9428 TIP4 O1   OW0      0.000000       15.9990           
   37710 A    9428 TIP4 H1   HW0      0.679100        1.0080           
   37711 A    9428 TIP4 H2   HW0      0.679100        1.0080           
   37712 A    9428 TIP4 BD1  LP0     -1.358200        0.0000           
   37713 A    9429 TIP4 O1   OW0      0.000000       15.9990           
   37714 A    9429 TIP4 H1   HW0      0.679100        1.0080           
   37715 A    9429 TIP4 H2   HW0      0.679100        1.0080           
   37716 A    9429 TIP4 BD1  LP0     -1.358200        0.0000           
   37717 A    9430 TIP4 O1   OW0      0.000000       15.9990           
   37718 A    9430 TIP4 H1   HW0      0.679100        1.0080           
   37719 A    9430 TIP4 H2   HW0      0.679100        1.0080           
   37720 A    9430 TIP4 BD1  LP0     -1.358200        0.0000           
   37721 A    9431 TIP4 O1   OW0      0.000000       15.9990           
   37722 A    9431 TIP4 H1   HW0      0.679100        1.0080           
   37723 A    9431 TIP4 H2   HW0      0.679100        1.0080           
   37724 A    9431 TIP4 BD1  LP0     -1.358200        0.0000           
   37725 A    9432 TIP4 O1   OW0      0.000000       15.9990           
   37726 A    9432 TIP4 H1   HW0      0.679100        1.0080           
   37727 A    9432 TIP4 H2   HW0      0.679100        1.0080           
   37728 A    9432 TIP4 BD1  LP0     -1.358200        0.0000           
   37729 A    9433 TIP4 O1   OW0      0.000000       15.9990           
   37730 A    9433 TIP4 H1   HW0      0.679100        1.0080           
   37731 A    9433 TIP4 H2   HW0      0.679100        1.0080           
   37732 A    9433 TIP4 BD1  LP0     -1.358200        0.0000           
   37733 A    9434 TIP4 O1   OW0      0.000000       15.9990           
   37734 A    9434 TIP4 H1   HW0      0.679100        1.0080           
   37735 A    9434 TIP4 H2   HW0      0.679100        1.0080           
   37736 A    9434 TIP4 BD1  LP0     -1.358200        0.0000           
   37737 A    9435 TIP4 O1   OW0      0.000000       15.9990           
   37738 A    9435 TIP4 H1   HW0      0.679100        1.0080           
   37739 A    9435 TIP4 H2   HW0      0.679100        1.0080           
   37740 A    9435 TIP4 BD1  LP0     -1.358200        0.0000           
   37741 A    9436 TIP4 O1   OW0      0.000000       15.9990           
   37742 A    9436 TIP4 H1   HW0      0.679100        1.0080           
   37743 A    9436 TIP4 H2   HW0      0.679100        1.0080           
   37744 A    9436 TIP4 BD1  LP0     -1.358200        0.0000           
   37745 A    9437 TIP4 O1   OW0      0.000000       15.9990           
   37746 A    9437 TIP4 H1   HW0      0.679100        1.0080           
   37747 A    9437 TIP4 H2   HW0      0.679100        1.0080           
   37748 A    9437 TIP4 BD1  LP0     -1.358200        0.0000           
   37749 A    9438 TIP4 O1   OW0      0.000000       15.9990           
   37750 A    9438 TIP4 H1   HW0      0.679100        1.0080           
   37751 A    9438 TIP4 H2   HW0      0.679100        1.0080           
   37752 A    9438 TIP4 BD1  LP0     -1.358200        0.0000           
   37753 A    9439 TIP4 O1   OW0      0.000000       15.9990           
   37754 A    9439 TIP4 H1   HW0      0.679100        1.0080           
   37755 A    9439 TIP4 H2   HW0      0.679100        1.0080           
   37756 A    9439 TIP4 BD1  LP0     -1.358200        0.0000           
   37757 A    9440 TIP4 O1   OW0      0.000000       15.9990           
   37758 A    9440 TIP4 H1   HW0      0.679100        1.0080           
   37759 A    9440 TIP4 H2   HW0      0.679100        1.0080           
   37760 A    9440 TIP4 BD1  LP0     -1.358200        0.0000           
   37761 A    9441 TIP4 O1   OW0      0.000000       15.9990           
   37762 A    9441 TIP4 H1   HW0      0.679100        1.0080           
   37763 A    9441 TIP4 H2   HW0      0.679100        1.0080           
   37764 A    9441 TIP4 BD1  LP0     -1.358200        0.0000           
   37765 A    9442 TIP4 O1   OW0      0.000000       15.9990           
   37766 A    9442 TIP4 H1   HW0      0.679100        1.0080           
   37767 A    9442 TIP4 H2   HW0      0.679100        1.0080           
   37768 A    9442 TIP4 BD1  LP0     -1.358200        0.0000           
   37769 A    9443 TIP4 O1   OW0      0.000000       15.9990           
   37770 A    9443 TIP4 H1   HW0      0.679100        1.0080           
   37771 A    9443 TIP4 H2   HW0      0.679100        1.0080           
   37772 A    9443 TIP4 BD1  LP0     -1.358200        0.0000           
   37773 A    9444 TIP4 O1   OW0      0.000000       15.9990           
   37774 A    9444 TIP4 H1   HW0      0.679100        1.0080           
   37775 A    9444 TIP4 H2   HW0      0.679100        1.0080           
   37776 A    9444 TIP4 BD1  LP0     -1.358200        0.0000           
   37777 A    9445 TIP4 O1   OW0      0.000000       15.9990           
   37778 A    9445 TIP4 H1   HW0      0.679100        1.0080           
   37779 A    9445 TIP4 H2   HW0      0.679100        1.0080           
   37780 A    9445 TIP4 BD1  LP0     -1.358200        0.0000           
   37781 A    9446 TIP4 O1   OW0      0.000000       15.9990           
   37782 A    9446 TIP4 H1   HW0      0.679100        1.0080           
   37783 A    9446 TIP4 H2   HW0      0.679100        1.0080           
   37784 A    9446 TIP4 BD1  LP0     -1.358200        0.0000           
   37785 A    9447 TIP4 O1   OW0      0.000000       15.9990           
   37786 A    9447 TIP4 H1   HW0      0.679100        1.0080           
   37787 A    9447 TIP4 H2   HW0      0.679100        1.0080           
   37788 A    9447 TIP4 BD1  LP0     -1.358200        0.0000           
   37789 A    9448 TIP4 O1   OW0      0.000000       15.9990           
   37790 A    9448 TIP4 H1   HW0      0.679100        1.0080           
   37791 A    9448 TIP4 H2   HW0      0.679100        1.0080           
   37792 A    9448 TIP4 BD1  LP0     -1.358200        0.0000           
   37793 A    9449 TIP4 O1   OW0      0.000000       15.9990           
   37794 A    9449 TIP4 H1   HW0      0.679100        1.0080           
   37795 A    9449 TIP4 H2   HW0      0.679100        1.0080           
   37796 A    9449 TIP4 BD1  LP0     -1.358200        0.0000           
   37797 A    9450 TIP4 O1   OW0      0.000000       15.9990           
   37798 A    9450 TIP4 H1   HW0      0.679100        1.0080           
   37799 A    9450 TIP4 H2   HW0      0.679100        1.0080           
   37800 A    9450 TIP4 BD1  LP0     -1.358200        0.0000           
   37801 A    9451 TIP4 O1   OW0      0.000000       15.9990           
   37802 A    9451 TIP4 H1   HW0      0.679100        1.0080           
   37803 A    9451 TIP4 H2   HW0      0.679100        1.0080           
   37804 A    9451 TIP4 BD1  LP0     -1.358200        0.0000           
   37805 A    9452 TIP4 O1   OW0      0.000000       15.9990           
   37806 A    9452 TIP4 H1   HW0      0.679100        1.0080           
   37807 A    9452 TIP4 H2   HW0      0.679100        1.0080           
   37808 A    9452 TIP4 BD1  LP0     -1.358200        0.0000           
   37809 A    9453 TIP4 O1   OW0      0.000000       15.9990           
   37810 A    9453 TIP4 H1   HW0      0.679100        1.0080           
   37811 A    9453 TIP4 H2   HW0      0.679100        1.0080           
   37812 A    9453 TIP4 BD1  LP0     -1.358200        0.0000           
   37813 A    9454 TIP4 O1   OW0      0.000000       15.9990           
   37814 A    9454 TIP4 H1   HW0      0.679100        1.0080           
   37815 A    9454 TIP4 H2   HW0      0.679100        1.0080           
   37816 A    9454 TIP4 BD1  LP0     -1.358200        0.0000           
   37817 A    9455 TIP4 O1   OW0      0.000000       15.9990           
   37818 A    9455 TIP4 H1   HW0      0.679100        1.0080           
   37819 A    9455 TIP4 H2   HW0      0.679100        1.0080           
   37820 A    9455 TIP4 BD1  LP0     -1.358200        0.0000           
   37821 A    9456 TIP4 O1   OW0      0.000000       15.9990           
   37822 A    9456 TIP4 H1   HW0      0.679100        1.0080           
   37823 A    9456 TIP4 H2   HW0      0.679100        1.0080           
   37824 A    9456 TIP4 BD1  LP0     -1.358200        0.0000           
   37825 A    9457 TIP4 O1   OW0      0.000000       15.9990           
   37826 A    9457 TIP4 H1   HW0      0.679100        1.0080           
   37827 A    9457 TIP4 H2   HW0      0.679100        1.0080           
   37828 A    9457 TIP4 BD1  LP0     -1.358200        0.0000           
   37829 A    9458 TIP4 O1   OW0      0.000000       15.9990           
   37830 A    9458 TIP4 H1   HW0      0.679100        1.0080           
   37831 A    9458 TIP4 H2   HW0      0.679100        1.0080           
   37832 A    9458 TIP4 BD1  LP0     -1.358200        0.0000           
   37833 A    9459 TIP4 O1   OW0      0.000000       15.9990           
   37834 A    9459 TIP4 H1   HW0      0.679100        1.0080           
   37835 A    9459 TIP4 H2   HW0      0.679100        1.0080           
   37836 A    9459 TIP4 BD1  LP0     -1.358200        0.0000           
   37837 A    9460 TIP4 O1   OW0      0.000000       15.9990           
   37838 A    9460 TIP4 H1   HW0      0.679100        1.0080           
   37839 A    9460 TIP4 H2   HW0      0.679100        1.0080           
   37840 A    9460 TIP4 BD1  LP0     -1.358200        0.0000           
   37841 A    9461 TIP4 O1   OW0      0.000000       15.9990           
   37842 A    9461 TIP4 H1   HW0      0.679100        1.0080           
   37843 A    9461 TIP4 H2   HW0      0.679100        1.0080           
   37844 A    9461 TIP4 BD1  LP0     -1.358200        0.0000           
   37845 A    9462 TIP4 O1   OW0      0.000000       15.9990           
   37846 A    9462 TIP4 H1   HW0      0.679100        1.0080           
   37847 A    9462 TIP4 H2   HW0      0.679100        1.0080           
   37848 A    9462 TIP4 BD1  LP0     -1.358200        0.0000           
   37849 A    9463 TIP4 O1   OW0      0.000000       15.9990           
   37850 A    9463 TIP4 H1   HW0      0.679100        1.0080           
   37851 A    9463 TIP4 H2   HW0      0.679100        1.0080           
   37852 A    9463 TIP4 BD1  LP0     -1.358200        0.0000           
   37853 A    9464 TIP4 O1   OW0      0.000000       15.9990           
   37854 A    9464 TIP4 H1   HW0      0.679100        1.0080           
   37855 A    9464 TIP4 H2   HW0      0.679100        1.0080           
   37856 A    9464 TIP4 BD1  LP0     -1.358200        0.0000           
   37857 A    9465 TIP4 O1   OW0      0.000000       15.9990           
   37858 A    9465 TIP4 H1   HW0      0.679100        1.0080           
   37859 A    9465 TIP4 H2   HW0      0.679100        1.0080           
   37860 A    9465 TIP4 BD1  LP0     -1.358200        0.0000           
   37861 A    9466 TIP4 O1   OW0      0.000000       15.9990           
   37862 A    9466 TIP4 H1   HW0      0.679100        1.0080           
   37863 A    9466 TIP4 H2   HW0      0.679100        1.0080           
   37864 A    9466 TIP4 BD1  LP0     -1.358200        0.0000           
   37865 A    9467 TIP4 O1   OW0      0.000000       15.9990           
   37866 A    9467 TIP4 H1   HW0      0.679100        1.0080           
   37867 A    9467 TIP4 H2   HW0      0.679100        1.0080           
   37868 A    9467 TIP4 BD1  LP0     -1.358200        0.0000           
   37869 A    9468 TIP4 O1   OW0      0.000000       15.9990           
   37870 A    9468 TIP4 H1   HW0      0.679100        1.0080           
   37871 A    9468 TIP4 H2   HW0      0.679100        1.0080           
   37872 A    9468 TIP4 BD1  LP0     -1.358200        0.0000           
   37873 A    9469 TIP4 O1   OW0      0.000000       15.9990           
   37874 A    9469 TIP4 H1   HW0      0.679100        1.0080           
   37875 A    9469 TIP4 H2   HW0      0.679100        1.0080           
   37876 A    9469 TIP4 BD1  LP0     -1.358200        0.0000           
   37877 A    9470 TIP4 O1   OW0      0.000000       15.9990           
   37878 A    9470 TIP4 H1   HW0      0.679100        1.0080           
   37879 A    9470 TIP4 H2   HW0      0.679100        1.0080           
   37880 A    9470 TIP4 BD1  LP0     -1.358200        0.0000           
   37881 A    9471 TIP4 O1   OW0      0.000000       15.9990           
   37882 A    9471 TIP4 H1   HW0      0.679100        1.0080           
   37883 A    9471 TIP4 H2   HW0      0.679100        1.0080           
   37884 A    9471 TIP4 BD1  LP0     -1.358200        0.0000           
   37885 A    9472 TIP4 O1   OW0      0.000000       15.9990           
   37886 A    9472 TIP4 H1   HW0      0.679100        1.0080           
   37887 A    9472 TIP4 H2   HW0      0.679100        1.0080           
   37888 A    9472 TIP4 BD1  LP0     -1.358200        0.0000           
   37889 A    9473 TIP4 O1   OW0      0.000000       15.9990           
   37890 A    9473 TIP4 H1   HW0      0.679100        1.0080           
   37891 A    9473 TIP4 H2   HW0      0.679100        1.0080           
   37892 A    9473 TIP4 BD1  LP0     -1.358200        0.0000           
   37893 A    9474 TIP4 O1   OW0      0.000000       15.9990           
   37894 A    9474 TIP4 H1   HW0      0.679100        1.0080           
   37895 A    9474 TIP4 H2   HW0      0.679100        1.0080           
   37896 A    9474 TIP4 BD1  LP0     -1.358200        0.0000           
   37897 A    9475 TIP4 O1   OW0      0.000000       15.9990           
   37898 A    9475 TIP4 H1   HW0      0.679100        1.0080           
   37899 A    9475 TIP4 H2   HW0      0.679100        1.0080           
   37900 A    9475 TIP4 BD1  LP0     -1.358200        0.0000           
   37901 A    9476 TIP4 O1   OW0      0.000000       15.9990           
   37902 A    9476 TIP4 H1   HW0      0.679100        1.0080           
   37903 A    9476 TIP4 H2   HW0      0.679100        1.0080           
   37904 A    9476 TIP4 BD1  LP0     -1.358200        0.0000           
   37905 A    9477 TIP4 O1   OW0      0.000000       15.9990           
   37906 A    9477 TIP4 H1   HW0      0.679100        1.0080           
   37907 A    9477 TIP4 H2   HW0      0.679100        1.0080           
   37908 A    9477 TIP4 BD1  LP0     -1.358200        0.0000           
   37909 A    9478 TIP4 O1   OW0      0.000000       15.9990           
   37910 A    9478 TIP4 H1   HW0      0.679100        1.0080           
   37911 A    9478 TIP4 H2   HW0      0.679100        1.0080           
   37912 A    9478 TIP4 BD1  LP0     -1.358200        0.0000           
   37913 A    9479 TIP4 O1   OW0      0.000000       15.9990           
   37914 A    9479 TIP4 H1   HW0      0.679100        1.0080           
   37915 A    9479 TIP4 H2   HW0      0.679100        1.0080           
   37916 A    9479 TIP4 BD1  LP0     -1.358200        0.0000           
   37917 A    9480 TIP4 O1   OW0      0.000000       15.9990           
   37918 A    9480 TIP4 H1   HW0      0.679100        1.0080           
   37919 A    9480 TIP4 H2   HW0      0.679100        1.0080           
   37920 A    9480 TIP4 BD1  LP0     -1.358200        0.0000           
   37921 A    9481 TIP4 O1   OW0      0.000000       15.9990           
   37922 A    9481 TIP4 H1   HW0      0.679100        1.0080           
   37923 A    9481 TIP4 H2   HW0      0.679100        1.0080           
   37924 A    9481 TIP4 BD1  LP0     -1.358200        0.0000           
   37925 A    9482 TIP4 O1   OW0      0.000000       15.9990           
   37926 A    9482 TIP4 H1   HW0      0.679100        1.0080           
   37927 A    9482 TIP4 H2   HW0      0.679100        1.0080           
   37928 A    9482 TIP4 BD1  LP0     -1.358200        0.0000           
   37929 A    9483 TIP4 O1   OW0      0.000000       15.9990           
   37930 A    9483 TIP4 H1   HW0      0.679100        1.0080           
   37931 A    9483 TIP4 H2   HW0      0.679100        1.0080           
   37932 A    9483 TIP4 BD1  LP0     -1.358200        0.0000           
   37933 A    9484 TIP4 O1   OW0      0.000000       15.9990           
   37934 A    9484 TIP4 H1   HW0      0.679100        1.0080           
   37935 A    9484 TIP4 H2   HW0      0.679100        1.0080           
   37936 A    9484 TIP4 BD1  LP0     -1.358200        0.0000           
   37937 A    9485 TIP4 O1   OW0      0.000000       15.9990           
   37938 A    9485 TIP4 H1   HW0      0.679100        1.0080           
   37939 A    9485 TIP4 H2   HW0      0.679100        1.0080           
   37940 A    9485 TIP4 BD1  LP0     -1.358200        0.0000           
   37941 A    9486 TIP4 O1   OW0      0.000000       15.9990           
   37942 A    9486 TIP4 H1   HW0      0.679100        1.0080           
   37943 A    9486 TIP4 H2   HW0      0.679100        1.0080           
   37944 A    9486 TIP4 BD1  LP0     -1.358200        0.0000           
   37945 A    9487 TIP4 O1   OW0      0.000000       15.9990           
   37946 A    9487 TIP4 H1   HW0      0.679100        1.0080           
   37947 A    9487 TIP4 H2   HW0      0.679100        1.0080           
   37948 A    9487 TIP4 BD1  LP0     -1.358200        0.0000           
   37949 A    9488 TIP4 O1   OW0      0.000000       15.9990           
   37950 A    9488 TIP4 H1   HW0      0.679100        1.0080           
   37951 A    9488 TIP4 H2   HW0      0.679100        1.0080           
   37952 A    9488 TIP4 BD1  LP0     -1.358200        0.0000           
   37953 A    9489 TIP4 O1   OW0      0.000000       15.9990           
   37954 A    9489 TIP4 H1   HW0      0.679100        1.0080           
   37955 A    9489 TIP4 H2   HW0      0.679100        1.0080           
   37956 A    9489 TIP4 BD1  LP0     -1.358200        0.0000           
   37957 A    9490 TIP4 O1   OW0      0.000000       15.9990           
   37958 A    9490 TIP4 H1   HW0      0.679100        1.0080           
   37959 A    9490 TIP4 H2   HW0      0.679100        1.0080           
   37960 A    9490 TIP4 BD1  LP0     -1.358200        0.0000           
   37961 A    9491 TIP4 O1   OW0      0.000000       15.9990           
   37962 A    9491 TIP4 H1   HW0      0.679100        1.0080           
   37963 A    9491 TIP4 H2   HW0      0.679100        1.0080           
   37964 A    9491 TIP4 BD1  LP0     -1.358200        0.0000           
   37965 A    9492 TIP4 O1   OW0      0.000000       15.9990           
   37966 A    9492 TIP4 H1   HW0      0.679100        1.0080           
   37967 A    9492 TIP4 H2   HW0      0.679100        1.0080           
   37968 A    9492 TIP4 BD1  LP0     -1.358200        0.0000           
   37969 A    9493 TIP4 O1   OW0      0.000000       15.9990           
   37970 A    9493 TIP4 H1   HW0      0.679100        1.0080           
   37971 A    9493 TIP4 H2   HW0      0.679100        1.0080           
   37972 A    9493 TIP4 BD1  LP0     -1.358200        0.0000           
   37973 A    9494 TIP4 O1   OW0      0.000000       15.9990           
   37974 A    9494 TIP4 H1   HW0      0.679100        1.0080           
   37975 A    9494 TIP4 H2   HW0      0.679100        1.0080           
   37976 A    9494 TIP4 BD1  LP0     -1.358200        0.0000           
   37977 A    9495 TIP4 O1   OW0      0.000000       15.9990           
   37978 A    9495 TIP4 H1   HW0      0.679100        1.0080           
   37979 A    9495 TIP4 H2   HW0      0.679100        1.0080           
   37980 A    9495 TIP4 BD1  LP0     -1.358200        0.0000           
   37981 A    9496 TIP4 O1   OW0      0.000000       15.9990           
   37982 A    9496 TIP4 H1   HW0      0.679100        1.0080           
   37983 A    9496 TIP4 H2   HW0      0.679100        1.0080           
   37984 A    9496 TIP4 BD1  LP0     -1.358200        0.0000           
   37985 A    9497 TIP4 O1   OW0      0.000000       15.9990           
   37986 A    9497 TIP4 H1   HW0      0.679100        1.0080           
   37987 A    9497 TIP4 H2   HW0      0.679100        1.0080           
   37988 A    9497 TIP4 BD1  LP0     -1.358200        0.0000           
   37989 A    9498 TIP4 O1   OW0      0.000000       15.9990           
   37990 A    9498 TIP4 H1   HW0      0.679100        1.0080           
   37991 A    9498 TIP4 H2   HW0      0.679100        1.0080           
   37992 A    9498 TIP4 BD1  LP0     -1.358200        0.0000           
   37993 A    9499 TIP4 O1   OW0      0.000000       15.9990           
   37994 A    9499 TIP4 H1   HW0      0.679100        1.0080           
   37995 A    9499 TIP4 H2   HW0      0.679100        1.0080           
   37996 A    9499 TIP4 BD1  LP0     -1.358200        0.0000           
   37997 A    9500 TIP4 O1   OW0      0.000000       15.9990           
   37998 A    9500 TIP4 H1   HW0      0.679100        1.0080           
   37999 A    9500 TIP4 H2   HW0      0.679100        1.0080           
   38000 A    9500 TIP4 BD1  LP0     -1.358200        0.0000           
   38001 A    9501 TIP4 O1   OW0      0.000000       15.9990           
   38002 A    9501 TIP4 H1   HW0      0.679100        1.0080           
   38003 A    9501 TIP4 H2   HW0      0.679100        1.0080           
   38004 A    9501 TIP4 BD1  LP0     -1.358200        0.0000           
   38005 A    9502 TIP4 O1   OW0      0.000000       15.9990           
   38006 A    9502 TIP4 H1   HW0      0.679100        1.0080           
   38007 A    9502 TIP4 H2   HW0      0.679100        1.0080           
   38008 A    9502 TIP4 BD1  LP0     -1.358200        0.0000           
   38009 A    9503 TIP4 O1   OW0      0.000000       15.9990           
   38010 A    9503 TIP4 H1   HW0      0.679100        1.0080           
   38011 A    9503 TIP4 H2   HW0      0.679100        1.0080           
   38012 A    9503 TIP4 BD1  LP0     -1.358200        0.0000           
   38013 A    9504 TIP4 O1   OW0      0.000000       15.9990           
   38014 A    9504 TIP4 H1   HW0      0.679100        1.0080           
   38015 A    9504 TIP4 H2   HW0      0.679100        1.0080           
   38016 A    9504 TIP4 BD1  LP0     -1.358200        0.0000           
   38017 A    9505 TIP4 O1   OW0      0.000000       15.9990           
   38018 A    9505 TIP4 H1   HW0      0.679100        1.0080           
   38019 A    9505 TIP4 H2   HW0      0.679100        1.0080           
   38020 A    9505 TIP4 BD1  LP0     -1.358200        0.0000           
   38021 A    9506 TIP4 O1   OW0      0.000000       15.9990           
   38022 A    9506 TIP4 H1   HW0      0.679100        1.0080           
   38023 A    9506 TIP4 H2   HW0      0.679100        1.0080           
   38024 A    9506 TIP4 BD1  LP0     -1.358200        0.0000           
   38025 A    9507 TIP4 O1   OW0      0.000000       15.9990           
   38026 A    9507 TIP4 H1   HW0      0.679100        1.0080           
   38027 A    9507 TIP4 H2   HW0      0.679100        1.0080           
   38028 A    9507 TIP4 BD1  LP0     -1.358200        0.0000           
   38029 A    9508 TIP4 O1   OW0      0.000000       15.9990           
   38030 A    9508 TIP4 H1   HW0      0.679100        1.0080           
   38031 A    9508 TIP4 H2   HW0      0.679100        1.0080           
   38032 A    9508 TIP4 BD1  LP0     -1.358200        0.0000           
   38033 A    9509 TIP4 O1   OW0      0.000000       15.9990           
   38034 A    9509 TIP4 H1   HW0      0.679100        1.0080           
   38035 A    9509 TIP4 H2   HW0      0.679100        1.0080           
   38036 A    9509 TIP4 BD1  LP0     -1.358200        0.0000           
   38037 A    9510 TIP4 O1   OW0      0.000000       15.9990           
   38038 A    9510 TIP4 H1   HW0      0.679100        1.0080           
   38039 A    9510 TIP4 H2   HW0      0.679100        1.0080           
   38040 A    9510 TIP4 BD1  LP0     -1.358200        0.0000           
   38041 A    9511 TIP4 O1   OW0      0.000000       15.9990           
   38042 A    9511 TIP4 H1   HW0      0.679100        1.0080           
   38043 A    9511 TIP4 H2   HW0      0.679100        1.0080           
   38044 A    9511 TIP4 BD1  LP0     -1.358200        0.0000           
   38045 A    9512 TIP4 O1   OW0      0.000000       15.9990           
   38046 A    9512 TIP4 H1   HW0      0.679100        1.0080           
   38047 A    9512 TIP4 H2   HW0      0.679100        1.0080           
   38048 A    9512 TIP4 BD1  LP0     -1.358200        0.0000           
   38049 A    9513 TIP4 O1   OW0      0.000000       15.9990           
   38050 A    9513 TIP4 H1   HW0      0.679100        1.0080           
   38051 A    9513 TIP4 H2   HW0      0.679100        1.0080           
   38052 A    9513 TIP4 BD1  LP0     -1.358200        0.0000           
   38053 A    9514 TIP4 O1   OW0      0.000000       15.9990           
   38054 A    9514 TIP4 H1   HW0      0.679100        1.0080           
   38055 A    9514 TIP4 H2   HW0      0.679100        1.0080           
   38056 A    9514 TIP4 BD1  LP0     -1.358200        0.0000           
   38057 A    9515 TIP4 O1   OW0      0.000000       15.9990           
   38058 A    9515 TIP4 H1   HW0      0.679100        1.0080           
   38059 A    9515 TIP4 H2   HW0      0.679100        1.0080           
   38060 A    9515 TIP4 BD1  LP0     -1.358200        0.0000           
   38061 A    9516 TIP4 O1   OW0      0.000000       15.9990           
   38062 A    9516 TIP4 H1   HW0      0.679100        1.0080           
   38063 A    9516 TIP4 H2   HW0      0.679100        1.0080           
   38064 A    9516 TIP4 BD1  LP0     -1.358200        0.0000           
   38065 A    9517 TIP4 O1   OW0      0.000000       15.9990           
   38066 A    9517 TIP4 H1   HW0      0.679100        1.0080           
   38067 A    9517 TIP4 H2   HW0      0.679100        1.0080           
   38068 A    9517 TIP4 BD1  LP0     -1.358200        0.0000           
   38069 A    9518 TIP4 O1   OW0      0.000000       15.9990           
   38070 A    9518 TIP4 H1   HW0      0.679100        1.0080           
   38071 A    9518 TIP4 H2   HW0      0.679100        1.0080           
   38072 A    9518 TIP4 BD1  LP0     -1.358200        0.0000           
   38073 A    9519 TIP4 O1   OW0      0.000000       15.9990           
   38074 A    9519 TIP4 H1   HW0      0.679100        1.0080           
   38075 A    9519 TIP4 H2   HW0      0.679100        1.0080           
   38076 A    9519 TIP4 BD1  LP0     -1.358200        0.0000           
   38077 A    9520 TIP4 O1   OW0      0.000000       15.9990           
   38078 A    9520 TIP4 H1   HW0      0.679100        1.0080           
   38079 A    9520 TIP4 H2   HW0      0.679100        1.0080           
   38080 A    9520 TIP4 BD1  LP0     -1.358200        0.0000           
   38081 A    9521 TIP4 O1   OW0      0.000000       15.9990           
   38082 A    9521 TIP4 H1   HW0      0.679100        1.0080           
   38083 A    9521 TIP4 H2   HW0      0.679100        1.0080           
   38084 A    9521 TIP4 BD1  LP0     -1.358200        0.0000           
   38085 A    9522 TIP4 O1   OW0      0.000000       15.9990           
   38086 A    9522 TIP4 H1   HW0      0.679100        1.0080           
   38087 A    9522 TIP4 H2   HW0      0.679100        1.0080           
   38088 A    9522 TIP4 BD1  LP0     -1.358200        0.0000           
   38089 A    9523 TIP4 O1   OW0      0.000000       15.9990           
   38090 A    9523 TIP4 H1   HW0      0.679100        1.0080           
   38091 A    9523 TIP4 H2   HW0      0.679100        1.0080           
   38092 A    9523 TIP4 BD1  LP0     -1.358200        0.0000           
   38093 A    9524 TIP4 O1   OW0      0.000000       15.9990           
   38094 A    9524 TIP4 H1   HW0      0.679100        1.0080           
   38095 A    9524 TIP4 H2   HW0      0.679100        1.0080           
   38096 A    9524 TIP4 BD1  LP0     -1.358200        0.0000           
   38097 A    9525 TIP4 O1   OW0      0.000000       15.9990           
   38098 A    9525 TIP4 H1   HW0      0.679100        1.0080           
   38099 A    9525 TIP4 H2   HW0      0.679100        1.0080           
   38100 A    9525 TIP4 BD1  LP0     -1.358200        0.0000           
   38101 A    9526 TIP4 O1   OW0      0.000000       15.9990           
   38102 A    9526 TIP4 H1   HW0      0.679100        1.0080           
   38103 A    9526 TIP4 H2   HW0      0.679100        1.0080           
   38104 A    9526 TIP4 BD1  LP0     -1.358200        0.0000           
   38105 A    9527 TIP4 O1   OW0      0.000000       15.9990           
   38106 A    9527 TIP4 H1   HW0      0.679100        1.0080           
   38107 A    9527 TIP4 H2   HW0      0.679100        1.0080           
   38108 A    9527 TIP4 BD1  LP0     -1.358200        0.0000           
   38109 A    9528 TIP4 O1   OW0      0.000000       15.9990           
   38110 A    9528 TIP4 H1   HW0      0.679100        1.0080           
   38111 A    9528 TIP4 H2   HW0      0.679100        1.0080           
   38112 A    9528 TIP4 BD1  LP0     -1.358200        0.0000           
   38113 A    9529 TIP4 O1   OW0      0.000000       15.9990           
   38114 A    9529 TIP4 H1   HW0      0.679100        1.0080           
   38115 A    9529 TIP4 H2   HW0      0.679100        1.0080           
   38116 A    9529 TIP4 BD1  LP0     -1.358200        0.0000           
   38117 A    9530 TIP4 O1   OW0      0.000000       15.9990           
   38118 A    9530 TIP4 H1   HW0      0.679100        1.0080           
   38119 A    9530 TIP4 H2   HW0      0.679100        1.0080           
   38120 A    9530 TIP4 BD1  LP0     -1.358200        0.0000           
   38121 A    9531 TIP4 O1   OW0      0.000000       15.9990           
   38122 A    9531 TIP4 H1   HW0      0.679100        1.0080           
   38123 A    9531 TIP4 H2   HW0      0.679100        1.0080           
   38124 A    9531 TIP4 BD1  LP0     -1.358200        0.0000           
   38125 A    9532 TIP4 O1   OW0      0.000000       15.9990           
   38126 A    9532 TIP4 H1   HW0      0.679100        1.0080           
   38127 A    9532 TIP4 H2   HW0      0.679100        1.0080           
   38128 A    9532 TIP4 BD1  LP0     -1.358200        0.0000           
   38129 A    9533 TIP4 O1   OW0      0.000000       15.9990           
   38130 A    9533 TIP4 H1   HW0      0.679100        1.0080           
   38131 A    9533 TIP4 H2   HW0      0.679100        1.0080           
   38132 A    9533 TIP4 BD1  LP0     -1.358200        0.0000           
   38133 A    9534 TIP4 O1   OW0      0.000000       15.9990           
   38134 A    9534 TIP4 H1   HW0      0.679100        1.0080           
   38135 A    9534 TIP4 H2   HW0      0.679100        1.0080           
   38136 A    9534 TIP4 BD1  LP0     -1.358200        0.0000           
   38137 A    9535 TIP4 O1   OW0      0.000000       15.9990           
   38138 A    9535 TIP4 H1   HW0      0.679100        1.0080           
   38139 A    9535 TIP4 H2   HW0      0.679100        1.0080           
   38140 A    9535 TIP4 BD1  LP0     -1.358200        0.0000           
   38141 A    9536 TIP4 O1   OW0      0.000000       15.9990           
   38142 A    9536 TIP4 H1   HW0      0.679100        1.0080           
   38143 A    9536 TIP4 H2   HW0      0.679100        1.0080           
   38144 A    9536 TIP4 BD1  LP0     -1.358200        0.0000           
   38145 A    9537 TIP4 O1   OW0      0.000000       15.9990           
   38146 A    9537 TIP4 H1   HW0      0.679100        1.0080           
   38147 A    9537 TIP4 H2   HW0      0.679100        1.0080           
   38148 A    9537 TIP4 BD1  LP0     -1.358200        0.0000           
   38149 A    9538 TIP4 O1   OW0      0.000000       15.9990           
   38150 A    9538 TIP4 H1   HW0      0.679100        1.0080           
   38151 A    9538 TIP4 H2   HW0      0.679100        1.0080           
   38152 A    9538 TIP4 BD1  LP0     -1.358200        0.0000           
   38153 A    9539 TIP4 O1   OW0      0.000000       15.9990           
   38154 A    9539 TIP4 H1   HW0      0.679100        1.0080           
   38155 A    9539 TIP4 H2   HW0      0.679100        1.0080           
   38156 A    9539 TIP4 BD1  LP0     -1.358200        0.0000           
   38157 A    9540 TIP4 O1   OW0      0.000000       15.9990           
   38158 A    9540 TIP4 H1   HW0      0.679100        1.0080           
   38159 A    9540 TIP4 H2   HW0      0.679100        1.0080           
   38160 A    9540 TIP4 BD1  LP0     -1.358200        0.0000           
   38161 A    9541 TIP4 O1   OW0      0.000000       15.9990           
   38162 A    9541 TIP4 H1   HW0      0.679100        1.0080           
   38163 A    9541 TIP4 H2   HW0      0.679100        1.0080           
   38164 A    9541 TIP4 BD1  LP0     -1.358200        0.0000           
   38165 A    9542 TIP4 O1   OW0      0.000000       15.9990           
   38166 A    9542 TIP4 H1   HW0      0.679100        1.0080           
   38167 A    9542 TIP4 H2   HW0      0.679100        1.0080           
   38168 A    9542 TIP4 BD1  LP0     -1.358200        0.0000           
   38169 A    9543 TIP4 O1   OW0      0.000000       15.9990           
   38170 A    9543 TIP4 H1   HW0      0.679100        1.0080           
   38171 A    9543 TIP4 H2   HW0      0.679100        1.0080           
   38172 A    9543 TIP4 BD1  LP0     -1.358200        0.0000           
   38173 A    9544 TIP4 O1   OW0      0.000000       15.9990           
   38174 A    9544 TIP4 H1   HW0      0.679100        1.0080           
   38175 A    9544 TIP4 H2   HW0      0.679100        1.0080           
   38176 A    9544 TIP4 BD1  LP0     -1.358200        0.0000           
   38177 A    9545 TIP4 O1   OW0      0.000000       15.9990           
   38178 A    9545 TIP4 H1   HW0      0.679100        1.0080           
   38179 A    9545 TIP4 H2   HW0      0.679100        1.0080           
   38180 A    9545 TIP4 BD1  LP0     -1.358200        0.0000           
   38181 A    9546 TIP4 O1   OW0      0.000000       15.9990           
   38182 A    9546 TIP4 H1   HW0      0.679100        1.0080           
   38183 A    9546 TIP4 H2   HW0      0.679100        1.0080           
   38184 A    9546 TIP4 BD1  LP0     -1.358200        0.0000           
   38185 A    9547 TIP4 O1   OW0      0.000000       15.9990           
   38186 A    9547 TIP4 H1   HW0      0.679100        1.0080           
   38187 A    9547 TIP4 H2   HW0      0.679100        1.0080           
   38188 A    9547 TIP4 BD1  LP0     -1.358200        0.0000           
   38189 A    9548 TIP4 O1   OW0      0.000000       15.9990           
   38190 A    9548 TIP4 H1   HW0      0.679100        1.0080           
   38191 A    9548 TIP4 H2   HW0      0.679100        1.0080           
   38192 A    9548 TIP4 BD1  LP0     -1.358200        0.0000           
   38193 A    9549 TIP4 O1   OW0      0.000000       15.9990           
   38194 A    9549 TIP4 H1   HW0      0.679100        1.0080           
   38195 A    9549 TIP4 H2   HW0      0.679100        1.0080           
   38196 A    9549 TIP4 BD1  LP0     -1.358200        0.0000           
   38197 A    9550 TIP4 O1   OW0      0.000000       15.9990           
   38198 A    9550 TIP4 H1   HW0      0.679100        1.0080           
   38199 A    9550 TIP4 H2   HW0      0.679100        1.0080           
   38200 A    9550 TIP4 BD1  LP0     -1.358200        0.0000           
   38201 A    9551 TIP4 O1   OW0      0.000000       15.9990           
   38202 A    9551 TIP4 H1   HW0      0.679100        1.0080           
   38203 A    9551 TIP4 H2   HW0      0.679100        1.0080           
   38204 A    9551 TIP4 BD1  LP0     -1.358200        0.0000           
   38205 A    9552 TIP4 O1   OW0      0.000000       15.9990           
   38206 A    9552 TIP4 H1   HW0      0.679100        1.0080           
   38207 A    9552 TIP4 H2   HW0      0.679100        1.0080           
   38208 A    9552 TIP4 BD1  LP0     -1.358200        0.0000           
   38209 A    9553 TIP4 O1   OW0      0.000000       15.9990           
   38210 A    9553 TIP4 H1   HW0      0.679100        1.0080           
   38211 A    9553 TIP4 H2   HW0      0.679100        1.0080           
   38212 A    9553 TIP4 BD1  LP0     -1.358200        0.0000           
   38213 A    9554 TIP4 O1   OW0      0.000000       15.9990           
   38214 A    9554 TIP4 H1   HW0      0.679100        1.0080           
   38215 A    9554 TIP4 H2   HW0      0.679100        1.0080           
   38216 A    9554 TIP4 BD1  LP0     -1.358200        0.0000           
   38217 A    9555 TIP4 O1   OW0      0.000000       15.9990           
   38218 A    9555 TIP4 H1   HW0      0.679100        1.0080           
   38219 A    9555 TIP4 H2   HW0      0.679100        1.0080           
   38220 A    9555 TIP4 BD1  LP0     -1.358200        0.0000           
   38221 A    9556 TIP4 O1   OW0      0.000000       15.9990           
   38222 A    9556 TIP4 H1   HW0      0.679100        1.0080           
   38223 A    9556 TIP4 H2   HW0      0.679100        1.0080           
   38224 A    9556 TIP4 BD1  LP0     -1.358200        0.0000           
   38225 A    9557 TIP4 O1   OW0      0.000000       15.9990           
   38226 A    9557 TIP4 H1   HW0      0.679100        1.0080           
   38227 A    9557 TIP4 H2   HW0      0.679100        1.0080           
   38228 A    9557 TIP4 BD1  LP0     -1.358200        0.0000           
   38229 A    9558 TIP4 O1   OW0      0.000000       15.9990           
   38230 A    9558 TIP4 H1   HW0      0.679100        1.0080           
   38231 A    9558 TIP4 H2   HW0      0.679100        1.0080           
   38232 A    9558 TIP4 BD1  LP0     -1.358200        0.0000           
   38233 A    9559 TIP4 O1   OW0      0.000000       15.9990           
   38234 A    9559 TIP4 H1   HW0      0.679100        1.0080           
   38235 A    9559 TIP4 H2   HW0      0.679100        1.0080           
   38236 A    9559 TIP4 BD1  LP0     -1.358200        0.0000           
   38237 A    9560 TIP4 O1   OW0      0.000000       15.9990           
   38238 A    9560 TIP4 H1   HW0      0.679100        1.0080           
   38239 A    9560 TIP4 H2   HW0      0.679100        1.0080           
   38240 A    9560 TIP4 BD1  LP0     -1.358200        0.0000           
   38241 A    9561 TIP4 O1   OW0      0.000000       15.9990           
   38242 A    9561 TIP4 H1   HW0      0.679100        1.0080           
   38243 A    9561 TIP4 H2   HW0      0.679100        1.0080           
   38244 A    9561 TIP4 BD1  LP0     -1.358200        0.0000           
   38245 A    9562 TIP4 O1   OW0      0.000000       15.9990           
   38246 A    9562 TIP4 H1   HW0      0.679100        1.0080           
   38247 A    9562 TIP4 H2   HW0      0.679100        1.0080           
   38248 A    9562 TIP4 BD1  LP0     -1.358200        0.0000           
   38249 A    9563 TIP4 O1   OW0      0.000000       15.9990           
   38250 A    9563 TIP4 H1   HW0      0.679100        1.0080           
   38251 A    9563 TIP4 H2   HW0      0.679100        1.0080           
   38252 A    9563 TIP4 BD1  LP0     -1.358200        0.0000           
   38253 A    9564 TIP4 O1   OW0      0.000000       15.9990           
   38254 A    9564 TIP4 H1   HW0      0.679100        1.0080           
   38255 A    9564 TIP4 H2   HW0      0.679100        1.0080           
   38256 A    9564 TIP4 BD1  LP0     -1.358200        0.0000           
   38257 A    9565 TIP4 O1   OW0      0.000000       15.9990           
   38258 A    9565 TIP4 H1   HW0      0.679100        1.0080           
   38259 A    9565 TIP4 H2   HW0      0.679100        1.0080           
   38260 A    9565 TIP4 BD1  LP0     -1.358200        0.0000           
   38261 A    9566 TIP4 O1   OW0      0.000000       15.9990           
   38262 A    9566 TIP4 H1   HW0      0.679100        1.0080           
   38263 A    9566 TIP4 H2   HW0      0.679100        1.0080           
   38264 A    9566 TIP4 BD1  LP0     -1.358200        0.0000           
   38265 A    9567 TIP4 O1   OW0      0.000000       15.9990           
   38266 A    9567 TIP4 H1   HW0      0.679100        1.0080           
   38267 A    9567 TIP4 H2   HW0      0.679100        1.0080           
   38268 A    9567 TIP4 BD1  LP0     -1.358200        0.0000           
   38269 A    9568 TIP4 O1   OW0      0.000000       15.9990           
   38270 A    9568 TIP4 H1   HW0      0.679100        1.0080           
   38271 A    9568 TIP4 H2   HW0      0.679100        1.0080           
   38272 A    9568 TIP4 BD1  LP0     -1.358200        0.0000           
   38273 A    9569 TIP4 O1   OW0      0.000000       15.9990           
   38274 A    9569 TIP4 H1   HW0      0.679100        1.0080           
   38275 A    9569 TIP4 H2   HW0      0.679100        1.0080           
   38276 A    9569 TIP4 BD1  LP0     -1.358200        0.0000           
   38277 A    9570 TIP4 O1   OW0      0.000000       15.9990           
   38278 A    9570 TIP4 H1   HW0      0.679100        1.0080           
   38279 A    9570 TIP4 H2   HW0      0.679100        1.0080           
   38280 A    9570 TIP4 BD1  LP0     -1.358200        0.0000           
   38281 A    9571 TIP4 O1   OW0      0.000000       15.9990           
   38282 A    9571 TIP4 H1   HW0      0.679100        1.0080           
   38283 A    9571 TIP4 H2   HW0      0.679100        1.0080           
   38284 A    9571 TIP4 BD1  LP0     -1.358200        0.0000           
   38285 A    9572 TIP4 O1   OW0      0.000000       15.9990           
   38286 A    9572 TIP4 H1   HW0      0.679100        1.0080           
   38287 A    9572 TIP4 H2   HW0      0.679100        1.0080           
   38288 A    9572 TIP4 BD1  LP0     -1.358200        0.0000           
   38289 A    9573 TIP4 O1   OW0      0.000000       15.9990           
   38290 A    9573 TIP4 H1   HW0      0.679100        1.0080           
   38291 A    9573 TIP4 H2   HW0      0.679100        1.0080           
   38292 A    9573 TIP4 BD1  LP0     -1.358200        0.0000           
   38293 A    9574 TIP4 O1   OW0      0.000000       15.9990           
   38294 A    9574 TIP4 H1   HW0      0.679100        1.0080           
   38295 A    9574 TIP4 H2   HW0      0.679100        1.0080           
   38296 A    9574 TIP4 BD1  LP0     -1.358200        0.0000           
   38297 A    9575 TIP4 O1   OW0      0.000000       15.9990           
   38298 A    9575 TIP4 H1   HW0      0.679100        1.0080           
   38299 A    9575 TIP4 H2   HW0      0.679100        1.0080           
   38300 A    9575 TIP4 BD1  LP0     -1.358200        0.0000           
   38301 A    9576 TIP4 O1   OW0      0.000000       15.9990           
   38302 A    9576 TIP4 H1   HW0      0.679100        1.0080           
   38303 A    9576 TIP4 H2   HW0      0.679100        1.0080           
   38304 A    9576 TIP4 BD1  LP0     -1.358200        0.0000           
   38305 A    9577 TIP4 O1   OW0      0.000000       15.9990           
   38306 A    9577 TIP4 H1   HW0      0.679100        1.0080           
   38307 A    9577 TIP4 H2   HW0      0.679100        1.0080           
   38308 A    9577 TIP4 BD1  LP0     -1.358200        0.0000           
   38309 A    9578 TIP4 O1   OW0      0.000000       15.9990           
   38310 A    9578 TIP4 H1   HW0      0.679100        1.0080           
   38311 A    9578 TIP4 H2   HW0      0.679100        1.0080           
   38312 A    9578 TIP4 BD1  LP0     -1.358200        0.0000           
   38313 A    9579 TIP4 O1   OW0      0.000000       15.9990           
   38314 A    9579 TIP4 H1   HW0      0.679100        1.0080           
   38315 A    9579 TIP4 H2   HW0      0.679100        1.0080           
   38316 A    9579 TIP4 BD1  LP0     -1.358200        0.0000           
   38317 A    9580 TIP4 O1   OW0      0.000000       15.9990           
   38318 A    9580 TIP4 H1   HW0      0.679100        1.0080           
   38319 A    9580 TIP4 H2   HW0      0.679100        1.0080           
   38320 A    9580 TIP4 BD1  LP0     -1.358200        0.0000           
   38321 A    9581 TIP4 O1   OW0      0.000000       15.9990           
   38322 A    9581 TIP4 H1   HW0      0.679100        1.0080           
   38323 A    9581 TIP4 H2   HW0      0.679100        1.0080           
   38324 A    9581 TIP4 BD1  LP0     -1.358200        0.0000           
   38325 A    9582 TIP4 O1   OW0      0.000000       15.9990           
   38326 A    9582 TIP4 H1   HW0      0.679100        1.0080           
   38327 A    9582 TIP4 H2   HW0      0.679100        1.0080           
   38328 A    9582 TIP4 BD1  LP0     -1.358200        0.0000           
   38329 A    9583 TIP4 O1   OW0      0.000000       15.9990           
   38330 A    9583 TIP4 H1   HW0      0.679100        1.0080           
   38331 A    9583 TIP4 H2   HW0      0.679100        1.0080           
   38332 A    9583 TIP4 BD1  LP0     -1.358200        0.0000           
   38333 A    9584 TIP4 O1   OW0      0.000000       15.9990           
   38334 A    9584 TIP4 H1   HW0      0.679100        1.0080           
   38335 A    9584 TIP4 H2   HW0      0.679100        1.0080           
   38336 A    9584 TIP4 BD1  LP0     -1.358200        0.0000           
   38337 A    9585 TIP4 O1   OW0      0.000000       15.9990           
   38338 A    9585 TIP4 H1   HW0      0.679100        1.0080           
   38339 A    9585 TIP4 H2   HW0      0.679100        1.0080           
   38340 A    9585 TIP4 BD1  LP0     -1.358200        0.0000           
   38341 A    9586 TIP4 O1   OW0      0.000000       15.9990           
   38342 A    9586 TIP4 H1   HW0      0.679100        1.0080           
   38343 A    9586 TIP4 H2   HW0      0.679100        1.0080           
   38344 A    9586 TIP4 BD1  LP0     -1.358200        0.0000           
   38345 A    9587 TIP4 O1   OW0      0.000000       15.9990           
   38346 A    9587 TIP4 H1   HW0      0.679100        1.0080           
   38347 A    9587 TIP4 H2   HW0      0.679100        1.0080           
   38348 A    9587 TIP4 BD1  LP0     -1.358200        0.0000           
   38349 A    9588 TIP4 O1   OW0      0.000000       15.9990           
   38350 A    9588 TIP4 H1   HW0      0.679100        1.0080           
   38351 A    9588 TIP4 H2   HW0      0.679100        1.0080           
   38352 A    9588 TIP4 BD1  LP0     -1.358200        0.0000           
   38353 A    9589 TIP4 O1   OW0      0.000000       15.9990           
   38354 A    9589 TIP4 H1   HW0      0.679100        1.0080           
   38355 A    9589 TIP4 H2   HW0      0.679100        1.0080           
   38356 A    9589 TIP4 BD1  LP0     -1.358200        0.0000           
   38357 A    9590 TIP4 O1   OW0      0.000000       15.9990           
   38358 A    9590 TIP4 H1   HW0      0.679100        1.0080           
   38359 A    9590 TIP4 H2   HW0      0.679100        1.0080           
   38360 A    9590 TIP4 BD1  LP0     -1.358200        0.0000           
   38361 A    9591 TIP4 O1   OW0      0.000000       15.9990           
   38362 A    9591 TIP4 H1   HW0      0.679100        1.0080           
   38363 A    9591 TIP4 H2   HW0      0.679100        1.0080           
   38364 A    9591 TIP4 BD1  LP0     -1.358200        0.0000           
   38365 A    9592 TIP4 O1   OW0      0.000000       15.9990           
   38366 A    9592 TIP4 H1   HW0      0.679100        1.0080           
   38367 A    9592 TIP4 H2   HW0      0.679100        1.0080           
   38368 A    9592 TIP4 BD1  LP0     -1.358200        0.0000           
   38369 A    9593 TIP4 O1   OW0      0.000000       15.9990           
   38370 A    9593 TIP4 H1   HW0      0.679100        1.0080           
   38371 A    9593 TIP4 H2   HW0      0.679100        1.0080           
   38372 A    9593 TIP4 BD1  LP0     -1.358200        0.0000           
   38373 A    9594 TIP4 O1   OW0      0.000000       15.9990           
   38374 A    9594 TIP4 H1   HW0      0.679100        1.0080           
   38375 A    9594 TIP4 H2   HW0      0.679100        1.0080           
   38376 A    9594 TIP4 BD1  LP0     -1.358200        0.0000           
   38377 A    9595 TIP4 O1   OW0      0.000000       15.9990           
   38378 A    9595 TIP4 H1   HW0      0.679100        1.0080           
   38379 A    9595 TIP4 H2   HW0      0.679100        1.0080           
   38380 A    9595 TIP4 BD1  LP0     -1.358200        0.0000           
   38381 A    9596 TIP4 O1   OW0      0.000000       15.9990           
   38382 A    9596 TIP4 H1   HW0      0.679100        1.0080           
   38383 A    9596 TIP4 H2   HW0      0.679100        1.0080           
   38384 A    9596 TIP4 BD1  LP0     -1.358200        0.0000           
   38385 A    9597 TIP4 O1   OW0      0.000000       15.9990           
   38386 A    9597 TIP4 H1   HW0      0.679100        1.0080           
   38387 A    9597 TIP4 H2   HW0      0.679100        1.0080           
   38388 A    9597 TIP4 BD1  LP0     -1.358200        0.0000           
   38389 A    9598 TIP4 O1   OW0      0.000000       15.9990           
   38390 A    9598 TIP4 H1   HW0      0.679100        1.0080           
   38391 A    9598 TIP4 H2   HW0      0.679100        1.0080           
   38392 A    9598 TIP4 BD1  LP0     -1.358200        0.0000           
   38393 A    9599 TIP4 O1   OW0      0.000000       15.9990           
   38394 A    9599 TIP4 H1   HW0      0.679100        1.0080           
   38395 A    9599 TIP4 H2   HW0      0.679100        1.0080           
   38396 A    9599 TIP4 BD1  LP0     -1.358200        0.0000           
   38397 A    9600 TIP4 O1   OW0      0.000000       15.9990           
   38398 A    9600 TIP4 H1   HW0      0.679100        1.0080           
   38399 A    9600 TIP4 H2   HW0      0.679100        1.0080           
   38400 A    9600 TIP4 BD1  LP0     -1.358200        0.0000           
   38401 A    9601 TIP4 O1   OW0      0.000000       15.9990           
   38402 A    9601 TIP4 H1   HW0      0.679100        1.0080           
   38403 A    9601 TIP4 H2   HW0      0.679100        1.0080           
   38404 A    9601 TIP4 BD1  LP0     -1.358200        0.0000           
   38405 A    9602 TIP4 O1   OW0      0.000000       15.9990           
   38406 A    9602 TIP4 H1   HW0      0.679100        1.0080           
   38407 A    9602 TIP4 H2   HW0      0.679100        1.0080           
   38408 A    9602 TIP4 BD1  LP0     -1.358200        0.0000           
   38409 A    9603 TIP4 O1   OW0      0.000000       15.9990           
   38410 A    9603 TIP4 H1   HW0      0.679100        1.0080           
   38411 A    9603 TIP4 H2   HW0      0.679100        1.0080           
   38412 A    9603 TIP4 BD1  LP0     -1.358200        0.0000           
   38413 A    9604 TIP4 O1   OW0      0.000000       15.9990           
   38414 A    9604 TIP4 H1   HW0      0.679100        1.0080           
   38415 A    9604 TIP4 H2   HW0      0.679100        1.0080           
   38416 A    9604 TIP4 BD1  LP0     -1.358200        0.0000           
   38417 A    9605 TIP4 O1   OW0      0.000000       15.9990           
   38418 A    9605 TIP4 H1   HW0      0.679100        1.0080           
   38419 A    9605 TIP4 H2   HW0      0.679100        1.0080           
   38420 A    9605 TIP4 BD1  LP0     -1.358200        0.0000           
   38421 A    9606 TIP4 O1   OW0      0.000000       15.9990           
   38422 A    9606 TIP4 H1   HW0      0.679100        1.0080           
   38423 A    9606 TIP4 H2   HW0      0.679100        1.0080           
   38424 A    9606 TIP4 BD1  LP0     -1.358200        0.0000           
   38425 A    9607 TIP4 O1   OW0      0.000000       15.9990           
   38426 A    9607 TIP4 H1   HW0      0.679100        1.0080           
   38427 A    9607 TIP4 H2   HW0      0.679100        1.0080           
   38428 A    9607 TIP4 BD1  LP0     -1.358200        0.0000           
   38429 A    9608 TIP4 O1   OW0      0.000000       15.9990           
   38430 A    9608 TIP4 H1   HW0      0.679100        1.0080           
   38431 A    9608 TIP4 H2   HW0      0.679100        1.0080           
   38432 A    9608 TIP4 BD1  LP0     -1.358200        0.0000           
   38433 A    9609 TIP4 O1   OW0      0.000000       15.9990           
   38434 A    9609 TIP4 H1   HW0      0.679100        1.0080           
   38435 A    9609 TIP4 H2   HW0      0.679100        1.0080           
   38436 A    9609 TIP4 BD1  LP0     -1.358200        0.0000           
   38437 A    9610 TIP4 O1   OW0      0.000000       15.9990           
   38438 A    9610 TIP4 H1   HW0      0.679100        1.0080           
   38439 A    9610 TIP4 H2   HW0      0.679100        1.0080           
   38440 A    9610 TIP4 BD1  LP0     -1.358200        0.0000           
   38441 A    9611 TIP4 O1   OW0      0.000000       15.9990           
   38442 A    9611 TIP4 H1   HW0      0.679100        1.0080           
   38443 A    9611 TIP4 H2   HW0      0.679100        1.0080           
   38444 A    9611 TIP4 BD1  LP0     -1.358200        0.0000           
   38445 A    9612 TIP4 O1   OW0      0.000000       15.9990           
   38446 A    9612 TIP4 H1   HW0      0.679100        1.0080           
   38447 A    9612 TIP4 H2   HW0      0.679100        1.0080           
   38448 A    9612 TIP4 BD1  LP0     -1.358200        0.0000           
   38449 A    9613 TIP4 O1   OW0      0.000000       15.9990           
   38450 A    9613 TIP4 H1   HW0      0.679100        1.0080           
   38451 A    9613 TIP4 H2   HW0      0.679100        1.0080           
   38452 A    9613 TIP4 BD1  LP0     -1.358200        0.0000           
   38453 A    9614 TIP4 O1   OW0      0.000000       15.9990           
   38454 A    9614 TIP4 H1   HW0      0.679100        1.0080           
   38455 A    9614 TIP4 H2   HW0      0.679100        1.0080           
   38456 A    9614 TIP4 BD1  LP0     -1.358200        0.0000           
   38457 A    9615 TIP4 O1   OW0      0.000000       15.9990           
   38458 A    9615 TIP4 H1   HW0      0.679100        1.0080           
   38459 A    9615 TIP4 H2   HW0      0.679100        1.0080           
   38460 A    9615 TIP4 BD1  LP0     -1.358200        0.0000           
   38461 A    9616 TIP4 O1   OW0      0.000000       15.9990           
   38462 A    9616 TIP4 H1   HW0      0.679100        1.0080           
   38463 A    9616 TIP4 H2   HW0      0.679100        1.0080           
   38464 A    9616 TIP4 BD1  LP0     -1.358200        0.0000           
   38465 A    9617 TIP4 O1   OW0      0.000000       15.9990           
   38466 A    9617 TIP4 H1   HW0      0.679100        1.0080           
   38467 A    9617 TIP4 H2   HW0      0.679100        1.0080           
   38468 A    9617 TIP4 BD1  LP0     -1.358200        0.0000           
   38469 A    9618 TIP4 O1   OW0      0.000000       15.9990           
   38470 A    9618 TIP4 H1   HW0      0.679100        1.0080           
   38471 A    9618 TIP4 H2   HW0      0.679100        1.0080           
   38472 A    9618 TIP4 BD1  LP0     -1.358200        0.0000           
   38473 A    9619 TIP4 O1   OW0      0.000000       15.9990           
   38474 A    9619 TIP4 H1   HW0      0.679100        1.0080           
   38475 A    9619 TIP4 H2   HW0      0.679100        1.0080           
   38476 A    9619 TIP4 BD1  LP0     -1.358200        0.0000           
   38477 A    9620 TIP4 O1   OW0      0.000000       15.9990           
   38478 A    9620 TIP4 H1   HW0      0.679100        1.0080           
   38479 A    9620 TIP4 H2   HW0      0.679100        1.0080           
   38480 A    9620 TIP4 BD1  LP0     -1.358200        0.0000           
   38481 A    9621 TIP4 O1   OW0      0.000000       15.9990           
   38482 A    9621 TIP4 H1   HW0      0.679100        1.0080           
   38483 A    9621 TIP4 H2   HW0      0.679100        1.0080           
   38484 A    9621 TIP4 BD1  LP0     -1.358200        0.0000           
   38485 A    9622 TIP4 O1   OW0      0.000000       15.9990           
   38486 A    9622 TIP4 H1   HW0      0.679100        1.0080           
   38487 A    9622 TIP4 H2   HW0      0.679100        1.0080           
   38488 A    9622 TIP4 BD1  LP0     -1.358200        0.0000           
   38489 A    9623 TIP4 O1   OW0      0.000000       15.9990           
   38490 A    9623 TIP4 H1   HW0      0.679100        1.0080           
   38491 A    9623 TIP4 H2   HW0      0.679100        1.0080           
   38492 A    9623 TIP4 BD1  LP0     -1.358200        0.0000           
   38493 A    9624 TIP4 O1   OW0      0.000000       15.9990           
   38494 A    9624 TIP4 H1   HW0      0.679100        1.0080           
   38495 A    9624 TIP4 H2   HW0      0.679100        1.0080           
   38496 A    9624 TIP4 BD1  LP0     -1.358200        0.0000           
   38497 A    9625 TIP4 O1   OW0      0.000000       15.9990           
   38498 A    9625 TIP4 H1   HW0      0.679100        1.0080           
   38499 A    9625 TIP4 H2   HW0      0.679100        1.0080           
   38500 A    9625 TIP4 BD1  LP0     -1.358200        0.0000           
   38501 A    9626 TIP4 O1   OW0      0.000000       15.9990           
   38502 A    9626 TIP4 H1   HW0      0.679100        1.0080           
   38503 A    9626 TIP4 H2   HW0      0.679100        1.0080           
   38504 A    9626 TIP4 BD1  LP0     -1.358200        0.0000           
   38505 A    9627 TIP4 O1   OW0      0.000000       15.9990           
   38506 A    9627 TIP4 H1   HW0      0.679100        1.0080           
   38507 A    9627 TIP4 H2   HW0      0.679100        1.0080           
   38508 A    9627 TIP4 BD1  LP0     -1.358200        0.0000           
   38509 A    9628 TIP4 O1   OW0      0.000000       15.9990           
   38510 A    9628 TIP4 H1   HW0      0.679100        1.0080           
   38511 A    9628 TIP4 H2   HW0      0.679100        1.0080           
   38512 A    9628 TIP4 BD1  LP0     -1.358200        0.0000           
   38513 A    9629 TIP4 O1   OW0      0.000000       15.9990           
   38514 A    9629 TIP4 H1   HW0      0.679100        1.0080           
   38515 A    9629 TIP4 H2   HW0      0.679100        1.0080           
   38516 A    9629 TIP4 BD1  LP0     -1.358200        0.0000           
   38517 A    9630 TIP4 O1   OW0      0.000000       15.9990           
   38518 A    9630 TIP4 H1   HW0      0.679100        1.0080           
   38519 A    9630 TIP4 H2   HW0      0.679100        1.0080           
   38520 A    9630 TIP4 BD1  LP0     -1.358200        0.0000           
   38521 A    9631 TIP4 O1   OW0      0.000000       15.9990           
   38522 A    9631 TIP4 H1   HW0      0.679100        1.0080           
   38523 A    9631 TIP4 H2   HW0      0.679100        1.0080           
   38524 A    9631 TIP4 BD1  LP0     -1.358200        0.0000           
   38525 A    9632 TIP4 O1   OW0      0.000000       15.9990           
   38526 A    9632 TIP4 H1   HW0      0.679100        1.0080           
   38527 A    9632 TIP4 H2   HW0      0.679100        1.0080           
   38528 A    9632 TIP4 BD1  LP0     -1.358200        0.0000           
   38529 A    9633 TIP4 O1   OW0      0.000000       15.9990           
   38530 A    9633 TIP4 H1   HW0      0.679100        1.0080           
   38531 A    9633 TIP4 H2   HW0      0.679100        1.0080           
   38532 A    9633 TIP4 BD1  LP0     -1.358200        0.0000           
   38533 A    9634 TIP4 O1   OW0      0.000000       15.9990           
   38534 A    9634 TIP4 H1   HW0      0.679100        1.0080           
   38535 A    9634 TIP4 H2   HW0      0.679100        1.0080           
   38536 A    9634 TIP4 BD1  LP0     -1.358200        0.0000           
   38537 A    9635 TIP4 O1   OW0      0.000000       15.9990           
   38538 A    9635 TIP4 H1   HW0      0.679100        1.0080           
   38539 A    9635 TIP4 H2   HW0      0.679100        1.0080           
   38540 A    9635 TIP4 BD1  LP0     -1.358200        0.0000           
   38541 A    9636 TIP4 O1   OW0      0.000000       15.9990           
   38542 A    9636 TIP4 H1   HW0      0.679100        1.0080           
   38543 A    9636 TIP4 H2   HW0      0.679100        1.0080           
   38544 A    9636 TIP4 BD1  LP0     -1.358200        0.0000           
   38545 A    9637 TIP4 O1   OW0      0.000000       15.9990           
   38546 A    9637 TIP4 H1   HW0      0.679100        1.0080           
   38547 A    9637 TIP4 H2   HW0      0.679100        1.0080           
   38548 A    9637 TIP4 BD1  LP0     -1.358200        0.0000           
   38549 A    9638 TIP4 O1   OW0      0.000000       15.9990           
   38550 A    9638 TIP4 H1   HW0      0.679100        1.0080           
   38551 A    9638 TIP4 H2   HW0      0.679100        1.0080           
   38552 A    9638 TIP4 BD1  LP0     -1.358200        0.0000           
   38553 A    9639 TIP4 O1   OW0      0.000000       15.9990           
   38554 A    9639 TIP4 H1   HW0      0.679100        1.0080           
   38555 A    9639 TIP4 H2   HW0      0.679100        1.0080           
   38556 A    9639 TIP4 BD1  LP0     -1.358200        0.0000           
   38557 A    9640 TIP4 O1   OW0      0.000000       15.9990           
   38558 A    9640 TIP4 H1   HW0      0.679100        1.0080           
   38559 A    9640 TIP4 H2   HW0      0.679100        1.0080           
   38560 A    9640 TIP4 BD1  LP0     -1.358200        0.0000           
   38561 A    9641 TIP4 O1   OW0      0.000000       15.9990           
   38562 A    9641 TIP4 H1   HW0      0.679100        1.0080           
   38563 A    9641 TIP4 H2   HW0      0.679100        1.0080           
   38564 A    9641 TIP4 BD1  LP0     -1.358200        0.0000           
   38565 A    9642 TIP4 O1   OW0      0.000000       15.9990           
   38566 A    9642 TIP4 H1   HW0      0.679100        1.0080           
   38567 A    9642 TIP4 H2   HW0      0.679100        1.0080           
   38568 A    9642 TIP4 BD1  LP0     -1.358200        0.0000           
   38569 A    9643 TIP4 O1   OW0      0.000000       15.9990           
   38570 A    9643 TIP4 H1   HW0      0.679100        1.0080           
   38571 A    9643 TIP4 H2   HW0      0.679100        1.0080           
   38572 A    9643 TIP4 BD1  LP0     -1.358200        0.0000           
   38573 A    9644 TIP4 O1   OW0      0.000000       15.9990           
   38574 A    9644 TIP4 H1   HW0      0.679100        1.0080           
   38575 A    9644 TIP4 H2   HW0      0.679100        1.0080           
   38576 A    9644 TIP4 BD1  LP0     -1.358200        0.0000           
   38577 A    9645 TIP4 O1   OW0      0.000000       15.9990           
   38578 A    9645 TIP4 H1   HW0      0.679100        1.0080           
   38579 A    9645 TIP4 H2   HW0      0.679100        1.0080           
   38580 A    9645 TIP4 BD1  LP0     -1.358200        0.0000           
   38581 A    9646 TIP4 O1   OW0      0.000000       15.9990           
   38582 A    9646 TIP4 H1   HW0      0.679100        1.0080           
   38583 A    9646 TIP4 H2   HW0      0.679100        1.0080           
   38584 A    9646 TIP4 BD1  LP0     -1.358200        0.0000           
   38585 A    9647 TIP4 O1   OW0      0.000000       15.9990           
   38586 A    9647 TIP4 H1   HW0      0.679100        1.0080           
   38587 A    9647 TIP4 H2   HW0      0.679100        1.0080           
   38588 A    9647 TIP4 BD1  LP0     -1.358200        0.0000           
   38589 A    9648 TIP4 O1   OW0      0.000000       15.9990           
   38590 A    9648 TIP4 H1   HW0      0.679100        1.0080           
   38591 A    9648 TIP4 H2   HW0      0.679100        1.0080           
   38592 A    9648 TIP4 BD1  LP0     -1.358200        0.0000           
   38593 A    9649 TIP4 O1   OW0      0.000000       15.9990           
   38594 A    9649 TIP4 H1   HW0      0.679100        1.0080           
   38595 A    9649 TIP4 H2   HW0      0.679100        1.0080           
   38596 A    9649 TIP4 BD1  LP0     -1.358200        0.0000           
   38597 A    9650 TIP4 O1   OW0      0.000000       15.9990           
   38598 A    9650 TIP4 H1   HW0      0.679100        1.0080           
   38599 A    9650 TIP4 H2   HW0      0.679100        1.0080           
   38600 A    9650 TIP4 BD1  LP0     -1.358200        0.0000           
   38601 A    9651 TIP4 O1   OW0      0.000000       15.9990           
   38602 A    9651 TIP4 H1   HW0      0.679100        1.0080           
   38603 A    9651 TIP4 H2   HW0      0.679100        1.0080           
   38604 A    9651 TIP4 BD1  LP0     -1.358200        0.0000           
   38605 A    9652 TIP4 O1   OW0      0.000000       15.9990           
   38606 A    9652 TIP4 H1   HW0      0.679100        1.0080           
   38607 A    9652 TIP4 H2   HW0      0.679100        1.0080           
   38608 A    9652 TIP4 BD1  LP0     -1.358200        0.0000           
   38609 A    9653 TIP4 O1   OW0      0.000000       15.9990           
   38610 A    9653 TIP4 H1   HW0      0.679100        1.0080           
   38611 A    9653 TIP4 H2   HW0      0.679100        1.0080           
   38612 A    9653 TIP4 BD1  LP0     -1.358200        0.0000           
   38613 A    9654 TIP4 O1   OW0      0.000000       15.9990           
   38614 A    9654 TIP4 H1   HW0      0.679100        1.0080           
   38615 A    9654 TIP4 H2   HW0      0.679100        1.0080           
   38616 A    9654 TIP4 BD1  LP0     -1.358200        0.0000           
   38617 A    9655 TIP4 O1   OW0      0.000000       15.9990           
   38618 A    9655 TIP4 H1   HW0      0.679100        1.0080           
   38619 A    9655 TIP4 H2   HW0      0.679100        1.0080           
   38620 A    9655 TIP4 BD1  LP0     -1.358200        0.0000           
   38621 A    9656 TIP4 O1   OW0      0.000000       15.9990           
   38622 A    9656 TIP4 H1   HW0      0.679100        1.0080           
   38623 A    9656 TIP4 H2   HW0      0.679100        1.0080           
   38624 A    9656 TIP4 BD1  LP0     -1.358200        0.0000           
   38625 A    9657 TIP4 O1   OW0      0.000000       15.9990           
   38626 A    9657 TIP4 H1   HW0      0.679100        1.0080           
   38627 A    9657 TIP4 H2   HW0      0.679100        1.0080           
   38628 A    9657 TIP4 BD1  LP0     -1.358200        0.0000           
   38629 A    9658 TIP4 O1   OW0      0.000000       15.9990           
   38630 A    9658 TIP4 H1   HW0      0.679100        1.0080           
   38631 A    9658 TIP4 H2   HW0      0.679100        1.0080           
   38632 A    9658 TIP4 BD1  LP0     -1.358200        0.0000           
   38633 A    9659 TIP4 O1   OW0      0.000000       15.9990           
   38634 A    9659 TIP4 H1   HW0      0.679100        1.0080           
   38635 A    9659 TIP4 H2   HW0      0.679100        1.0080           
   38636 A    9659 TIP4 BD1  LP0     -1.358200        0.0000           
   38637 A    9660 TIP4 O1   OW0      0.000000       15.9990           
   38638 A    9660 TIP4 H1   HW0      0.679100        1.0080           
   38639 A    9660 TIP4 H2   HW0      0.679100        1.0080           
   38640 A    9660 TIP4 BD1  LP0     -1.358200        0.0000           
   38641 A    9661 TIP4 O1   OW0      0.000000       15.9990           
   38642 A    9661 TIP4 H1   HW0      0.679100        1.0080           
   38643 A    9661 TIP4 H2   HW0      0.679100        1.0080           
   38644 A    9661 TIP4 BD1  LP0     -1.358200        0.0000           
   38645 A    9662 TIP4 O1   OW0      0.000000       15.9990           
   38646 A    9662 TIP4 H1   HW0      0.679100        1.0080           
   38647 A    9662 TIP4 H2   HW0      0.679100        1.0080           
   38648 A    9662 TIP4 BD1  LP0     -1.358200        0.0000           
   38649 A    9663 TIP4 O1   OW0      0.000000       15.9990           
   38650 A    9663 TIP4 H1   HW0      0.679100        1.0080           
   38651 A    9663 TIP4 H2   HW0      0.679100        1.0080           
   38652 A    9663 TIP4 BD1  LP0     -1.358200        0.0000           
   38653 A    9664 TIP4 O1   OW0      0.000000       15.9990           
   38654 A    9664 TIP4 H1   HW0      0.679100        1.0080           
   38655 A    9664 TIP4 H2   HW0      0.679100        1.0080           
   38656 A    9664 TIP4 BD1  LP0     -1.358200        0.0000           
   38657 A    9665 TIP4 O1   OW0      0.000000       15.9990           
   38658 A    9665 TIP4 H1   HW0      0.679100        1.0080           
   38659 A    9665 TIP4 H2   HW0      0.679100        1.0080           
   38660 A    9665 TIP4 BD1  LP0     -1.358200        0.0000           
   38661 A    9666 TIP4 O1   OW0      0.000000       15.9990           
   38662 A    9666 TIP4 H1   HW0      0.679100        1.0080           
   38663 A    9666 TIP4 H2   HW0      0.679100        1.0080           
   38664 A    9666 TIP4 BD1  LP0     -1.358200        0.0000           
   38665 A    9667 TIP4 O1   OW0      0.000000       15.9990           
   38666 A    9667 TIP4 H1   HW0      0.679100        1.0080           
   38667 A    9667 TIP4 H2   HW0      0.679100        1.0080           
   38668 A    9667 TIP4 BD1  LP0     -1.358200        0.0000           
   38669 A    9668 TIP4 O1   OW0      0.000000       15.9990           
   38670 A    9668 TIP4 H1   HW0      0.679100        1.0080           
   38671 A    9668 TIP4 H2   HW0      0.679100        1.0080           
   38672 A    9668 TIP4 BD1  LP0     -1.358200        0.0000           
   38673 A    9669 TIP4 O1   OW0      0.000000       15.9990           
   38674 A    9669 TIP4 H1   HW0      0.679100        1.0080           
   38675 A    9669 TIP4 H2   HW0      0.679100        1.0080           
   38676 A    9669 TIP4 BD1  LP0     -1.358200        0.0000           
   38677 A    9670 TIP4 O1   OW0      0.000000       15.9990           
   38678 A    9670 TIP4 H1   HW0      0.679100        1.0080           
   38679 A    9670 TIP4 H2   HW0      0.679100        1.0080           
   38680 A    9670 TIP4 BD1  LP0     -1.358200        0.0000           
   38681 A    9671 TIP4 O1   OW0      0.000000       15.9990           
   38682 A    9671 TIP4 H1   HW0      0.679100        1.0080           
   38683 A    9671 TIP4 H2   HW0      0.679100        1.0080           
   38684 A    9671 TIP4 BD1  LP0     -1.358200        0.0000           
   38685 A    9672 TIP4 O1   OW0      0.000000       15.9990           
   38686 A    9672 TIP4 H1   HW0      0.679100        1.0080           
   38687 A    9672 TIP4 H2   HW0      0.679100        1.0080           
   38688 A    9672 TIP4 BD1  LP0     -1.358200        0.0000           
   38689 A    9673 TIP4 O1   OW0      0.000000       15.9990           
   38690 A    9673 TIP4 H1   HW0      0.679100        1.0080           
   38691 A    9673 TIP4 H2   HW0      0.679100        1.0080           
   38692 A    9673 TIP4 BD1  LP0     -1.358200        0.0000           
   38693 A    9674 TIP4 O1   OW0      0.000000       15.9990           
   38694 A    9674 TIP4 H1   HW0      0.679100        1.0080           
   38695 A    9674 TIP4 H2   HW0      0.679100        1.0080           
   38696 A    9674 TIP4 BD1  LP0     -1.358200        0.0000           
   38697 A    9675 TIP4 O1   OW0      0.000000       15.9990           
   38698 A    9675 TIP4 H1   HW0      0.679100        1.0080           
   38699 A    9675 TIP4 H2   HW0      0.679100        1.0080           
   38700 A    9675 TIP4 BD1  LP0     -1.358200        0.0000           
   38701 A    9676 TIP4 O1   OW0      0.000000       15.9990           
   38702 A    9676 TIP4 H1   HW0      0.679100        1.0080           
   38703 A    9676 TIP4 H2   HW0      0.679100        1.0080           
   38704 A    9676 TIP4 BD1  LP0     -1.358200        0.0000           
   38705 A    9677 TIP4 O1   OW0      0.000000       15.9990           
   38706 A    9677 TIP4 H1   HW0      0.679100        1.0080           
   38707 A    9677 TIP4 H2   HW0      0.679100        1.0080           
   38708 A    9677 TIP4 BD1  LP0     -1.358200        0.0000           
   38709 A    9678 TIP4 O1   OW0      0.000000       15.9990           
   38710 A    9678 TIP4 H1   HW0      0.679100        1.0080           
   38711 A    9678 TIP4 H2   HW0      0.679100        1.0080           
   38712 A    9678 TIP4 BD1  LP0     -1.358200        0.0000           
   38713 A    9679 TIP4 O1   OW0      0.000000       15.9990           
   38714 A    9679 TIP4 H1   HW0      0.679100        1.0080           
   38715 A    9679 TIP4 H2   HW0      0.679100        1.0080           
   38716 A    9679 TIP4 BD1  LP0     -1.358200        0.0000           
   38717 A    9680 TIP4 O1   OW0      0.000000       15.9990           
   38718 A    9680 TIP4 H1   HW0      0.679100        1.0080           
   38719 A    9680 TIP4 H2   HW0      0.679100        1.0080           
   38720 A    9680 TIP4 BD1  LP0     -1.358200        0.0000           
   38721 A    9681 TIP4 O1   OW0      0.000000       15.9990           
   38722 A    9681 TIP4 H1   HW0      0.679100        1.0080           
   38723 A    9681 TIP4 H2   HW0      0.679100        1.0080           
   38724 A    9681 TIP4 BD1  LP0     -1.358200        0.0000           
   38725 A    9682 TIP4 O1   OW0      0.000000       15.9990           
   38726 A    9682 TIP4 H1   HW0      0.679100        1.0080           
   38727 A    9682 TIP4 H2   HW0      0.679100        1.0080           
   38728 A    9682 TIP4 BD1  LP0     -1.358200        0.0000           
   38729 A    9683 TIP4 O1   OW0      0.000000       15.9990           
   38730 A    9683 TIP4 H1   HW0      0.679100        1.0080           
   38731 A    9683 TIP4 H2   HW0      0.679100        1.0080           
   38732 A    9683 TIP4 BD1  LP0     -1.358200        0.0000           
   38733 A    9684 TIP4 O1   OW0      0.000000       15.9990           
   38734 A    9684 TIP4 H1   HW0      0.679100        1.0080           
   38735 A    9684 TIP4 H2   HW0      0.679100        1.0080           
   38736 A    9684 TIP4 BD1  LP0     -1.358200        0.0000           
   38737 A    9685 TIP4 O1   OW0      0.000000       15.9990           
   38738 A    9685 TIP4 H1   HW0      0.679100        1.0080           
   38739 A    9685 TIP4 H2   HW0      0.679100        1.0080           
   38740 A    9685 TIP4 BD1  LP0     -1.358200        0.0000           
   38741 A    9686 TIP4 O1   OW0      0.000000       15.9990           
   38742 A    9686 TIP4 H1   HW0      0.679100        1.0080           
   38743 A    9686 TIP4 H2   HW0      0.679100        1.0080           
   38744 A    9686 TIP4 BD1  LP0     -1.358200        0.0000           
   38745 A    9687 TIP4 O1   OW0      0.000000       15.9990           
   38746 A    9687 TIP4 H1   HW0      0.679100        1.0080           
   38747 A    9687 TIP4 H2   HW0      0.679100        1.0080           
   38748 A    9687 TIP4 BD1  LP0     -1.358200        0.0000           
   38749 A    9688 TIP4 O1   OW0      0.000000       15.9990           
   38750 A    9688 TIP4 H1   HW0      0.679100        1.0080           
   38751 A    9688 TIP4 H2   HW0      0.679100        1.0080           
   38752 A    9688 TIP4 BD1  LP0     -1.358200        0.0000           
   38753 A    9689 TIP4 O1   OW0      0.000000       15.9990           
   38754 A    9689 TIP4 H1   HW0      0.679100        1.0080           
   38755 A    9689 TIP4 H2   HW0      0.679100        1.0080           
   38756 A    9689 TIP4 BD1  LP0     -1.358200        0.0000           
   38757 A    9690 TIP4 O1   OW0      0.000000       15.9990           
   38758 A    9690 TIP4 H1   HW0      0.679100        1.0080           
   38759 A    9690 TIP4 H2   HW0      0.679100        1.0080           
   38760 A    9690 TIP4 BD1  LP0     -1.358200        0.0000           
   38761 A    9691 TIP4 O1   OW0      0.000000       15.9990           
   38762 A    9691 TIP4 H1   HW0      0.679100        1.0080           
   38763 A    9691 TIP4 H2   HW0      0.679100        1.0080           
   38764 A    9691 TIP4 BD1  LP0     -1.358200        0.0000           
   38765 A    9692 TIP4 O1   OW0      0.000000       15.9990           
   38766 A    9692 TIP4 H1   HW0      0.679100        1.0080           
   38767 A    9692 TIP4 H2   HW0      0.679100        1.0080           
   38768 A    9692 TIP4 BD1  LP0     -1.358200        0.0000           
   38769 A    9693 TIP4 O1   OW0      0.000000       15.9990           
   38770 A    9693 TIP4 H1   HW0      0.679100        1.0080           
   38771 A    9693 TIP4 H2   HW0      0.679100        1.0080           
   38772 A    9693 TIP4 BD1  LP0     -1.358200        0.0000           
   38773 A    9694 TIP4 O1   OW0      0.000000       15.9990           
   38774 A    9694 TIP4 H1   HW0      0.679100        1.0080           
   38775 A    9694 TIP4 H2   HW0      0.679100        1.0080           
   38776 A    9694 TIP4 BD1  LP0     -1.358200        0.0000           
   38777 A    9695 TIP4 O1   OW0      0.000000       15.9990           
   38778 A    9695 TIP4 H1   HW0      0.679100        1.0080           
   38779 A    9695 TIP4 H2   HW0      0.679100        1.0080           
   38780 A    9695 TIP4 BD1  LP0     -1.358200        0.0000           
   38781 A    9696 TIP4 O1   OW0      0.000000       15.9990           
   38782 A    9696 TIP4 H1   HW0      0.679100        1.0080           
   38783 A    9696 TIP4 H2   HW0      0.679100        1.0080           
   38784 A    9696 TIP4 BD1  LP0     -1.358200        0.0000           
   38785 A    9697 TIP4 O1   OW0      0.000000       15.9990           
   38786 A    9697 TIP4 H1   HW0      0.679100        1.0080           
   38787 A    9697 TIP4 H2   HW0      0.679100        1.0080           
   38788 A    9697 TIP4 BD1  LP0     -1.358200        0.0000           
   38789 A    9698 TIP4 O1   OW0      0.000000       15.9990           
   38790 A    9698 TIP4 H1   HW0      0.679100        1.0080           
   38791 A    9698 TIP4 H2   HW0      0.679100        1.0080           
   38792 A    9698 TIP4 BD1  LP0     -1.358200        0.0000           
   38793 A    9699 TIP4 O1   OW0      0.000000       15.9990           
   38794 A    9699 TIP4 H1   HW0      0.679100        1.0080           
   38795 A    9699 TIP4 H2   HW0      0.679100        1.0080           
   38796 A    9699 TIP4 BD1  LP0     -1.358200        0.0000           
   38797 A    9700 TIP4 O1   OW0      0.000000       15.9990           
   38798 A    9700 TIP4 H1   HW0      0.679100        1.0080           
   38799 A    9700 TIP4 H2   HW0      0.679100        1.0080           
   38800 A    9700 TIP4 BD1  LP0     -1.358200        0.0000           
   38801 A    9701 TIP4 O1   OW0      0.000000       15.9990           
   38802 A    9701 TIP4 H1   HW0      0.679100        1.0080           
   38803 A    9701 TIP4 H2   HW0      0.679100        1.0080           
   38804 A    9701 TIP4 BD1  LP0     -1.358200        0.0000           
   38805 A    9702 TIP4 O1   OW0      0.000000       15.9990           
   38806 A    9702 TIP4 H1   HW0      0.679100        1.0080           
   38807 A    9702 TIP4 H2   HW0      0.679100        1.0080           
   38808 A    9702 TIP4 BD1  LP0     -1.358200        0.0000           
   38809 A    9703 TIP4 O1   OW0      0.000000       15.9990           
   38810 A    9703 TIP4 H1   HW0      0.679100        1.0080           
   38811 A    9703 TIP4 H2   HW0      0.679100        1.0080           
   38812 A    9703 TIP4 BD1  LP0     -1.358200        0.0000           
   38813 A    9704 TIP4 O1   OW0      0.000000       15.9990           
   38814 A    9704 TIP4 H1   HW0      0.679100        1.0080           
   38815 A    9704 TIP4 H2   HW0      0.679100        1.0080           
   38816 A    9704 TIP4 BD1  LP0     -1.358200        0.0000           
   38817 A    9705 TIP4 O1   OW0      0.000000       15.9990           
   38818 A    9705 TIP4 H1   HW0      0.679100        1.0080           
   38819 A    9705 TIP4 H2   HW0      0.679100        1.0080           
   38820 A    9705 TIP4 BD1  LP0     -1.358200        0.0000           
   38821 A    9706 TIP4 O1   OW0      0.000000       15.9990           
   38822 A    9706 TIP4 H1   HW0      0.679100        1.0080           
   38823 A    9706 TIP4 H2   HW0      0.679100        1.0080           
   38824 A    9706 TIP4 BD1  LP0     -1.358200        0.0000           
   38825 A    9707 TIP4 O1   OW0      0.000000       15.9990           
   38826 A    9707 TIP4 H1   HW0      0.679100        1.0080           
   38827 A    9707 TIP4 H2   HW0      0.679100        1.0080           
   38828 A    9707 TIP4 BD1  LP0     -1.358200        0.0000           
   38829 A    9708 TIP4 O1   OW0      0.000000       15.9990           
   38830 A    9708 TIP4 H1   HW0      0.679100        1.0080           
   38831 A    9708 TIP4 H2   HW0      0.679100        1.0080           
   38832 A    9708 TIP4 BD1  LP0     -1.358200        0.0000           
   38833 A    9709 TIP4 O1   OW0      0.000000       15.9990           
   38834 A    9709 TIP4 H1   HW0      0.679100        1.0080           
   38835 A    9709 TIP4 H2   HW0      0.679100        1.0080           
   38836 A    9709 TIP4 BD1  LP0     -1.358200        0.0000           
   38837 A    9710 TIP4 O1   OW0      0.000000       15.9990           
   38838 A    9710 TIP4 H1   HW0      0.679100        1.0080           
   38839 A    9710 TIP4 H2   HW0      0.679100        1.0080           
   38840 A    9710 TIP4 BD1  LP0     -1.358200        0.0000           
   38841 A    9711 TIP4 O1   OW0      0.000000       15.9990           
   38842 A    9711 TIP4 H1   HW0      0.679100        1.0080           
   38843 A    9711 TIP4 H2   HW0      0.679100        1.0080           
   38844 A    9711 TIP4 BD1  LP0     -1.358200        0.0000           
   38845 A    9712 TIP4 O1   OW0      0.000000       15.9990           
   38846 A    9712 TIP4 H1   HW0      0.679100        1.0080           
   38847 A    9712 TIP4 H2   HW0      0.679100        1.0080           
   38848 A    9712 TIP4 BD1  LP0     -1.358200        0.0000           
   38849 A    9713 TIP4 O1   OW0      0.000000       15.9990           
   38850 A    9713 TIP4 H1   HW0      0.679100        1.0080           
   38851 A    9713 TIP4 H2   HW0      0.679100        1.0080           
   38852 A    9713 TIP4 BD1  LP0     -1.358200        0.0000           
   38853 A    9714 TIP4 O1   OW0      0.000000       15.9990           
   38854 A    9714 TIP4 H1   HW0      0.679100        1.0080           
   38855 A    9714 TIP4 H2   HW0      0.679100        1.0080           
   38856 A    9714 TIP4 BD1  LP0     -1.358200        0.0000           
   38857 A    9715 TIP4 O1   OW0      0.000000       15.9990           
   38858 A    9715 TIP4 H1   HW0      0.679100        1.0080           
   38859 A    9715 TIP4 H2   HW0      0.679100        1.0080           
   38860 A    9715 TIP4 BD1  LP0     -1.358200        0.0000           
   38861 A    9716 TIP4 O1   OW0      0.000000       15.9990           
   38862 A    9716 TIP4 H1   HW0      0.679100        1.0080           
   38863 A    9716 TIP4 H2   HW0      0.679100        1.0080           
   38864 A    9716 TIP4 BD1  LP0     -1.358200        0.0000           
   38865 A    9717 TIP4 O1   OW0      0.000000       15.9990           
   38866 A    9717 TIP4 H1   HW0      0.679100        1.0080           
   38867 A    9717 TIP4 H2   HW0      0.679100        1.0080           
   38868 A    9717 TIP4 BD1  LP0     -1.358200        0.0000           
   38869 A    9718 TIP4 O1   OW0      0.000000       15.9990           
   38870 A    9718 TIP4 H1   HW0      0.679100        1.0080           
   38871 A    9718 TIP4 H2   HW0      0.679100        1.0080           
   38872 A    9718 TIP4 BD1  LP0     -1.358200        0.0000           
   38873 A    9719 TIP4 O1   OW0      0.000000       15.9990           
   38874 A    9719 TIP4 H1   HW0      0.679100        1.0080           
   38875 A    9719 TIP4 H2   HW0      0.679100        1.0080           
   38876 A    9719 TIP4 BD1  LP0     -1.358200        0.0000           
   38877 A    9720 TIP4 O1   OW0      0.000000       15.9990           
   38878 A    9720 TIP4 H1   HW0      0.679100        1.0080           
   38879 A    9720 TIP4 H2   HW0      0.679100        1.0080           
   38880 A    9720 TIP4 BD1  LP0     -1.358200        0.0000           
   38881 A    9721 TIP4 O1   OW0      0.000000       15.9990           
   38882 A    9721 TIP4 H1   HW0      0.679100        1.0080           
   38883 A    9721 TIP4 H2   HW0      0.679100        1.0080           
   38884 A    9721 TIP4 BD1  LP0     -1.358200        0.0000           
   38885 A    9722 TIP4 O1   OW0      0.000000       15.9990           
   38886 A    9722 TIP4 H1   HW0      0.679100        1.0080           
   38887 A    9722 TIP4 H2   HW0      0.679100        1.0080           
   38888 A    9722 TIP4 BD1  LP0     -1.358200        0.0000           
   38889 A    9723 TIP4 O1   OW0      0.000000       15.9990           
   38890 A    9723 TIP4 H1   HW0      0.679100        1.0080           
   38891 A    9723 TIP4 H2   HW0      0.679100        1.0080           
   38892 A    9723 TIP4 BD1  LP0     -1.358200        0.0000           
   38893 A    9724 TIP4 O1   OW0      0.000000       15.9990           
   38894 A    9724 TIP4 H1   HW0      0.679100        1.0080           
   38895 A    9724 TIP4 H2   HW0      0.679100        1.0080           
   38896 A    9724 TIP4 BD1  LP0     -1.358200        0.0000           
   38897 A    9725 TIP4 O1   OW0      0.000000       15.9990           
   38898 A    9725 TIP4 H1   HW0      0.679100        1.0080           
   38899 A    9725 TIP4 H2   HW0      0.679100        1.0080           
   38900 A    9725 TIP4 BD1  LP0     -1.358200        0.0000           
   38901 A    9726 TIP4 O1   OW0      0.000000       15.9990           
   38902 A    9726 TIP4 H1   HW0      0.679100        1.0080           
   38903 A    9726 TIP4 H2   HW0      0.679100        1.0080           
   38904 A    9726 TIP4 BD1  LP0     -1.358200        0.0000           
   38905 A    9727 TIP4 O1   OW0      0.000000       15.9990           
   38906 A    9727 TIP4 H1   HW0      0.679100        1.0080           
   38907 A    9727 TIP4 H2   HW0      0.679100        1.0080           
   38908 A    9727 TIP4 BD1  LP0     -1.358200        0.0000           
   38909 A    9728 TIP4 O1   OW0      0.000000       15.9990           
   38910 A    9728 TIP4 H1   HW0      0.679100        1.0080           
   38911 A    9728 TIP4 H2   HW0      0.679100        1.0080           
   38912 A    9728 TIP4 BD1  LP0     -1.358200        0.0000           
   38913 A    9729 TIP4 O1   OW0      0.000000       15.9990           
   38914 A    9729 TIP4 H1   HW0      0.679100        1.0080           
   38915 A    9729 TIP4 H2   HW0      0.679100        1.0080           
   38916 A    9729 TIP4 BD1  LP0     -1.358200        0.0000           
   38917 A    9730 TIP4 O1   OW0      0.000000       15.9990           
   38918 A    9730 TIP4 H1   HW0      0.679100        1.0080           
   38919 A    9730 TIP4 H2   HW0      0.679100        1.0080           
   38920 A    9730 TIP4 BD1  LP0     -1.358200        0.0000           
   38921 A    9731 TIP4 O1   OW0      0.000000       15.9990           
   38922 A    9731 TIP4 H1   HW0      0.679100        1.0080           
   38923 A    9731 TIP4 H2   HW0      0.679100        1.0080           
   38924 A    9731 TIP4 BD1  LP0     -1.358200        0.0000           
   38925 A    9732 TIP4 O1   OW0      0.000000       15.9990           
   38926 A    9732 TIP4 H1   HW0      0.679100        1.0080           
   38927 A    9732 TIP4 H2   HW0      0.679100        1.0080           
   38928 A    9732 TIP4 BD1  LP0     -1.358200        0.0000           
   38929 A    9733 TIP4 O1   OW0      0.000000       15.9990           
   38930 A    9733 TIP4 H1   HW0      0.679100        1.0080           
   38931 A    9733 TIP4 H2   HW0      0.679100        1.0080           
   38932 A    9733 TIP4 BD1  LP0     -1.358200        0.0000           
   38933 A    9734 TIP4 O1   OW0      0.000000       15.9990           
   38934 A    9734 TIP4 H1   HW0      0.679100        1.0080           
   38935 A    9734 TIP4 H2   HW0      0.679100        1.0080           
   38936 A    9734 TIP4 BD1  LP0     -1.358200        0.0000           
   38937 A    9735 TIP4 O1   OW0      0.000000       15.9990           
   38938 A    9735 TIP4 H1   HW0      0.679100        1.0080           
   38939 A    9735 TIP4 H2   HW0      0.679100        1.0080           
   38940 A    9735 TIP4 BD1  LP0     -1.358200        0.0000           
   38941 A    9736 TIP4 O1   OW0      0.000000       15.9990           
   38942 A    9736 TIP4 H1   HW0      0.679100        1.0080           
   38943 A    9736 TIP4 H2   HW0      0.679100        1.0080           
   38944 A    9736 TIP4 BD1  LP0     -1.358200        0.0000           
   38945 A    9737 TIP4 O1   OW0      0.000000       15.9990           
   38946 A    9737 TIP4 H1   HW0      0.679100        1.0080           
   38947 A    9737 TIP4 H2   HW0      0.679100        1.0080           
   38948 A    9737 TIP4 BD1  LP0     -1.358200        0.0000           
   38949 A    9738 TIP4 O1   OW0      0.000000       15.9990           
   38950 A    9738 TIP4 H1   HW0      0.679100        1.0080           
   38951 A    9738 TIP4 H2   HW0      0.679100        1.0080           
   38952 A    9738 TIP4 BD1  LP0     -1.358200        0.0000           
   38953 A    9739 TIP4 O1   OW0      0.000000       15.9990           
   38954 A    9739 TIP4 H1   HW0      0.679100        1.0080           
   38955 A    9739 TIP4 H2   HW0      0.679100        1.0080           
   38956 A    9739 TIP4 BD1  LP0     -1.358200        0.0000           
   38957 A    9740 TIP4 O1   OW0      0.000000       15.9990           
   38958 A    9740 TIP4 H1   HW0      0.679100        1.0080           
   38959 A    9740 TIP4 H2   HW0      0.679100        1.0080           
   38960 A    9740 TIP4 BD1  LP0     -1.358200        0.0000           
   38961 A    9741 TIP4 O1   OW0      0.000000       15.9990           
   38962 A    9741 TIP4 H1   HW0      0.679100        1.0080           
   38963 A    9741 TIP4 H2   HW0      0.679100        1.0080           
   38964 A    9741 TIP4 BD1  LP0     -1.358200        0.0000           
   38965 A    9742 TIP4 O1   OW0      0.000000       15.9990           
   38966 A    9742 TIP4 H1   HW0      0.679100        1.0080           
   38967 A    9742 TIP4 H2   HW0      0.679100        1.0080           
   38968 A    9742 TIP4 BD1  LP0     -1.358200        0.0000           
   38969 A    9743 TIP4 O1   OW0      0.000000       15.9990           
   38970 A    9743 TIP4 H1   HW0      0.679100        1.0080           
   38971 A    9743 TIP4 H2   HW0      0.679100        1.0080           
   38972 A    9743 TIP4 BD1  LP0     -1.358200        0.0000           
   38973 A    9744 TIP4 O1   OW0      0.000000       15.9990           
   38974 A    9744 TIP4 H1   HW0      0.679100        1.0080           
   38975 A    9744 TIP4 H2   HW0      0.679100        1.0080           
   38976 A    9744 TIP4 BD1  LP0     -1.358200        0.0000           
   38977 A    9745 TIP4 O1   OW0      0.000000       15.9990           
   38978 A    9745 TIP4 H1   HW0      0.679100        1.0080           
   38979 A    9745 TIP4 H2   HW0      0.679100        1.0080           
   38980 A    9745 TIP4 BD1  LP0     -1.358200        0.0000           
   38981 A    9746 TIP4 O1   OW0      0.000000       15.9990           
   38982 A    9746 TIP4 H1   HW0      0.679100        1.0080           
   38983 A    9746 TIP4 H2   HW0      0.679100        1.0080           
   38984 A    9746 TIP4 BD1  LP0     -1.358200        0.0000           
   38985 A    9747 TIP4 O1   OW0      0.000000       15.9990           
   38986 A    9747 TIP4 H1   HW0      0.679100        1.0080           
   38987 A    9747 TIP4 H2   HW0      0.679100        1.0080           
   38988 A    9747 TIP4 BD1  LP0     -1.358200        0.0000           
   38989 A    9748 TIP4 O1   OW0      0.000000       15.9990           
   38990 A    9748 TIP4 H1   HW0      0.679100        1.0080           
   38991 A    9748 TIP4 H2   HW0      0.679100        1.0080           
   38992 A    9748 TIP4 BD1  LP0     -1.358200        0.0000           
   38993 A    9749 TIP4 O1   OW0      0.000000       15.9990           
   38994 A    9749 TIP4 H1   HW0      0.679100        1.0080           
   38995 A    9749 TIP4 H2   HW0      0.679100        1.0080           
   38996 A    9749 TIP4 BD1  LP0     -1.358200        0.0000           
   38997 A    9750 TIP4 O1   OW0      0.000000       15.9990           
   38998 A    9750 TIP4 H1   HW0      0.679100        1.0080           
   38999 A    9750 TIP4 H2   HW0      0.679100        1.0080           
   39000 A    9750 TIP4 BD1  LP0     -1.358200        0.0000           
   39001 A    9751 TIP4 O1   OW0      0.000000       15.9990           
   39002 A    9751 TIP4 H1   HW0      0.679100        1.0080           
   39003 A    9751 TIP4 H2   HW0      0.679100        1.0080           
   39004 A    9751 TIP4 BD1  LP0     -1.358200        0.0000           
   39005 A    9752 TIP4 O1   OW0      0.000000       15.9990           
   39006 A    9752 TIP4 H1   HW0      0.679100        1.0080           
   39007 A    9752 TIP4 H2   HW0      0.679100        1.0080           
   39008 A    9752 TIP4 BD1  LP0     -1.358200        0.0000           
   39009 A    9753 TIP4 O1   OW0      0.000000       15.9990           
   39010 A    9753 TIP4 H1   HW0      0.679100        1.0080           
   39011 A    9753 TIP4 H2   HW0      0.679100        1.0080           
   39012 A    9753 TIP4 BD1  LP0     -1.358200        0.0000           
   39013 A    9754 TIP4 O1   OW0      0.000000       15.9990           
   39014 A    9754 TIP4 H1   HW0      0.679100        1.0080           
   39015 A    9754 TIP4 H2   HW0      0.679100        1.0080           
   39016 A    9754 TIP4 BD1  LP0     -1.358200        0.0000           
   39017 A    9755 TIP4 O1   OW0      0.000000       15.9990           
   39018 A    9755 TIP4 H1   HW0      0.679100        1.0080           
   39019 A    9755 TIP4 H2   HW0      0.679100        1.0080           
   39020 A    9755 TIP4 BD1  LP0     -1.358200        0.0000           
   39021 A    9756 TIP4 O1   OW0      0.000000       15.9990           
   39022 A    9756 TIP4 H1   HW0      0.679100        1.0080           
   39023 A    9756 TIP4 H2   HW0      0.679100        1.0080           
   39024 A    9756 TIP4 BD1  LP0     -1.358200        0.0000           
   39025 A    9757 TIP4 O1   OW0      0.000000       15.9990           
   39026 A    9757 TIP4 H1   HW0      0.679100        1.0080           
   39027 A    9757 TIP4 H2   HW0      0.679100        1.0080           
   39028 A    9757 TIP4 BD1  LP0     -1.358200        0.0000           
   39029 A    9758 TIP4 O1   OW0      0.000000       15.9990           
   39030 A    9758 TIP4 H1   HW0      0.679100        1.0080           
   39031 A    9758 TIP4 H2   HW0      0.679100        1.0080           
   39032 A    9758 TIP4 BD1  LP0     -1.358200        0.0000           
   39033 A    9759 TIP4 O1   OW0      0.000000       15.9990           
   39034 A    9759 TIP4 H1   HW0      0.679100        1.0080           
   39035 A    9759 TIP4 H2   HW0      0.679100        1.0080           
   39036 A    9759 TIP4 BD1  LP0     -1.358200        0.0000           
   39037 A    9760 TIP4 O1   OW0      0.000000       15.9990           
   39038 A    9760 TIP4 H1   HW0      0.679100        1.0080           
   39039 A    9760 TIP4 H2   HW0      0.679100        1.0080           
   39040 A    9760 TIP4 BD1  LP0     -1.358200        0.0000           
   39041 A    9761 TIP4 O1   OW0      0.000000       15.9990           
   39042 A    9761 TIP4 H1   HW0      0.679100        1.0080           
   39043 A    9761 TIP4 H2   HW0      0.679100        1.0080           
   39044 A    9761 TIP4 BD1  LP0     -1.358200        0.0000           
   39045 A    9762 TIP4 O1   OW0      0.000000       15.9990           
   39046 A    9762 TIP4 H1   HW0      0.679100        1.0080           
   39047 A    9762 TIP4 H2   HW0      0.679100        1.0080           
   39048 A    9762 TIP4 BD1  LP0     -1.358200        0.0000           
   39049 A    9763 TIP4 O1   OW0      0.000000       15.9990           
   39050 A    9763 TIP4 H1   HW0      0.679100        1.0080           
   39051 A    9763 TIP4 H2   HW0      0.679100        1.0080           
   39052 A    9763 TIP4 BD1  LP0     -1.358200        0.0000           
   39053 A    9764 TIP4 O1   OW0      0.000000       15.9990           
   39054 A    9764 TIP4 H1   HW0      0.679100        1.0080           
   39055 A    9764 TIP4 H2   HW0      0.679100        1.0080           
   39056 A    9764 TIP4 BD1  LP0     -1.358200        0.0000           
   39057 A    9765 TIP4 O1   OW0      0.000000       15.9990           
   39058 A    9765 TIP4 H1   HW0      0.679100        1.0080           
   39059 A    9765 TIP4 H2   HW0      0.679100        1.0080           
   39060 A    9765 TIP4 BD1  LP0     -1.358200        0.0000           
   39061 A    9766 TIP4 O1   OW0      0.000000       15.9990           
   39062 A    9766 TIP4 H1   HW0      0.679100        1.0080           
   39063 A    9766 TIP4 H2   HW0      0.679100        1.0080           
   39064 A    9766 TIP4 BD1  LP0     -1.358200        0.0000           
   39065 A    9767 TIP4 O1   OW0      0.000000       15.9990           
   39066 A    9767 TIP4 H1   HW0      0.679100        1.0080           
   39067 A    9767 TIP4 H2   HW0      0.679100        1.0080           
   39068 A    9767 TIP4 BD1  LP0     -1.358200        0.0000           
   39069 A    9768 TIP4 O1   OW0      0.000000       15.9990           
   39070 A    9768 TIP4 H1   HW0      0.679100        1.0080           
   39071 A    9768 TIP4 H2   HW0      0.679100        1.0080           
   39072 A    9768 TIP4 BD1  LP0     -1.358200        0.0000           
   39073 A    9769 TIP4 O1   OW0      0.000000       15.9990           
   39074 A    9769 TIP4 H1   HW0      0.679100        1.0080           
   39075 A    9769 TIP4 H2   HW0      0.679100        1.0080           
   39076 A    9769 TIP4 BD1  LP0     -1.358200        0.0000           
   39077 A    9770 TIP4 O1   OW0      0.000000       15.9990           
   39078 A    9770 TIP4 H1   HW0      0.679100        1.0080           
   39079 A    9770 TIP4 H2   HW0      0.679100        1.0080           
   39080 A    9770 TIP4 BD1  LP0     -1.358200        0.0000           
   39081 A    9771 TIP4 O1   OW0      0.000000       15.9990           
   39082 A    9771 TIP4 H1   HW0      0.679100        1.0080           
   39083 A    9771 TIP4 H2   HW0      0.679100        1.0080           
   39084 A    9771 TIP4 BD1  LP0     -1.358200        0.0000           
   39085 A    9772 TIP4 O1   OW0      0.000000       15.9990           
   39086 A    9772 TIP4 H1   HW0      0.679100        1.0080           
   39087 A    9772 TIP4 H2   HW0      0.679100        1.0080           
   39088 A    9772 TIP4 BD1  LP0     -1.358200        0.0000           
   39089 A    9773 TIP4 O1   OW0      0.000000       15.9990           
   39090 A    9773 TIP4 H1   HW0      0.679100        1.0080           
   39091 A    9773 TIP4 H2   HW0      0.679100        1.0080           
   39092 A    9773 TIP4 BD1  LP0     -1.358200        0.0000           
   39093 A    9774 TIP4 O1   OW0      0.000000       15.9990           
   39094 A    9774 TIP4 H1   HW0      0.679100        1.0080           
   39095 A    9774 TIP4 H2   HW0      0.679100        1.0080           
   39096 A    9774 TIP4 BD1  LP0     -1.358200        0.0000           
   39097 A    9775 TIP4 O1   OW0      0.000000       15.9990           
   39098 A    9775 TIP4 H1   HW0      0.679100        1.0080           
   39099 A    9775 TIP4 H2   HW0      0.679100        1.0080           
   39100 A    9775 TIP4 BD1  LP0     -1.358200        0.0000           
   39101 A    9776 TIP4 O1   OW0      0.000000       15.9990           
   39102 A    9776 TIP4 H1   HW0      0.679100        1.0080           
   39103 A    9776 TIP4 H2   HW0      0.679100        1.0080           
   39104 A    9776 TIP4 BD1  LP0     -1.358200        0.0000           
   39105 A    9777 TIP4 O1   OW0      0.000000       15.9990           
   39106 A    9777 TIP4 H1   HW0      0.679100        1.0080           
   39107 A    9777 TIP4 H2   HW0      0.679100        1.0080           
   39108 A    9777 TIP4 BD1  LP0     -1.358200        0.0000           
   39109 A    9778 TIP4 O1   OW0      0.000000       15.9990           
   39110 A    9778 TIP4 H1   HW0      0.679100        1.0080           
   39111 A    9778 TIP4 H2   HW0      0.679100        1.0080           
   39112 A    9778 TIP4 BD1  LP0     -1.358200        0.0000           
   39113 A    9779 TIP4 O1   OW0      0.000000       15.9990           
   39114 A    9779 TIP4 H1   HW0      0.679100        1.0080           
   39115 A    9779 TIP4 H2   HW0      0.679100        1.0080           
   39116 A    9779 TIP4 BD1  LP0     -1.358200        0.0000           
   39117 A    9780 TIP4 O1   OW0      0.000000       15.9990           
   39118 A    9780 TIP4 H1   HW0      0.679100        1.0080           
   39119 A    9780 TIP4 H2   HW0      0.679100        1.0080           
   39120 A    9780 TIP4 BD1  LP0     -1.358200        0.0000           
   39121 A    9781 TIP4 O1   OW0      0.000000       15.9990           
   39122 A    9781 TIP4 H1   HW0      0.679100        1.0080           
   39123 A    9781 TIP4 H2   HW0      0.679100        1.0080           
   39124 A    9781 TIP4 BD1  LP0     -1.358200        0.0000           
   39125 A    9782 TIP4 O1   OW0      0.000000       15.9990           
   39126 A    9782 TIP4 H1   HW0      0.679100        1.0080           
   39127 A    9782 TIP4 H2   HW0      0.679100        1.0080           
   39128 A    9782 TIP4 BD1  LP0     -1.358200        0.0000           
   39129 A    9783 TIP4 O1   OW0      0.000000       15.9990           
   39130 A    9783 TIP4 H1   HW0      0.679100        1.0080           
   39131 A    9783 TIP4 H2   HW0      0.679100        1.0080           
   39132 A    9783 TIP4 BD1  LP0     -1.358200        0.0000           
   39133 A    9784 TIP4 O1   OW0      0.000000       15.9990           
   39134 A    9784 TIP4 H1   HW0      0.679100        1.0080           
   39135 A    9784 TIP4 H2   HW0      0.679100        1.0080           
   39136 A    9784 TIP4 BD1  LP0     -1.358200        0.0000           
   39137 A    9785 TIP4 O1   OW0      0.000000       15.9990           
   39138 A    9785 TIP4 H1   HW0      0.679100        1.0080           
   39139 A    9785 TIP4 H2   HW0      0.679100        1.0080           
   39140 A    9785 TIP4 BD1  LP0     -1.358200        0.0000           
   39141 A    9786 TIP4 O1   OW0      0.000000       15.9990           
   39142 A    9786 TIP4 H1   HW0      0.679100        1.0080           
   39143 A    9786 TIP4 H2   HW0      0.679100        1.0080           
   39144 A    9786 TIP4 BD1  LP0     -1.358200        0.0000           
   39145 A    9787 TIP4 O1   OW0      0.000000       15.9990           
   39146 A    9787 TIP4 H1   HW0      0.679100        1.0080           
   39147 A    9787 TIP4 H2   HW0      0.679100        1.0080           
   39148 A    9787 TIP4 BD1  LP0     -1.358200        0.0000           
   39149 A    9788 TIP4 O1   OW0      0.000000       15.9990           
   39150 A    9788 TIP4 H1   HW0      0.679100        1.0080           
   39151 A    9788 TIP4 H2   HW0      0.679100        1.0080           
   39152 A    9788 TIP4 BD1  LP0     -1.358200        0.0000           
   39153 A    9789 TIP4 O1   OW0      0.000000       15.9990           
   39154 A    9789 TIP4 H1   HW0      0.679100        1.0080           
   39155 A    9789 TIP4 H2   HW0      0.679100        1.0080           
   39156 A    9789 TIP4 BD1  LP0     -1.358200        0.0000           
   39157 A    9790 TIP4 O1   OW0      0.000000       15.9990           
   39158 A    9790 TIP4 H1   HW0      0.679100        1.0080           
   39159 A    9790 TIP4 H2   HW0      0.679100        1.0080           
   39160 A    9790 TIP4 BD1  LP0     -1.358200        0.0000           
   39161 A    9791 TIP4 O1   OW0      0.000000       15.9990           
   39162 A    9791 TIP4 H1   HW0      0.679100        1.0080           
   39163 A    9791 TIP4 H2   HW0      0.679100        1.0080           
   39164 A    9791 TIP4 BD1  LP0     -1.358200        0.0000           
   39165 A    9792 TIP4 O1   OW0      0.000000       15.9990           
   39166 A    9792 TIP4 H1   HW0      0.679100        1.0080           
   39167 A    9792 TIP4 H2   HW0      0.679100        1.0080           
   39168 A    9792 TIP4 BD1  LP0     -1.358200        0.0000           
   39169 A    9793 TIP4 O1   OW0      0.000000       15.9990           
   39170 A    9793 TIP4 H1   HW0      0.679100        1.0080           
   39171 A    9793 TIP4 H2   HW0      0.679100        1.0080           
   39172 A    9793 TIP4 BD1  LP0     -1.358200        0.0000           
   39173 A    9794 TIP4 O1   OW0      0.000000       15.9990           
   39174 A    9794 TIP4 H1   HW0      0.679100        1.0080           
   39175 A    9794 TIP4 H2   HW0      0.679100        1.0080           
   39176 A    9794 TIP4 BD1  LP0     -1.358200        0.0000           
   39177 A    9795 TIP4 O1   OW0      0.000000       15.9990           
   39178 A    9795 TIP4 H1   HW0      0.679100        1.0080           
   39179 A    9795 TIP4 H2   HW0      0.679100        1.0080           
   39180 A    9795 TIP4 BD1  LP0     -1.358200        0.0000           
   39181 A    9796 TIP4 O1   OW0      0.000000       15.9990           
   39182 A    9796 TIP4 H1   HW0      0.679100        1.0080           
   39183 A    9796 TIP4 H2   HW0      0.679100        1.0080           
   39184 A    9796 TIP4 BD1  LP0     -1.358200        0.0000           
   39185 A    9797 TIP4 O1   OW0      0.000000       15.9990           
   39186 A    9797 TIP4 H1   HW0      0.679100        1.0080           
   39187 A    9797 TIP4 H2   HW0      0.679100        1.0080           
   39188 A    9797 TIP4 BD1  LP0     -1.358200        0.0000           
   39189 A    9798 TIP4 O1   OW0      0.000000       15.9990           
   39190 A    9798 TIP4 H1   HW0      0.679100        1.0080           
   39191 A    9798 TIP4 H2   HW0      0.679100        1.0080           
   39192 A    9798 TIP4 BD1  LP0     -1.358200        0.0000           
   39193 A    9799 TIP4 O1   OW0      0.000000       15.9990           
   39194 A    9799 TIP4 H1   HW0      0.679100        1.0080           
   39195 A    9799 TIP4 H2   HW0      0.679100        1.0080           
   39196 A    9799 TIP4 BD1  LP0     -1.358200        0.0000           
   39197 A    9800 TIP4 O1   OW0      0.000000       15.9990           
   39198 A    9800 TIP4 H1   HW0      0.679100        1.0080           
   39199 A    9800 TIP4 H2   HW0      0.679100        1.0080           
   39200 A    9800 TIP4 BD1  LP0     -1.358200        0.0000           
   39201 A    9801 TIP4 O1   OW0      0.000000       15.9990           
   39202 A    9801 TIP4 H1   HW0      0.679100        1.0080           
   39203 A    9801 TIP4 H2   HW0      0.679100        1.0080           
   39204 A    9801 TIP4 BD1  LP0     -1.358200        0.0000           
   39205 A    9802 TIP4 O1   OW0      0.000000       15.9990           
   39206 A    9802 TIP4 H1   HW0      0.679100        1.0080           
   39207 A    9802 TIP4 H2   HW0      0.679100        1.0080           
   39208 A    9802 TIP4 BD1  LP0     -1.358200        0.0000           
   39209 A    9803 TIP4 O1   OW0      0.000000       15.9990           
   39210 A    9803 TIP4 H1   HW0      0.679100        1.0080           
   39211 A    9803 TIP4 H2   HW0      0.679100        1.0080           
   39212 A    9803 TIP4 BD1  LP0     -1.358200        0.0000           
   39213 A    9804 TIP4 O1   OW0      0.000000       15.9990           
   39214 A    9804 TIP4 H1   HW0      0.679100        1.0080           
   39215 A    9804 TIP4 H2   HW0      0.679100        1.0080           
   39216 A    9804 TIP4 BD1  LP0     -1.358200        0.0000           
   39217 A    9805 TIP4 O1   OW0      0.000000       15.9990           
   39218 A    9805 TIP4 H1   HW0      0.679100        1.0080           
   39219 A    9805 TIP4 H2   HW0      0.679100        1.0080           
   39220 A    9805 TIP4 BD1  LP0     -1.358200        0.0000           
   39221 A    9806 TIP4 O1   OW0      0.000000       15.9990           
   39222 A    9806 TIP4 H1   HW0      0.679100        1.0080           
   39223 A    9806 TIP4 H2   HW0      0.679100        1.0080           
   39224 A    9806 TIP4 BD1  LP0     -1.358200        0.0000           
   39225 A    9807 TIP4 O1   OW0      0.000000       15.9990           
   39226 A    9807 TIP4 H1   HW0      0.679100        1.0080           
   39227 A    9807 TIP4 H2   HW0      0.679100        1.0080           
   39228 A    9807 TIP4 BD1  LP0     -1.358200        0.0000           
   39229 A    9808 TIP4 O1   OW0      0.000000       15.9990           
   39230 A    9808 TIP4 H1   HW0      0.679100        1.0080           
   39231 A    9808 TIP4 H2   HW0      0.679100        1.0080           
   39232 A    9808 TIP4 BD1  LP0     -1.358200        0.0000           
   39233 A    9809 TIP4 O1   OW0      0.000000       15.9990           
   39234 A    9809 TIP4 H1   HW0      0.679100        1.0080           
   39235 A    9809 TIP4 H2   HW0      0.679100        1.0080           
   39236 A    9809 TIP4 BD1  LP0     -1.358200        0.0000           
   39237 A    9810 TIP4 O1   OW0      0.000000       15.9990           
   39238 A    9810 TIP4 H1   HW0      0.679100        1.0080           
   39239 A    9810 TIP4 H2   HW0      0.679100        1.0080           
   39240 A    9810 TIP4 BD1  LP0     -1.358200        0.0000           
   39241 A    9811 TIP4 O1   OW0      0.000000       15.9990           
   39242 A    9811 TIP4 H1   HW0      0.679100        1.0080           
   39243 A    9811 TIP4 H2   HW0      0.679100        1.0080           
   39244 A    9811 TIP4 BD1  LP0     -1.358200        0.0000           
   39245 A    9812 TIP4 O1   OW0      0.000000       15.9990           
   39246 A    9812 TIP4 H1   HW0      0.679100        1.0080           
   39247 A    9812 TIP4 H2   HW0      0.679100        1.0080           
   39248 A    9812 TIP4 BD1  LP0     -1.358200        0.0000           
   39249 A    9813 TIP4 O1   OW0      0.000000       15.9990           
   39250 A    9813 TIP4 H1   HW0      0.679100        1.0080           
   39251 A    9813 TIP4 H2   HW0      0.679100        1.0080           
   39252 A    9813 TIP4 BD1  LP0     -1.358200        0.0000           
   39253 A    9814 TIP4 O1   OW0      0.000000       15.9990           
   39254 A    9814 TIP4 H1   HW0      0.679100        1.0080           
   39255 A    9814 TIP4 H2   HW0      0.679100        1.0080           
   39256 A    9814 TIP4 BD1  LP0     -1.358200        0.0000           
   39257 A    9815 TIP4 O1   OW0      0.000000       15.9990           
   39258 A    9815 TIP4 H1   HW0      0.679100        1.0080           
   39259 A    9815 TIP4 H2   HW0      0.679100        1.0080           
   39260 A    9815 TIP4 BD1  LP0     -1.358200        0.0000           
   39261 A    9816 TIP4 O1   OW0      0.000000       15.9990           
   39262 A    9816 TIP4 H1   HW0      0.679100        1.0080           
   39263 A    9816 TIP4 H2   HW0      0.679100        1.0080           
   39264 A    9816 TIP4 BD1  LP0     -1.358200        0.0000           
   39265 A    9817 TIP4 O1   OW0      0.000000       15.9990           
   39266 A    9817 TIP4 H1   HW0      0.679100        1.0080           
   39267 A    9817 TIP4 H2   HW0      0.679100        1.0080           
   39268 A    9817 TIP4 BD1  LP0     -1.358200        0.0000           
   39269 A    9818 TIP4 O1   OW0      0.000000       15.9990           
   39270 A    9818 TIP4 H1   HW0      0.679100        1.0080           
   39271 A    9818 TIP4 H2   HW0      0.679100        1.0080           
   39272 A    9818 TIP4 BD1  LP0     -1.358200        0.0000           
   39273 A    9819 TIP4 O1   OW0      0.000000       15.9990           
   39274 A    9819 TIP4 H1   HW0      0.679100        1.0080           
   39275 A    9819 TIP4 H2   HW0      0.679100        1.0080           
   39276 A    9819 TIP4 BD1  LP0     -1.358200        0.0000           
   39277 A    9820 TIP4 O1   OW0      0.000000       15.9990           
   39278 A    9820 TIP4 H1   HW0      0.679100        1.0080           
   39279 A    9820 TIP4 H2   HW0      0.679100        1.0080           
   39280 A    9820 TIP4 BD1  LP0     -1.358200        0.0000           
   39281 A    9821 TIP4 O1   OW0      0.000000       15.9990           
   39282 A    9821 TIP4 H1   HW0      0.679100        1.0080           
   39283 A    9821 TIP4 H2   HW0      0.679100        1.0080           
   39284 A    9821 TIP4 BD1  LP0     -1.358200        0.0000           
   39285 A    9822 TIP4 O1   OW0      0.000000       15.9990           
   39286 A    9822 TIP4 H1   HW0      0.679100        1.0080           
   39287 A    9822 TIP4 H2   HW0      0.679100        1.0080           
   39288 A    9822 TIP4 BD1  LP0     -1.358200        0.0000           
   39289 A    9823 TIP4 O1   OW0      0.000000       15.9990           
   39290 A    9823 TIP4 H1   HW0      0.679100        1.0080           
   39291 A    9823 TIP4 H2   HW0      0.679100        1.0080           
   39292 A    9823 TIP4 BD1  LP0     -1.358200        0.0000           
   39293 A    9824 TIP4 O1   OW0      0.000000       15.9990           
   39294 A    9824 TIP4 H1   HW0      0.679100        1.0080           
   39295 A    9824 TIP4 H2   HW0      0.679100        1.0080           
   39296 A    9824 TIP4 BD1  LP0     -1.358200        0.0000           
   39297 A    9825 TIP4 O1   OW0      0.000000       15.9990           
   39298 A    9825 TIP4 H1   HW0      0.679100        1.0080           
   39299 A    9825 TIP4 H2   HW0      0.679100        1.0080           
   39300 A    9825 TIP4 BD1  LP0     -1.358200        0.0000           
   39301 A    9826 TIP4 O1   OW0      0.000000       15.9990           
   39302 A    9826 TIP4 H1   HW0      0.679100        1.0080           
   39303 A    9826 TIP4 H2   HW0      0.679100        1.0080           
   39304 A    9826 TIP4 BD1  LP0     -1.358200        0.0000           
   39305 A    9827 TIP4 O1   OW0      0.000000       15.9990           
   39306 A    9827 TIP4 H1   HW0      0.679100        1.0080           
   39307 A    9827 TIP4 H2   HW0      0.679100        1.0080           
   39308 A    9827 TIP4 BD1  LP0     -1.358200        0.0000           
   39309 A    9828 TIP4 O1   OW0      0.000000       15.9990           
   39310 A    9828 TIP4 H1   HW0      0.679100        1.0080           
   39311 A    9828 TIP4 H2   HW0      0.679100        1.0080           
   39312 A    9828 TIP4 BD1  LP0     -1.358200        0.0000           
   39313 A    9829 TIP4 O1   OW0      0.000000       15.9990           
   39314 A    9829 TIP4 H1   HW0      0.679100        1.0080           
   39315 A    9829 TIP4 H2   HW0      0.679100        1.0080           
   39316 A    9829 TIP4 BD1  LP0     -1.358200        0.0000           
   39317 A    9830 TIP4 O1   OW0      0.000000       15.9990           
   39318 A    9830 TIP4 H1   HW0      0.679100        1.0080           
   39319 A    9830 TIP4 H2   HW0      0.679100        1.0080           
   39320 A    9830 TIP4 BD1  LP0     -1.358200        0.0000           
   39321 A    9831 TIP4 O1   OW0      0.000000       15.9990           
   39322 A    9831 TIP4 H1   HW0      0.679100        1.0080           
   39323 A    9831 TIP4 H2   HW0      0.679100        1.0080           
   39324 A    9831 TIP4 BD1  LP0     -1.358200        0.0000           
   39325 A    9832 TIP4 O1   OW0      0.000000       15.9990           
   39326 A    9832 TIP4 H1   HW0      0.679100        1.0080           
   39327 A    9832 TIP4 H2   HW0      0.679100        1.0080           
   39328 A    9832 TIP4 BD1  LP0     -1.358200        0.0000           
   39329 A    9833 TIP4 O1   OW0      0.000000       15.9990           
   39330 A    9833 TIP4 H1   HW0      0.679100        1.0080           
   39331 A    9833 TIP4 H2   HW0      0.679100        1.0080           
   39332 A    9833 TIP4 BD1  LP0     -1.358200        0.0000           
   39333 A    9834 TIP4 O1   OW0      0.000000       15.9990           
   39334 A    9834 TIP4 H1   HW0      0.679100        1.0080           
   39335 A    9834 TIP4 H2   HW0      0.679100        1.0080           
   39336 A    9834 TIP4 BD1  LP0     -1.358200        0.0000           
   39337 A    9835 TIP4 O1   OW0      0.000000       15.9990           
   39338 A    9835 TIP4 H1   HW0      0.679100        1.0080           
   39339 A    9835 TIP4 H2   HW0      0.679100        1.0080           
   39340 A    9835 TIP4 BD1  LP0     -1.358200        0.0000           
   39341 A    9836 TIP4 O1   OW0      0.000000       15.9990           
   39342 A    9836 TIP4 H1   HW0      0.679100        1.0080           
   39343 A    9836 TIP4 H2   HW0      0.679100        1.0080           
   39344 A    9836 TIP4 BD1  LP0     -1.358200        0.0000           
   39345 A    9837 TIP4 O1   OW0      0.000000       15.9990           
   39346 A    9837 TIP4 H1   HW0      0.679100        1.0080           
   39347 A    9837 TIP4 H2   HW0      0.679100        1.0080           
   39348 A    9837 TIP4 BD1  LP0     -1.358200        0.0000           
   39349 A    9838 TIP4 O1   OW0      0.000000       15.9990           
   39350 A    9838 TIP4 H1   HW0      0.679100        1.0080           
   39351 A    9838 TIP4 H2   HW0      0.679100        1.0080           
   39352 A    9838 TIP4 BD1  LP0     -1.358200        0.0000           
   39353 A    9839 TIP4 O1   OW0      0.000000       15.9990           
   39354 A    9839 TIP4 H1   HW0      0.679100        1.0080           
   39355 A    9839 TIP4 H2   HW0      0.679100        1.0080           
   39356 A    9839 TIP4 BD1  LP0     -1.358200        0.0000           
   39357 A    9840 TIP4 O1   OW0      0.000000       15.9990           
   39358 A    9840 TIP4 H1   HW0      0.679100        1.0080           
   39359 A    9840 TIP4 H2   HW0      0.679100        1.0080           
   39360 A    9840 TIP4 BD1  LP0     -1.358200        0.0000           
   39361 A    9841 TIP4 O1   OW0      0.000000       15.9990           
   39362 A    9841 TIP4 H1   HW0      0.679100        1.0080           
   39363 A    9841 TIP4 H2   HW0      0.679100        1.0080           
   39364 A    9841 TIP4 BD1  LP0     -1.358200        0.0000           
   39365 A    9842 TIP4 O1   OW0      0.000000       15.9990           
   39366 A    9842 TIP4 H1   HW0      0.679100        1.0080           
   39367 A    9842 TIP4 H2   HW0      0.679100        1.0080           
   39368 A    9842 TIP4 BD1  LP0     -1.358200        0.0000           
   39369 A    9843 TIP4 O1   OW0      0.000000       15.9990           
   39370 A    9843 TIP4 H1   HW0      0.679100        1.0080           
   39371 A    9843 TIP4 H2   HW0      0.679100        1.0080           
   39372 A    9843 TIP4 BD1  LP0     -1.358200        0.0000           
   39373 A    9844 TIP4 O1   OW0      0.000000       15.9990           
   39374 A    9844 TIP4 H1   HW0      0.679100        1.0080           
   39375 A    9844 TIP4 H2   HW0      0.679100        1.0080           
   39376 A    9844 TIP4 BD1  LP0     -1.358200        0.0000           
   39377 A    9845 TIP4 O1   OW0      0.000000       15.9990           
   39378 A    9845 TIP4 H1   HW0      0.679100        1.0080           
   39379 A    9845 TIP4 H2   HW0      0.679100        1.0080           
   39380 A    9845 TIP4 BD1  LP0     -1.358200        0.0000           
   39381 A    9846 TIP4 O1   OW0      0.000000       15.9990           
   39382 A    9846 TIP4 H1   HW0      0.679100        1.0080           
   39383 A    9846 TIP4 H2   HW0      0.679100        1.0080           
   39384 A    9846 TIP4 BD1  LP0     -1.358200        0.0000           
   39385 A    9847 TIP4 O1   OW0      0.000000       15.9990           
   39386 A    9847 TIP4 H1   HW0      0.679100        1.0080           
   39387 A    9847 TIP4 H2   HW0      0.679100        1.0080           
   39388 A    9847 TIP4 BD1  LP0     -1.358200        0.0000           
   39389 A    9848 TIP4 O1   OW0      0.000000       15.9990           
   39390 A    9848 TIP4 H1   HW0      0.679100        1.0080           
   39391 A    9848 TIP4 H2   HW0      0.679100        1.0080           
   39392 A    9848 TIP4 BD1  LP0     -1.358200        0.0000           
   39393 A    9849 TIP4 O1   OW0      0.000000       15.9990           
   39394 A    9849 TIP4 H1   HW0      0.679100        1.0080           
   39395 A    9849 TIP4 H2   HW0      0.679100        1.0080           
   39396 A    9849 TIP4 BD1  LP0     -1.358200        0.0000           
   39397 A    9850 TIP4 O1   OW0      0.000000       15.9990           
   39398 A    9850 TIP4 H1   HW0      0.679100        1.0080           
   39399 A    9850 TIP4 H2   HW0      0.679100        1.0080           
   39400 A    9850 TIP4 BD1  LP0     -1.358200        0.0000           
   39401 A    9851 TIP4 O1   OW0      0.000000       15.9990           
   39402 A    9851 TIP4 H1   HW0      0.679100        1.0080           
   39403 A    9851 TIP4 H2   HW0      0.679100        1.0080           
   39404 A    9851 TIP4 BD1  LP0     -1.358200        0.0000           
   39405 A    9852 TIP4 O1   OW0      0.000000       15.9990           
   39406 A    9852 TIP4 H1   HW0      0.679100        1.0080           
   39407 A    9852 TIP4 H2   HW0      0.679100        1.0080           
   39408 A    9852 TIP4 BD1  LP0     -1.358200        0.0000           
   39409 A    9853 TIP4 O1   OW0      0.000000       15.9990           
   39410 A    9853 TIP4 H1   HW0      0.679100        1.0080           
   39411 A    9853 TIP4 H2   HW0      0.679100        1.0080           
   39412 A    9853 TIP4 BD1  LP0     -1.358200        0.0000           
   39413 A    9854 TIP4 O1   OW0      0.000000       15.9990           
   39414 A    9854 TIP4 H1   HW0      0.679100        1.0080           
   39415 A    9854 TIP4 H2   HW0      0.679100        1.0080           
   39416 A    9854 TIP4 BD1  LP0     -1.358200        0.0000           
   39417 A    9855 TIP4 O1   OW0      0.000000       15.9990           
   39418 A    9855 TIP4 H1   HW0      0.679100        1.0080           
   39419 A    9855 TIP4 H2   HW0      0.679100        1.0080           
   39420 A    9855 TIP4 BD1  LP0     -1.358200        0.0000           
   39421 A    9856 TIP4 O1   OW0      0.000000       15.9990           
   39422 A    9856 TIP4 H1   HW0      0.679100        1.0080           
   39423 A    9856 TIP4 H2   HW0      0.679100        1.0080           
   39424 A    9856 TIP4 BD1  LP0     -1.358200        0.0000           
   39425 A    9857 TIP4 O1   OW0      0.000000       15.9990           
   39426 A    9857 TIP4 H1   HW0      0.679100        1.0080           
   39427 A    9857 TIP4 H2   HW0      0.679100        1.0080           
   39428 A    9857 TIP4 BD1  LP0     -1.358200        0.0000           
   39429 A    9858 TIP4 O1   OW0      0.000000       15.9990           
   39430 A    9858 TIP4 H1   HW0      0.679100        1.0080           
   39431 A    9858 TIP4 H2   HW0      0.679100        1.0080           
   39432 A    9858 TIP4 BD1  LP0     -1.358200        0.0000           
   39433 A    9859 TIP4 O1   OW0      0.000000       15.9990           
   39434 A    9859 TIP4 H1   HW0      0.679100        1.0080           
   39435 A    9859 TIP4 H2   HW0      0.679100        1.0080           
   39436 A    9859 TIP4 BD1  LP0     -1.358200        0.0000           
   39437 A    9860 TIP4 O1   OW0      0.000000       15.9990           
   39438 A    9860 TIP4 H1   HW0      0.679100        1.0080           
   39439 A    9860 TIP4 H2   HW0      0.679100        1.0080           
   39440 A    9860 TIP4 BD1  LP0     -1.358200        0.0000           
   39441 A    9861 TIP4 O1   OW0      0.000000       15.9990           
   39442 A    9861 TIP4 H1   HW0      0.679100        1.0080           
   39443 A    9861 TIP4 H2   HW0      0.679100        1.0080           
   39444 A    9861 TIP4 BD1  LP0     -1.358200        0.0000           
   39445 A    9862 TIP4 O1   OW0      0.000000       15.9990           
   39446 A    9862 TIP4 H1   HW0      0.679100        1.0080           
   39447 A    9862 TIP4 H2   HW0      0.679100        1.0080           
   39448 A    9862 TIP4 BD1  LP0     -1.358200        0.0000           
   39449 A    9863 TIP4 O1   OW0      0.000000       15.9990           
   39450 A    9863 TIP4 H1   HW0      0.679100        1.0080           
   39451 A    9863 TIP4 H2   HW0      0.679100        1.0080           
   39452 A    9863 TIP4 BD1  LP0     -1.358200        0.0000           
   39453 A    9864 TIP4 O1   OW0      0.000000       15.9990           
   39454 A    9864 TIP4 H1   HW0      0.679100        1.0080           
   39455 A    9864 TIP4 H2   HW0      0.679100        1.0080           
   39456 A    9864 TIP4 BD1  LP0     -1.358200        0.0000           
   39457 A    9865 TIP4 O1   OW0      0.000000       15.9990           
   39458 A    9865 TIP4 H1   HW0      0.679100        1.0080           
   39459 A    9865 TIP4 H2   HW0      0.679100        1.0080           
   39460 A    9865 TIP4 BD1  LP0     -1.358200        0.0000           
   39461 A    9866 TIP4 O1   OW0      0.000000       15.9990           
   39462 A    9866 TIP4 H1   HW0      0.679100        1.0080           
   39463 A    9866 TIP4 H2   HW0      0.679100        1.0080           
   39464 A    9866 TIP4 BD1  LP0     -1.358200        0.0000           
   39465 A    9867 TIP4 O1   OW0      0.000000       15.9990           
   39466 A    9867 TIP4 H1   HW0      0.679100        1.0080           
   39467 A    9867 TIP4 H2   HW0      0.679100        1.0080           
   39468 A    9867 TIP4 BD1  LP0     -1.358200        0.0000           
   39469 A    9868 TIP4 O1   OW0      0.000000       15.9990           
   39470 A    9868 TIP4 H1   HW0      0.679100        1.0080           
   39471 A    9868 TIP4 H2   HW0      0.679100        1.0080           
   39472 A    9868 TIP4 BD1  LP0     -1.358200        0.0000           
   39473 A    9869 TIP4 O1   OW0      0.000000       15.9990           
   39474 A    9869 TIP4 H1   HW0      0.679100        1.0080           
   39475 A    9869 TIP4 H2   HW0      0.679100        1.0080           
   39476 A    9869 TIP4 BD1  LP0     -1.358200        0.0000           
   39477 A    9870 TIP4 O1   OW0      0.000000       15.9990           
   39478 A    9870 TIP4 H1   HW0      0.679100        1.0080           
   39479 A    9870 TIP4 H2   HW0      0.679100        1.0080           
   39480 A    9870 TIP4 BD1  LP0     -1.358200        0.0000           
   39481 A    9871 TIP4 O1   OW0      0.000000       15.9990           
   39482 A    9871 TIP4 H1   HW0      0.679100        1.0080           
   39483 A    9871 TIP4 H2   HW0      0.679100        1.0080           
   39484 A    9871 TIP4 BD1  LP0     -1.358200        0.0000           
   39485 A    9872 TIP4 O1   OW0      0.000000       15.9990           
   39486 A    9872 TIP4 H1   HW0      0.679100        1.0080           
   39487 A    9872 TIP4 H2   HW0      0.679100        1.0080           
   39488 A    9872 TIP4 BD1  LP0     -1.358200        0.0000           
   39489 A    9873 TIP4 O1   OW0      0.000000       15.9990           
   39490 A    9873 TIP4 H1   HW0      0.679100        1.0080           
   39491 A    9873 TIP4 H2   HW0      0.679100        1.0080           
   39492 A    9873 TIP4 BD1  LP0     -1.358200        0.0000           
   39493 A    9874 TIP4 O1   OW0      0.000000       15.9990           
   39494 A    9874 TIP4 H1   HW0      0.679100        1.0080           
   39495 A    9874 TIP4 H2   HW0      0.679100        1.0080           
   39496 A    9874 TIP4 BD1  LP0     -1.358200        0.0000           
   39497 A    9875 TIP4 O1   OW0      0.000000       15.9990           
   39498 A    9875 TIP4 H1   HW0      0.679100        1.0080           
   39499 A    9875 TIP4 H2   HW0      0.679100        1.0080           
   39500 A    9875 TIP4 BD1  LP0     -1.358200        0.0000           
   39501 A    9876 TIP4 O1   OW0      0.000000       15.9990           
   39502 A    9876 TIP4 H1   HW0      0.679100        1.0080           
   39503 A    9876 TIP4 H2   HW0      0.679100        1.0080           
   39504 A    9876 TIP4 BD1  LP0     -1.358200        0.0000           
   39505 A    9877 TIP4 O1   OW0      0.000000       15.9990           
   39506 A    9877 TIP4 H1   HW0      0.679100        1.0080           
   39507 A    9877 TIP4 H2   HW0      0.679100        1.0080           
   39508 A    9877 TIP4 BD1  LP0     -1.358200        0.0000           
   39509 A    9878 TIP4 O1   OW0      0.000000       15.9990           
   39510 A    9878 TIP4 H1   HW0      0.679100        1.0080           
   39511 A    9878 TIP4 H2   HW0      0.679100        1.0080           
   39512 A    9878 TIP4 BD1  LP0     -1.358200        0.0000           
   39513 A    9879 TIP4 O1   OW0      0.000000       15.9990           
   39514 A    9879 TIP4 H1   HW0      0.679100        1.0080           
   39515 A    9879 TIP4 H2   HW0      0.679100        1.0080           
   39516 A    9879 TIP4 BD1  LP0     -1.358200        0.0000           
   39517 A    9880 TIP4 O1   OW0      0.000000       15.9990           
   39518 A    9880 TIP4 H1   HW0      0.679100        1.0080           
   39519 A    9880 TIP4 H2   HW0      0.679100        1.0080           
   39520 A    9880 TIP4 BD1  LP0     -1.358200        0.0000           
   39521 A    9881 TIP4 O1   OW0      0.000000       15.9990           
   39522 A    9881 TIP4 H1   HW0      0.679100        1.0080           
   39523 A    9881 TIP4 H2   HW0      0.679100        1.0080           
   39524 A    9881 TIP4 BD1  LP0     -1.358200        0.0000           
   39525 A    9882 TIP4 O1   OW0      0.000000       15.9990           
   39526 A    9882 TIP4 H1   HW0      0.679100        1.0080           
   39527 A    9882 TIP4 H2   HW0      0.679100        1.0080           
   39528 A    9882 TIP4 BD1  LP0     -1.358200        0.0000           
   39529 A    9883 TIP4 O1   OW0      0.000000       15.9990           
   39530 A    9883 TIP4 H1   HW0      0.679100        1.0080           
   39531 A    9883 TIP4 H2   HW0      0.679100        1.0080           
   39532 A    9883 TIP4 BD1  LP0     -1.358200        0.0000           
   39533 A    9884 TIP4 O1   OW0      0.000000       15.9990           
   39534 A    9884 TIP4 H1   HW0      0.679100        1.0080           
   39535 A    9884 TIP4 H2   HW0      0.679100        1.0080           
   39536 A    9884 TIP4 BD1  LP0     -1.358200        0.0000           
   39537 A    9885 TIP4 O1   OW0      0.000000       15.9990           
   39538 A    9885 TIP4 H1   HW0      0.679100        1.0080           
   39539 A    9885 TIP4 H2   HW0      0.679100        1.0080           
   39540 A    9885 TIP4 BD1  LP0     -1.358200        0.0000           
   39541 A    9886 TIP4 O1   OW0      0.000000       15.9990           
   39542 A    9886 TIP4 H1   HW0      0.679100        1.0080           
   39543 A    9886 TIP4 H2   HW0      0.679100        1.0080           
   39544 A    9886 TIP4 BD1  LP0     -1.358200        0.0000           
   39545 A    9887 TIP4 O1   OW0      0.000000       15.9990           
   39546 A    9887 TIP4 H1   HW0      0.679100        1.0080           
   39547 A    9887 TIP4 H2   HW0      0.679100        1.0080           
   39548 A    9887 TIP4 BD1  LP0     -1.358200        0.0000           
   39549 A    9888 TIP4 O1   OW0      0.000000       15.9990           
   39550 A    9888 TIP4 H1   HW0      0.679100        1.0080           
   39551 A    9888 TIP4 H2   HW0      0.679100        1.0080           
   39552 A    9888 TIP4 BD1  LP0     -1.358200        0.0000           
   39553 A    9889 TIP4 O1   OW0      0.000000       15.9990           
   39554 A    9889 TIP4 H1   HW0      0.679100        1.0080           
   39555 A    9889 TIP4 H2   HW0      0.679100        1.0080           
   39556 A    9889 TIP4 BD1  LP0     -1.358200        0.0000           
   39557 A    9890 TIP4 O1   OW0      0.000000       15.9990           
   39558 A    9890 TIP4 H1   HW0      0.679100        1.0080           
   39559 A    9890 TIP4 H2   HW0      0.679100        1.0080           
   39560 A    9890 TIP4 BD1  LP0     -1.358200        0.0000           
   39561 A    9891 TIP4 O1   OW0      0.000000       15.9990           
   39562 A    9891 TIP4 H1   HW0      0.679100        1.0080           
   39563 A    9891 TIP4 H2   HW0      0.679100        1.0080           
   39564 A    9891 TIP4 BD1  LP0     -1.358200        0.0000           
   39565 A    9892 TIP4 O1   OW0      0.000000       15.9990           
   39566 A    9892 TIP4 H1   HW0      0.679100        1.0080           
   39567 A    9892 TIP4 H2   HW0      0.679100        1.0080           
   39568 A    9892 TIP4 BD1  LP0     -1.358200        0.0000           
   39569 A    9893 TIP4 O1   OW0      0.000000       15.9990           
   39570 A    9893 TIP4 H1   HW0      0.679100        1.0080           
   39571 A    9893 TIP4 H2   HW0      0.679100        1.0080           
   39572 A    9893 TIP4 BD1  LP0     -1.358200        0.0000           
   39573 A    9894 TIP4 O1   OW0      0.000000       15.9990           
   39574 A    9894 TIP4 H1   HW0      0.679100        1.0080           
   39575 A    9894 TIP4 H2   HW0      0.679100        1.0080           
   39576 A    9894 TIP4 BD1  LP0     -1.358200        0.0000           
   39577 A    9895 TIP4 O1   OW0      0.000000       15.9990           
   39578 A    9895 TIP4 H1   HW0      0.679100        1.0080           
   39579 A    9895 TIP4 H2   HW0      0.679100        1.0080           
   39580 A    9895 TIP4 BD1  LP0     -1.358200        0.0000           
   39581 A    9896 TIP4 O1   OW0      0.000000       15.9990           
   39582 A    9896 TIP4 H1   HW0      0.679100        1.0080           
   39583 A    9896 TIP4 H2   HW0      0.679100        1.0080           
   39584 A    9896 TIP4 BD1  LP0     -1.358200        0.0000           
   39585 A    9897 TIP4 O1   OW0      0.000000       15.9990           
   39586 A    9897 TIP4 H1   HW0      0.679100        1.0080           
   39587 A    9897 TIP4 H2   HW0      0.679100        1.0080           
   39588 A    9897 TIP4 BD1  LP0     -1.358200        0.0000           
   39589 A    9898 TIP4 O1   OW0      0.000000       15.9990           
   39590 A    9898 TIP4 H1   HW0      0.679100        1.0080           
   39591 A    9898 TIP4 H2   HW0      0.679100        1.0080           
   39592 A    9898 TIP4 BD1  LP0     -1.358200        0.0000           
   39593 A    9899 TIP4 O1   OW0      0.000000       15.9990           
   39594 A    9899 TIP4 H1   HW0      0.679100        1.0080           
   39595 A    9899 TIP4 H2   HW0      0.679100        1.0080           
   39596 A    9899 TIP4 BD1  LP0     -1.358200        0.0000           
   39597 A    9900 TIP4 O1   OW0      0.000000       15.9990           
   39598 A    9900 TIP4 H1   HW0      0.679100        1.0080           
   39599 A    9900 TIP4 H2   HW0      0.679100        1.0080           
   39600 A    9900 TIP4 BD1  LP0     -1.358200        0.0000           
   39601 A    9901 TIP4 O1   OW0      0.000000       15.9990           
   39602 A    9901 TIP4 H1   HW0      0.679100        1.0080           
   39603 A    9901 TIP4 H2   HW0      0.679100        1.0080           
   39604 A    9901 TIP4 BD1  LP0     -1.358200        0.0000           
   39605 A    9902 TIP4 O1   OW0      0.000000       15.9990           
   39606 A    9902 TIP4 H1   HW0      0.679100        1.0080           
   39607 A    9902 TIP4 H2   HW0      0.679100        1.0080           
   39608 A    9902 TIP4 BD1  LP0     -1.358200        0.0000           
   39609 A    9903 TIP4 O1   OW0      0.000000       15.9990           
   39610 A    9903 TIP4 H1   HW0      0.679100        1.0080           
   39611 A    9903 TIP4 H2   HW0      0.679100        1.0080           
   39612 A    9903 TIP4 BD1  LP0     -1.358200        0.0000           
   39613 A    9904 TIP4 O1   OW0      0.000000       15.9990           
   39614 A    9904 TIP4 H1   HW0      0.679100        1.0080           
   39615 A    9904 TIP4 H2   HW0      0.679100        1.0080           
   39616 A    9904 TIP4 BD1  LP0     -1.358200        0.0000           
   39617 A    9905 TIP4 O1   OW0      0.000000       15.9990           
   39618 A    9905 TIP4 H1   HW0      0.679100        1.0080           
   39619 A    9905 TIP4 H2   HW0      0.679100        1.0080           
   39620 A    9905 TIP4 BD1  LP0     -1.358200        0.0000           
   39621 A    9906 TIP4 O1   OW0      0.000000       15.9990           
   39622 A    9906 TIP4 H1   HW0      0.679100        1.0080           
   39623 A    9906 TIP4 H2   HW0      0.679100        1.0080           
   39624 A    9906 TIP4 BD1  LP0     -1.358200        0.0000           
   39625 A    9907 TIP4 O1   OW0      0.000000       15.9990           
   39626 A    9907 TIP4 H1   HW0      0.679100        1.0080           
   39627 A    9907 TIP4 H2   HW0      0.679100        1.0080           
   39628 A    9907 TIP4 BD1  LP0     -1.358200        0.0000           
   39629 A    9908 TIP4 O1   OW0      0.000000       15.9990           
   39630 A    9908 TIP4 H1   HW0      0.679100        1.0080           
   39631 A    9908 TIP4 H2   HW0      0.679100        1.0080           
   39632 A    9908 TIP4 BD1  LP0     -1.358200        0.0000           
   39633 A    9909 TIP4 O1   OW0      0.000000       15.9990           
   39634 A    9909 TIP4 H1   HW0      0.679100        1.0080           
   39635 A    9909 TIP4 H2   HW0      0.679100        1.0080           
   39636 A    9909 TIP4 BD1  LP0     -1.358200        0.0000           
   39637 A    9910 TIP4 O1   OW0      0.000000       15.9990           
   39638 A    9910 TIP4 H1   HW0      0.679100        1.0080           
   39639 A    9910 TIP4 H2   HW0      0.679100        1.0080           
   39640 A    9910 TIP4 BD1  LP0     -1.358200        0.0000           
   39641 A    9911 TIP4 O1   OW0      0.000000       15.9990           
   39642 A    9911 TIP4 H1   HW0      0.679100        1.0080           
   39643 A    9911 TIP4 H2   HW0      0.679100        1.0080           
   39644 A    9911 TIP4 BD1  LP0     -1.358200        0.0000           
   39645 A    9912 TIP4 O1   OW0      0.000000       15.9990           
   39646 A    9912 TIP4 H1   HW0      0.679100        1.0080           
   39647 A    9912 TIP4 H2   HW0      0.679100        1.0080           
   39648 A    9912 TIP4 BD1  LP0     -1.358200        0.0000           
   39649 A    9913 TIP4 O1   OW0      0.000000       15.9990           
   39650 A    9913 TIP4 H1   HW0      0.679100        1.0080           
   39651 A    9913 TIP4 H2   HW0      0.679100        1.0080           
   39652 A    9913 TIP4 BD1  LP0     -1.358200        0.0000           
   39653 A    9914 TIP4 O1   OW0      0.000000       15.9990           
   39654 A    9914 TIP4 H1   HW0      0.679100        1.0080           
   39655 A    9914 TIP4 H2   HW0      0.679100        1.0080           
   39656 A    9914 TIP4 BD1  LP0     -1.358200        0.0000           
   39657 A    9915 TIP4 O1   OW0      0.000000       15.9990           
   39658 A    9915 TIP4 H1   HW0      0.679100        1.0080           
   39659 A    9915 TIP4 H2   HW0      0.679100        1.0080           
   39660 A    9915 TIP4 BD1  LP0     -1.358200        0.0000           
   39661 A    9916 TIP4 O1   OW0      0.000000       15.9990           
   39662 A    9916 TIP4 H1   HW0      0.679100        1.0080           
   39663 A    9916 TIP4 H2   HW0      0.679100        1.0080           
   39664 A    9916 TIP4 BD1  LP0     -1.358200        0.0000           
   39665 A    9917 TIP4 O1   OW0      0.000000       15.9990           
   39666 A    9917 TIP4 H1   HW0      0.679100        1.0080           
   39667 A    9917 TIP4 H2   HW0      0.679100        1.0080           
   39668 A    9917 TIP4 BD1  LP0     -1.358200        0.0000           
   39669 A    9918 TIP4 O1   OW0      0.000000       15.9990           
   39670 A    9918 TIP4 H1   HW0      0.679100        1.0080           
   39671 A    9918 TIP4 H2   HW0      0.679100        1.0080           
   39672 A    9918 TIP4 BD1  LP0     -1.358200        0.0000           
   39673 A    9919 TIP4 O1   OW0      0.000000       15.9990           
   39674 A    9919 TIP4 H1   HW0      0.679100        1.0080           
   39675 A    9919 TIP4 H2   HW0      0.679100        1.0080           
   39676 A    9919 TIP4 BD1  LP0     -1.358200        0.0000           
   39677 A    9920 TIP4 O1   OW0      0.000000       15.9990           
   39678 A    9920 TIP4 H1   HW0      0.679100        1.0080           
   39679 A    9920 TIP4 H2   HW0      0.679100        1.0080           
   39680 A    9920 TIP4 BD1  LP0     -1.358200        0.0000           
   39681 A    9921 TIP4 O1   OW0      0.000000       15.9990           
   39682 A    9921 TIP4 H1   HW0      0.679100        1.0080           
   39683 A    9921 TIP4 H2   HW0      0.679100        1.0080           
   39684 A    9921 TIP4 BD1  LP0     -1.358200        0.0000           
   39685 A    9922 TIP4 O1   OW0      0.000000       15.9990           
   39686 A    9922 TIP4 H1   HW0      0.679100        1.0080           
   39687 A    9922 TIP4 H2   HW0      0.679100        1.0080           
   39688 A    9922 TIP4 BD1  LP0     -1.358200        0.0000           
   39689 A    9923 TIP4 O1   OW0      0.000000       15.9990           
   39690 A    9923 TIP4 H1   HW0      0.679100        1.0080           
   39691 A    9923 TIP4 H2   HW0      0.679100        1.0080           
   39692 A    9923 TIP4 BD1  LP0     -1.358200        0.0000           
   39693 A    9924 TIP4 O1   OW0      0.000000       15.9990           
   39694 A    9924 TIP4 H1   HW0      0.679100        1.0080           
   39695 A    9924 TIP4 H2   HW0      0.679100        1.0080           
   39696 A    9924 TIP4 BD1  LP0     -1.358200        0.0000           
   39697 A    9925 TIP4 O1   OW0      0.000000       15.9990           
   39698 A    9925 TIP4 H1   HW0      0.679100        1.0080           
   39699 A    9925 TIP4 H2   HW0      0.679100        1.0080           
   39700 A    9925 TIP4 BD1  LP0     -1.358200        0.0000           
   39701 A    9926 TIP4 O1   OW0      0.000000       15.9990           
   39702 A    9926 TIP4 H1   HW0      0.679100        1.0080           
   39703 A    9926 TIP4 H2   HW0      0.679100        1.0080           
   39704 A    9926 TIP4 BD1  LP0     -1.358200        0.0000           
   39705 A    9927 TIP4 O1   OW0      0.000000       15.9990           
   39706 A    9927 TIP4 H1   HW0      0.679100        1.0080           
   39707 A    9927 TIP4 H2   HW0      0.679100        1.0080           
   39708 A    9927 TIP4 BD1  LP0     -1.358200        0.0000           
   39709 A    9928 TIP4 O1   OW0      0.000000       15.9990           
   39710 A    9928 TIP4 H1   HW0      0.679100        1.0080           
   39711 A    9928 TIP4 H2   HW0      0.679100        1.0080           
   39712 A    9928 TIP4 BD1  LP0     -1.358200        0.0000           
   39713 A    9929 TIP4 O1   OW0      0.000000       15.9990           
   39714 A    9929 TIP4 H1   HW0      0.679100        1.0080           
   39715 A    9929 TIP4 H2   HW0      0.679100        1.0080           
   39716 A    9929 TIP4 BD1  LP0     -1.358200        0.0000           
   39717 A    9930 TIP4 O1   OW0      0.000000       15.9990           
   39718 A    9930 TIP4 H1   HW0      0.679100        1.0080           
   39719 A    9930 TIP4 H2   HW0      0.679100        1.0080           
   39720 A    9930 TIP4 BD1  LP0     -1.358200        0.0000           
   39721 A    9931 TIP4 O1   OW0      0.000000       15.9990           
   39722 A    9931 TIP4 H1   HW0      0.679100        1.0080           
   39723 A    9931 TIP4 H2   HW0      0.679100        1.0080           
   39724 A    9931 TIP4 BD1  LP0     -1.358200        0.0000           
   39725 A    9932 TIP4 O1   OW0      0.000000       15.9990           
   39726 A    9932 TIP4 H1   HW0      0.679100        1.0080           
   39727 A    9932 TIP4 H2   HW0      0.679100        1.0080           
   39728 A    9932 TIP4 BD1  LP0     -1.358200        0.0000           
   39729 A    9933 TIP4 O1   OW0      0.000000       15.9990           
   39730 A    9933 TIP4 H1   HW0      0.679100        1.0080           
   39731 A    9933 TIP4 H2   HW0      0.679100        1.0080           
   39732 A    9933 TIP4 BD1  LP0     -1.358200        0.0000           
   39733 A    9934 TIP4 O1   OW0      0.000000       15.9990           
   39734 A    9934 TIP4 H1   HW0      0.679100        1.0080           
   39735 A    9934 TIP4 H2   HW0      0.679100        1.0080           
   39736 A    9934 TIP4 BD1  LP0     -1.358200        0.0000           
   39737 A    9935 TIP4 O1   OW0      0.000000       15.9990           
   39738 A    9935 TIP4 H1   HW0      0.679100        1.0080           
   39739 A    9935 TIP4 H2   HW0      0.679100        1.0080           
   39740 A    9935 TIP4 BD1  LP0     -1.358200        0.0000           
   39741 A    9936 TIP4 O1   OW0      0.000000       15.9990           
   39742 A    9936 TIP4 H1   HW0      0.679100        1.0080           
   39743 A    9936 TIP4 H2   HW0      0.679100        1.0080           
   39744 A    9936 TIP4 BD1  LP0     -1.358200        0.0000           
   39745 A    9937 TIP4 O1   OW0      0.000000       15.9990           
   39746 A    9937 TIP4 H1   HW0      0.679100        1.0080           
   39747 A    9937 TIP4 H2   HW0      0.679100        1.0080           
   39748 A    9937 TIP4 BD1  LP0     -1.358200        0.0000           
   39749 A    9938 TIP4 O1   OW0      0.000000       15.9990           
   39750 A    9938 TIP4 H1   HW0      0.679100        1.0080           
   39751 A    9938 TIP4 H2   HW0      0.679100        1.0080           
   39752 A    9938 TIP4 BD1  LP0     -1.358200        0.0000           
   39753 A    9939 TIP4 O1   OW0      0.000000       15.9990           
   39754 A    9939 TIP4 H1   HW0      0.679100        1.0080           
   39755 A    9939 TIP4 H2   HW0      0.679100        1.0080           
   39756 A    9939 TIP4 BD1  LP0     -1.358200        0.0000           
   39757 A    9940 TIP4 O1   OW0      0.000000       15.9990           
   39758 A    9940 TIP4 H1   HW0      0.679100        1.0080           
   39759 A    9940 TIP4 H2   HW0      0.679100        1.0080           
   39760 A    9940 TIP4 BD1  LP0     -1.358200        0.0000           
   39761 A    9941 TIP4 O1   OW0      0.000000       15.9990           
   39762 A    9941 TIP4 H1   HW0      0.679100        1.0080           
   39763 A    9941 TIP4 H2   HW0      0.679100        1.0080           
   39764 A    9941 TIP4 BD1  LP0     -1.358200        0.0000           
   39765 A    9942 TIP4 O1   OW0      0.000000       15.9990           
   39766 A    9942 TIP4 H1   HW0      0.679100        1.0080           
   39767 A    9942 TIP4 H2   HW0      0.679100        1.0080           
   39768 A    9942 TIP4 BD1  LP0     -1.358200        0.0000           
   39769 A    9943 TIP4 O1   OW0      0.000000       15.9990           
   39770 A    9943 TIP4 H1   HW0      0.679100        1.0080           
   39771 A    9943 TIP4 H2   HW0      0.679100        1.0080           
   39772 A    9943 TIP4 BD1  LP0     -1.358200        0.0000           
   39773 A    9944 TIP4 O1   OW0      0.000000       15.9990           
   39774 A    9944 TIP4 H1   HW0      0.679100        1.0080           
   39775 A    9944 TIP4 H2   HW0      0.679100        1.0080           
   39776 A    9944 TIP4 BD1  LP0     -1.358200        0.0000           
   39777 A    9945 TIP4 O1   OW0      0.000000       15.9990           
   39778 A    9945 TIP4 H1   HW0      0.679100        1.0080           
   39779 A    9945 TIP4 H2   HW0      0.679100        1.0080           
   39780 A    9945 TIP4 BD1  LP0     -1.358200        0.0000           
   39781 A    9946 TIP4 O1   OW0      0.000000       15.9990           
   39782 A    9946 TIP4 H1   HW0      0.679100        1.0080           
   39783 A    9946 TIP4 H2   HW0      0.679100        1.0080           
   39784 A    9946 TIP4 BD1  LP0     -1.358200        0.0000           
   39785 A    9947 TIP4 O1   OW0      0.000000       15.9990           
   39786 A    9947 TIP4 H1   HW0      0.679100        1.0080           
   39787 A    9947 TIP4 H2   HW0      0.679100        1.0080           
   39788 A    9947 TIP4 BD1  LP0     -1.358200        0.0000           
   39789 A    9948 TIP4 O1   OW0      0.000000       15.9990           
   39790 A    9948 TIP4 H1   HW0      0.679100        1.0080           
   39791 A    9948 TIP4 H2   HW0      0.679100        1.0080           
   39792 A    9948 TIP4 BD1  LP0     -1.358200        0.0000           
   39793 A    9949 TIP4 O1   OW0      0.000000       15.9990           
   39794 A    9949 TIP4 H1   HW0      0.679100        1.0080           
   39795 A    9949 TIP4 H2   HW0      0.679100        1.0080           
   39796 A    9949 TIP4 BD1  LP0     -1.358200        0.0000           
   39797 A    9950 TIP4 O1   OW0      0.000000       15.9990           
   39798 A    9950 TIP4 H1   HW0      0.679100        1.0080           
   39799 A    9950 TIP4 H2   HW0      0.679100        1.0080           
   39800 A    9950 TIP4 BD1  LP0     -1.358200        0.0000           
   39801 A    9951 TIP4 O1   OW0      0.000000       15.9990           
   39802 A    9951 TIP4 H1   HW0      0.679100        1.0080           
   39803 A    9951 TIP4 H2   HW0      0.679100        1.0080           
   39804 A    9951 TIP4 BD1  LP0     -1.358200        0.0000           
   39805 A    9952 TIP4 O1   OW0      0.000000       15.9990           
   39806 A    9952 TIP4 H1   HW0      0.679100        1.0080           
   39807 A    9952 TIP4 H2   HW0      0.679100        1.0080           
   39808 A    9952 TIP4 BD1  LP0     -1.358200        0.0000           
   39809 A    9953 TIP4 O1   OW0      0.000000       15.9990           
   39810 A    9953 TIP4 H1   HW0      0.679100        1.0080           
   39811 A    9953 TIP4 H2   HW0      0.679100        1.0080           
   39812 A    9953 TIP4 BD1  LP0     -1.358200        0.0000           
   39813 A    9954 TIP4 O1   OW0      0.000000       15.9990           
   39814 A    9954 TIP4 H1   HW0      0.679100        1.0080           
   39815 A    9954 TIP4 H2   HW0      0.679100        1.0080           
   39816 A    9954 TIP4 BD1  LP0     -1.358200        0.0000           
   39817 A    9955 TIP4 O1   OW0      0.000000       15.9990           
   39818 A    9955 TIP4 H1   HW0      0.679100        1.0080           
   39819 A    9955 TIP4 H2   HW0      0.679100        1.0080           
   39820 A    9955 TIP4 BD1  LP0     -1.358200        0.0000           
   39821 A    9956 TIP4 O1   OW0      0.000000       15.9990           
   39822 A    9956 TIP4 H1   HW0      0.679100        1.0080           
   39823 A    9956 TIP4 H2   HW0      0.679100        1.0080           
   39824 A    9956 TIP4 BD1  LP0     -1.358200        0.0000           
   39825 A    9957 TIP4 O1   OW0      0.000000       15.9990           
   39826 A    9957 TIP4 H1   HW0      0.679100        1.0080           
   39827 A    9957 TIP4 H2   HW0      0.679100        1.0080           
   39828 A    9957 TIP4 BD1  LP0     -1.358200        0.0000           
   39829 A    9958 TIP4 O1   OW0      0.000000       15.9990           
   39830 A    9958 TIP4 H1   HW0      0.679100        1.0080           
   39831 A    9958 TIP4 H2   HW0      0.679100        1.0080           
   39832 A    9958 TIP4 BD1  LP0     -1.358200        0.0000           
   39833 A    9959 TIP4 O1   OW0      0.000000       15.9990           
   39834 A    9959 TIP4 H1   HW0      0.679100        1.0080           
   39835 A    9959 TIP4 H2   HW0      0.679100        1.0080           
   39836 A    9959 TIP4 BD1  LP0     -1.358200        0.0000           
   39837 A    9960 TIP4 O1   OW0      0.000000       15.9990           
   39838 A    9960 TIP4 H1   HW0      0.679100        1.0080           
   39839 A    9960 TIP4 H2   HW0      0.679100        1.0080           
   39840 A    9960 TIP4 BD1  LP0     -1.358200        0.0000           
   39841 A    9961 TIP4 O1   OW0      0.000000       15.9990           
   39842 A    9961 TIP4 H1   HW0      0.679100        1.0080           
   39843 A    9961 TIP4 H2   HW0      0.679100        1.0080           
   39844 A    9961 TIP4 BD1  LP0     -1.358200        0.0000           
   39845 A    9962 TIP4 O1   OW0      0.000000       15.9990           
   39846 A    9962 TIP4 H1   HW0      0.679100        1.0080           
   39847 A    9962 TIP4 H2   HW0      0.679100        1.0080           
   39848 A    9962 TIP4 BD1  LP0     -1.358200        0.0000           
   39849 A    9963 TIP4 O1   OW0      0.000000       15.9990           
   39850 A    9963 TIP4 H1   HW0      0.679100        1.0080           
   39851 A    9963 TIP4 H2   HW0      0.679100        1.0080           
   39852 A    9963 TIP4 BD1  LP0     -1.358200        0.0000           
   39853 A    9964 TIP4 O1   OW0      0.000000       15.9990           
   39854 A    9964 TIP4 H1   HW0      0.679100        1.0080           
   39855 A    9964 TIP4 H2   HW0      0.679100        1.0080           
   39856 A    9964 TIP4 BD1  LP0     -1.358200        0.0000           
   39857 A    9965 TIP4 O1   OW0      0.000000       15.9990           
   39858 A    9965 TIP4 H1   HW0      0.679100        1.0080           
   39859 A    9965 TIP4 H2   HW0      0.679100        1.0080           
   39860 A    9965 TIP4 BD1  LP0     -1.358200        0.0000           
   39861 A    9966 TIP4 O1   OW0      0.000000       15.9990           
   39862 A    9966 TIP4 H1   HW0      0.679100        1.0080           
   39863 A    9966 TIP4 H2   HW0      0.679100        1.0080           
   39864 A    9966 TIP4 BD1  LP0     -1.358200        0.0000           
   39865 A    9967 TIP4 O1   OW0      0.000000       15.9990           
   39866 A    9967 TIP4 H1   HW0      0.679100        1.0080           
   39867 A    9967 TIP4 H2   HW0      0.679100        1.0080           
   39868 A    9967 TIP4 BD1  LP0     -1.358200        0.0000           
   39869 A    9968 TIP4 O1   OW0      0.000000       15.9990           
   39870 A    9968 TIP4 H1   HW0      0.679100        1.0080           
   39871 A    9968 TIP4 H2   HW0      0.679100        1.0080           
   39872 A    9968 TIP4 BD1  LP0     -1.358200        0.0000           
   39873 A    9969 TIP4 O1   OW0      0.000000       15.9990           
   39874 A    9969 TIP4 H1   HW0      0.679100        1.0080           
   39875 A    9969 TIP4 H2   HW0      0.679100        1.0080           
   39876 A    9969 TIP4 BD1  LP0     -1.358200        0.0000           
   39877 A    9970 TIP4 O1   OW0      0.000000       15.9990           
   39878 A    9970 TIP4 H1   HW0      0.679100        1.0080           
   39879 A    9970 TIP4 H2   HW0      0.679100        1.0080           
   39880 A    9970 TIP4 BD1  LP0     -1.358200        0.0000           
   39881 A    9971 TIP4 O1   OW0      0.000000       15.9990           
   39882 A    9971 TIP4 H1   HW0      0.679100        1.0080           
   39883 A    9971 TIP4 H2   HW0      0.679100        1.0080           
   39884 A    9971 TIP4 BD1  LP0     -1.358200        0.0000           
   39885 A    9972 TIP4 O1   OW0      0.000000       15.9990           
   39886 A    9972 TIP4 H1   HW0      0.679100        1.0080           
   39887 A    9972 TIP4 H2   HW0      0.679100        1.0080           
   39888 A    9972 TIP4 BD1  LP0     -1.358200        0.0000           
   39889 A    9973 TIP4 O1   OW0      0.000000       15.9990           
   39890 A    9973 TIP4 H1   HW0      0.679100        1.0080           
   39891 A    9973 TIP4 H2   HW0      0.679100        1.0080           
   39892 A    9973 TIP4 BD1  LP0     -1.358200        0.0000           
   39893 A    9974 TIP4 O1   OW0      0.000000       15.9990           
   39894 A    9974 TIP4 H1   HW0      0.679100        1.0080           
   39895 A    9974 TIP4 H2   HW0      0.679100        1.0080           
   39896 A    9974 TIP4 BD1  LP0     -1.358200        0.0000           
   39897 A    9975 TIP4 O1   OW0      0.000000       15.9990           
   39898 A    9975 TIP4 H1   HW0      0.679100        1.0080           
   39899 A    9975 TIP4 H2   HW0      0.679100        1.0080           
   39900 A    9975 TIP4 BD1  LP0     -1.358200        0.0000           
   39901 A    9976 TIP4 O1   OW0      0.000000       15.9990           
   39902 A    9976 TIP4 H1   HW0      0.679100        1.0080           
   39903 A    9976 TIP4 H2   HW0      0.679100        1.0080           
   39904 A    9976 TIP4 BD1  LP0     -1.358200        0.0000           
   39905 A    9977 TIP4 O1   OW0      0.000000       15.9990           
   39906 A    9977 TIP4 H1   HW0      0.679100        1.0080           
   39907 A    9977 TIP4 H2   HW0      0.679100        1.0080           
   39908 A    9977 TIP4 BD1  LP0     -1.358200        0.0000           
   39909 A    9978 TIP4 O1   OW0      0.000000       15.9990           
   39910 A    9978 TIP4 H1   HW0      0.679100        1.0080           
   39911 A    9978 TIP4 H2   HW0      0.679100        1.0080           
   39912 A    9978 TIP4 BD1  LP0     -1.358200        0.0000           
   39913 A    9979 TIP4 O1   OW0      0.000000       15.9990           
   39914 A    9979 TIP4 H1   HW0      0.679100        1.0080           
   39915 A    9979 TIP4 H2   HW0      0.679100        1.0080           
   39916 A    9979 TIP4 BD1  LP0     -1.358200        0.0000           
   39917 A    9980 TIP4 O1   OW0      0.000000       15.9990           
   39918 A    9980 TIP4 H1   HW0      0.679100        1.0080           
   39919 A    9980 TIP4 H2   HW0      0.679100        1.0080           
   39920 A    9980 TIP4 BD1  LP0     -1.358200        0.0000           
   39921 A    9981 TIP4 O1   OW0      0.000000       15.9990           
   39922 A    9981 TIP4 H1   HW0      0.679100        1.0080           
   39923 A    9981 TIP4 H2   HW0      0.679100        1.0080           
   39924 A    9981 TIP4 BD1  LP0     -1.358200        0.0000           
   39925 A    9982 TIP4 O1   OW0      0.000000       15.9990           
   39926 A    9982 TIP4 H1   HW0      0.679100        1.0080           
   39927 A    9982 TIP4 H2   HW0      0.679100        1.0080           
   39928 A    9982 TIP4 BD1  LP0     -1.358200        0.0000           
   39929 A    9983 TIP4 O1   OW0      0.000000       15.9990           
   39930 A    9983 TIP4 H1   HW0      0.679100        1.0080           
   39931 A    9983 TIP4 H2   HW0      0.679100        1.0080           
   39932 A    9983 TIP4 BD1  LP0     -1.358200        0.0000           
   39933 A    9984 TIP4 O1   OW0      0.000000       15.9990           
   39934 A    9984 TIP4 H1   HW0      0.679100        1.0080           
   39935 A    9984 TIP4 H2   HW0      0.679100        1.0080           
   39936 A    9984 TIP4 BD1  LP0     -1.358200        0.0000           
   39937 A    9985 TIP4 O1   OW0      0.000000       15.9990           
   39938 A    9985 TIP4 H1   HW0      0.679100        1.0080           
   39939 A    9985 TIP4 H2   HW0      0.679100        1.0080           
   39940 A    9985 TIP4 BD1  LP0     -1.358200        0.0000           
   39941 A    9986 TIP4 O1   OW0      0.000000       15.9990           
   39942 A    9986 TIP4 H1   HW0      0.679100        1.0080           
   39943 A    9986 TIP4 H2   HW0      0.679100        1.0080           
   39944 A    9986 TIP4 BD1  LP0     -1.358200        0.0000           
   39945 A    9987 TIP4 O1   OW0      0.000000       15.9990           
   39946 A    9987 TIP4 H1   HW0      0.679100        1.0080           
   39947 A    9987 TIP4 H2   HW0      0.679100        1.0080           
   39948 A    9987 TIP4 BD1  LP0     -1.358200        0.0000           
   39949 A    9988 TIP4 O1   OW0      0.000000       15.9990           
   39950 A    9988 TIP4 H1   HW0      0.679100        1.0080           
   39951 A    9988 TIP4 H2   HW0      0.679100        1.0080           
   39952 A    9988 TIP4 BD1  LP0     -1.358200        0.0000           
   39953 A    9989 TIP4 O1   OW0      0.000000       15.9990           
   39954 A    9989 TIP4 H1   HW0      0.679100        1.0080           
   39955 A    9989 TIP4 H2   HW0      0.679100        1.0080           
   39956 A    9989 TIP4 BD1  LP0     -1.358200        0.0000           
   39957 A    9990 TIP4 O1   OW0      0.000000       15.9990           
   39958 A    9990 TIP4 H1   HW0      0.679100        1.0080           
   39959 A    9990 TIP4 H2   HW0      0.679100        1.0080           
   39960 A    9990 TIP4 BD1  LP0     -1.358200        0.0000           
   39961 A    9991 TIP4 O1   OW0      0.000000       15.9990           
   39962 A    9991 TIP4 H1   HW0      0.679100        1.0080           
   39963 A    9991 TIP4 H2   HW0      0.679100        1.0080           
   39964 A    9991 TIP4 BD1  LP0     -1.358200        0.0000           
   39965 A    9992 TIP4 O1   OW0      0.000000       15.9990           
   39966 A    9992 TIP4 H1   HW0      0.679100        1.0080           
   39967 A    9992 TIP4 H2   HW0      0.679100        1.0080           
   39968 A    9992 TIP4 BD1  LP0     -1.358200        0.0000           
   39969 A    9993 TIP4 O1   OW0      0.000000       15.9990           
   39970 A    9993 TIP4 H1   HW0      0.679100        1.0080           
   39971 A    9993 TIP4 H2   HW0      0.679100        1.0080           
   39972 A    9993 TIP4 BD1  LP0     -1.358200        0.0000           
   39973 A    9994 TIP4 O1   OW0      0.000000       15.9990           
   39974 A    9994 TIP4 H1   HW0      0.679100        1.0080           
   39975 A    9994 TIP4 H2   HW0      0.679100        1.0080           
   39976 A    9994 TIP4 BD1  LP0     -1.358200        0.0000           
   39977 A    9995 TIP4 O1   OW0      0.000000       15.9990           
   39978 A    9995 TIP4 H1   HW0      0.679100        1.0080           
   39979 A    9995 TIP4 H2   HW0      0.679100        1.0080           
   39980 A    9995 TIP4 BD1  LP0     -1.358200        0.0000           
   39981 A    9996 TIP4 O1   OW0      0.000000       15.9990           
   39982 A    9996 TIP4 H1   HW0      0.679100        1.0080           
   39983 A    9996 TIP4 H2   HW0      0.679100        1.0080           
   39984 A    9996 TIP4 BD1  LP0     -1.358200        0.0000           
   39985 A    9997 TIP4 O1   OW0      0.000000       15.9990           
   39986 A    9997 TIP4 H1   HW0      0.679100        1.0080           
   39987 A    9997 TIP4 H2   HW0      0.679100        1.0080           
   39988 A    9997 TIP4 BD1  LP0     -1.358200        0.0000           
   39989 A    9998 TIP4 O1   OW0      0.000000       15.9990           
   39990 A    9998 TIP4 H1   HW0      0.679100        1.0080           
   39991 A    9998 TIP4 H2   HW0      0.679100        1.0080           
   39992 A    9998 TIP4 BD1  LP0     -1.358200        0.0000           
   39993 A    9999 TIP4 O1   OW0      0.000000       15.9990           
   39994 A    9999 TIP4 H1   HW0      0.679100        1.0080           
   39995 A    9999 TIP4 H2   HW0      0.679100        1.0080           
   39996 A    9999 TIP4 BD1  LP0     -1.358200        0.0000           
   39997 B    1    TIP4 O1   OW0      0.000000       15.9990           
   39998 B    1    TIP4 H1   HW0      0.679100        1.0080           
   39999 B    1    TIP4 H2   HW0      0.679100        1.0080           
   40000 B    1    TIP4 BD1  LP0     -1.358200        0.0000           

   30000 !NBOND: bonds
       1       3       1       2       1       4       5       7
       5       6       5       8       9      11       9      10
       9      12      13      15      13      14      13      16
      17      19      17      18      17      20      21      23
      21      22      21      24      25      27      25      26
      25      28      29      31      29      30      29      32
      33      35      33      34      33      36      37      39
      37      38      37      40      41      43      41      42
      41      44      45      47      45      46      45      48
      49      51      49      50      49      52      53      55
      53      54      53      56      57      59      57      58
      57      60      61      63      61      62      61      64
      65      67      65      66      65      68      69      71
      69      70      69      72      73      75      73      74
      73      76      77      79      77      78      77      80
      81      83      81      82      81      84      85      87
      85      86      85      88      89      91      89      90
      89      92      93      95      93      94      93      96
      97      99      97      98      97     100     101     103
     101     102     101     104     105     107     105     106
     105     108     109     111     109     110     109     112
     113     115     113     114     113     116     117     119
     117     118     117     120     121     123     121     122
     121     124     125     127     125     126     125     128
     129     131     129     130     129     132     133     135
     133     134     133     136     137     139     137     138
     137     140     141     143     141     142     141     144
     145     147     145     146     145     148     149     151
     149     150     149     152     153     155     153     154
     153     156     157     159     157     158     157     160
     161     163     161     162     161     164     165     167
     165     166     165     168     169     171     169     170
     169     172     173     175     173     174     173     176
     177     179     177     178     177     180     181     183
     181     182     181     184     185     187     185     186
     185     188     189     191     189     190     189     192
     193     195     193     194     193     196     197     199
     197     198     197     200     201     203     201     202
     201     204     205     207     205     206     205     208
     209     211     209     210     209     212     213     215
     213     214     213     216     217     219     217     218
     217     220     221     223     221     222     221     224
     225     227     225     226     225     228     229     231
     229     230     229     232     233     235     233     234
     233     236     237     239     237     238     237     240
     241     243     241     242     241     244     245     247
     245     246     245     248     249     251     249     250
     249     252     253     255     253     254     253     256
     257     259     257     258     257     260     261     263
     261     262     261     264     265     267     265     266
     265     268     269     271     269     270     269     272
     273     275     273     274     273     276     277     279
     277     278     277     280     281     283     281     282
     281     284     285     287     285     286     285     288
     289     291     289     290     289     292     293     295
     293     294     293     296     297     299     297     298
     297     300     301     303     301     302     301     304
     305     307     305     306     305     308     309     311
     309     310     309     312     313     315     313     314
     313     316     317     319     317     318     317     320
     321     323     321     322     321     324     325     327
     325     326     325     328     329     331     329     330
     329     332     333     335     333     334     333     336
     337     339     337     338     337     340     341     343
     341     342     341     344     345     347     345     346
     345     348     349     351     349     350     349     352
     353     355     353     354     353     356     357     359
     357     358     357     360     361     363     361     362
     361     364     365     367     365     366     365     368
     369     371     369     370     369     372     373     375
     373     374     373     376     377     379     377     378
     377     380     381     383     381     382     381     384
     385     387     385     386     385     388     389     391
     389     390     389     392     393     395     393     394
     393     396     397     399     397     398     397     400
     401     403     401     402     401     404     405     407
     405     406     405     408     409     411     409     410
     409     412     413     415     413     414     413     416
     417     419     417     418     417     420     421     423
     421     422     421     424     425     427     425     426
     425     428     429     431     429     430     429     432
     433     435     433     434     433     436     437     439
     437     438     437     440     441     443     441     442
     441     444     445     447     445     446     445     448
     449     451     449     450     449     452     453     455
     453     454     453     456     457     459     457     458
     457     460     461     463     461     462     461     464
     465     467     465     466     465     468     469     471
     469     470     469     472     473     475     473     474
     473     476     477     479     477     478     477     480
     481     483     481     482     481     484     485     487
     485     486     485     488     489     491     489     490
     489     492     493     495     493     494     493     496
     497     499     497     498     497     500     501     503
     501     502     501     504     505     507     505     506
     505     508     509     511     509     510     509     512
     513     515     513     514     513     516     517     519
     517     518     517     520     521     523     521     522
     521     524     525     527     525     526     525     528
     529     531     529     530     529     532     533     535
     533     534     533     536     537     539     537     538
     537     540     541     543     541     542     541     544
     545     547     545     546     545     548     549     551
     549     550     549     552     553     555     553     554
     553     556     557     559     557     558     557     560
     561     563     561     562     561     564     565     567
     565     566     565     568     569     571     569     570
     569     572     573     575     573     574     573     576
     577     579     577     578     577     580     581     583
     581     582     581     584     585     587     585     586
     585     588     589     591     589     590     589     592
     593     595     593     594     593     596     597     599
     597     598     597     600     601     603     601     602
     601     604     605     607     605     606     605     608
     609     611     609     610     609     612     613     615
     613     614     613     616     617     619     617     618
     617     620     621     623     621     622     621     624
     625     627     625     626     625     628     629     631
     629     630     629     632     633     635     633     634
     633     636     637     639     637     638     637     640
     641     643     641     642     641     644     645     647
     645     646     645     648     649     651     649     650
     649     652     653     655     653     654     653     656
     657     659     657     658     657     660     661     663
     661     662     661     664     665     667     665     666
     665     668     669     671     669     670     669     672
     673     675     673     674     673     676     677     679
     677     678     677     680     681     683     681     682
     681     684     685     687     685     686     685     688
     689     691     689     690     689     692     693     695
     693     694     693     696     697     699     697     698
     697     700     701     703     701     702     701     704
     705     707     705     706     705     708     709     711
     709     710     709     712     713     715     713     714
     713     716     717     719     717     718     717     720
     721     723     721     722     721     724     725     727
     725     726     725     728     729     731     729     730
     729     732     733     735     733     734     733     736
     737     739     737     738     737     740     741     743
     741     742     741     744     745     747     745     746
     745     748     749     751     749     750     749     752
     753     755     753     754     753     756     757     759
     757     758     757     760     761     763     761     762
     761     764     765     767     765     766     765     768
     769     771     769     770     769     772     773     775
     773     774     773     776     777     779     777     778
     777     780     781     783     781     782     781     784
     785     787     785     786     785     788     789     791
     789     790     789     792     793     795     793     794
     793     796     797     799     797     798     797     800
     801     803     801     802     801     804     805     807
     805     806     805     808     809     811     809     810
     809     812     813     815     813     814     813     816
     817     819     817     818     817     820     821     823
     821     822     821     824     825     827     825     826
     825     828     829     831     829     830     829     832
     833     835     833     834     833     836     837     839
     837     838     837     840     841     843     841     842
     841     844     845     847     845     846     845     848
     849     851     849     850     849     852     853     855
     853     854     853     856     857     859     857     858
     857     860     861     863     861     862     861     864
     865     867     865     866     865     868     869     871
     869     870     869     872     873     875     873     874
     873     876     877     879     877     878     877     880
     881     883     881     882     881     884     885     887
     885     886     885     888     889     891     889     890
     889     892     893     895     893     894     893     896
     897     899     897     898     897     900     901     903
     901     902     901     904     905     907     905     906
     905     908     909     911     909     910     909     912
     913     915     913     914     913     916     917     919
     917     918     917     920     921     923     921     922
     921     924     925     927     925     926     925     928
     929     931     929     930     929     932     933     935
     933     934     933     936     937     939     937     938
     937     940     941     943     941     942     941     944
     945     947     945     946     945     948     949     951
     949     950     949     952     953     955     953     954
     953     956     957     959     957     958     957     960
     961     963     961     962     961     964     965     967
     965     966     965     968     969     971     969     970
     969     972     973     975     973     974     973     976
     977     979     977     978     977     980     981     983
     981     982     981     984     985     987     985     986
     985     988     989     991     989     990     989     992
     993     995     993     994     993     996     997     999
     997     998     997    1000    1001    1003    1001    1002
    1001    1004    1005    1007    1005    1006    1005    1008
    1009    1011    1009    1010    1009    1012    1013    1015
    1013    1014    1013    1016    1017    1019    1017    1018
    1017    1020    1021    1023    1021    1022    1021    1024
    1025    1027    1025    1026    1025    1028    1029    1031
    1029    1030    1029    1032    1033    1035    1033    1034
    1033    1036    1037    1039    1037    1038    1037    1040
    1041    1043    1041    1042    1041    1044    1045    1047
    1045    1046    1045    1048    1049    1051    1049    1050
    1049    1052    1053    1055    1053    1054    1053    1056
    1057    1059    1057    1058    1057    1060    1061    1063
    1061    1062    1061    1064    1065    1067    1065    1066
    1065    1068    1069    1071    1069    1070    1069    1072
    1073    1075    1073    1074    1073    1076    1077    1079
    1077    1078    1077    1080    1081    1083    1081    1082
    1081    1084    1085    1087    1085    1086    1085    1088
    1089    1091    1089    1090    1089    1092    1093    1095
    1093    1094    1093    1096    1097    1099    1097    1098
    1097    1100    1101    1103    1101    1102    1101    1104
    1105    1107    1105    1106    1105    1108    1109    1111
    1109    1110    1109    1112    1113    1115    1113    1114
    1113    1116    1117    1119    1117    1118    1117    1120
    1121    1123    1121    1122    1121    1124    1125    1127
    1125    1126    1125    1128    1129    1131    1129    1130
    1129    1132    1133    1135    1133    1134    1133    1136
    1137    1139    1137    1138    1137    1140    1141    1143
    1141    1142    1141    1144    1145    1147    1145    1146
    1145    1148    1149    1151    1149    1150    1149    1152
    1153    1155    1153    1154    1153    1156    1157    1159
    1157    1158    1157    1160    1161    1163    1161    1162
    1161    1164    1165    1167    1165    1166    1165    1168
    1169    1171    1169    1170    1169    1172    1173    1175
    1173    1174    1173    1176    1177    1179    1177    1178
    1177    1180    1181    1183    1181    1182    1181    1184
    1185    1187    1185    1186    1185    1188    1189    1191
    1189    1190    1189    1192    1193    1195    1193    1194
    1193    1196    1197    1199    1197    1198    1197    1200
    1201    1203    1201    1202    1201    1204    1205    1207
    1205    1206    1205    1208    1209    1211    1209    1210
    1209    1212    1213    1215    1213    1214    1213    1216
    1217    1219    1217    1218    1217    1220    1221    1223
    1221    1222    1221    1224    1225    1227    1225    1226
    1225    1228    1229    1231    1229    1230    1229    1232
    1233    1235    1233    1234    1233    1236    1237    1239
    1237    1238    1237    1240    1241    1243    1241    1242
    1241    1244    1245    1247    1245    1246    1245    1248
    1249    1251    1249    1250    1249    1252    1253    1255
    1253    1254    1253    1256    1257    1259    1257    1258
    1257    1260    1261    1263    1261    1262    1261    1264
    1265    1267    1265    1266    1265    1268    1269    1271
    1269    1270    1269    1272    1273    1275    1273    1274
    1273    1276    1277    1279    1277    1278    1277    1280
    1281    1283    1281    1282    1281    1284    1285    1287
    1285    1286    1285    1288    1289    1291    1289    1290
    1289    1292    1293    1295    1293    1294    1293    1296
    1297    1299    1297    1298    1297    1300    1301    1303
    1301    1302    1301    1304    1305    1307    1305    1306
    1305    1308    1309    1311    1309    1310    1309    1312
    1313    1315    1313    1314    1313    1316    1317    1319
    1317    1318    1317    1320    1321    1323    1321    1322
    1321    1324    1325    1327    1325    1326    1325    1328
    1329    1331    1329    1330    1329    1332    1333    1335
    1333    1334    1333    1336    1337    1339    1337    1338
    1337    1340    1341    1343    1341    1342    1341    1344
    1345    1347    1345    1346    1345    1348    1349    1351
    1349    1350    1349    1352    1353    1355    1353    1354
    1353    1356    1357    1359    1357    1358    1357    1360
    1361    1363    1361    1362    1361    1364    1365    1367
    1365    1366    1365    1368    1369    1371    1369    1370
    1369    1372    1373    1375    1373    1374    1373    1376
    1377    1379    1377    1378    1377    1380    1381    1383
    1381    1382    1381    1384    1385    1387    1385    1386
    1385    1388    1389    1391    1389    1390    1389    1392
    1393    1395    1393    1394    1393    1396    1397    1399
    1397    1398    1397    1400    1401    1403    1401    1402
    1401    1404    1405    1407    1405    1406    1405    1408
    1409    1411    1409    1410    1409    1412    1413    1415
    1413    1414    1413    1416    1417    1419    1417    1418
    1417    1420    1421    1423    1421    1422    1421    1424
    1425    1427    1425    1426    1425    1428    1429    1431
    1429    1430    1429    1432    1433    1435    1433    1434
    1433    1436    1437    1439    1437    1438    1437    1440
    1441    1443    1441    1442    1441    1444    1445    1447
    1445    1446    1445    1448    1449    1451    1449    1450
    1449    1452    1453    1455    1453    1454    1453    1456
    1457    1459    1457    1458    1457    1460    1461    1463
    1461    1462    1461    1464    1465    1467    1465    1466
    1465    1468    1469    1471    1469    1470    1469    1472
    1473    1475    1473    1474    1473    1476    1477    1479
    1477    1478    1477    1480    1481    1483    1481    1482
    1481    1484    1485    1487    1485    1486    1485    1488
    1489    1491    1489    1490    1489    1492    1493    1495
    1493    1494    1493    1496    1497    1499    1497    1498
    1497    1500    1501    1503    1501    1502    1501    1504
    1505    1507    1505    1506    1505    1508    1509    1511
    1509    1510    1509    1512    1513    1515    1513    1514
    1513    1516    1517    1519    1517    1518    1517    1520
    1521    1523    1521    1522    1521    1524    1525    1527
    1525    1526    1525    1528    1529    1531    1529    1530
    1529    1532    1533    1535    1533    1534    1533    1536
    1537    1539    1537    1538    1537    1540    1541    1543
    1541    1542    1541    1544    1545    1547    1545    1546
    1545    1548    1549    1551    1549    1550    1549    1552
    1553    1555    1553    1554    1553    1556    1557    1559
    1557    1558    1557    1560    1561    1563    1561    1562
    1561    1564    1565    1567    1565    1566    1565    1568
    1569    1571    1569    1570    1569    1572    1573    1575
    1573    1574    1573    1576    1577    1579    1577    1578
    1577    1580    1581    1583    1581    1582    1581    1584
    1585    1587    1585    1586    1585    1588    1589    1591
    1589    1590    1589    1592    1593    1595    1593    1594
    1593    1596    1597    1599    1597    1598    1597    1600
    1601    1603    1601    1602    1601    1604    1605    1607
    1605    1606    1605    1608    1609    1611    1609    1610
    1609    1612    1613    1615    1613    1614    1613    1616
    1617    1619    1617    1618    1617    1620    1621    1623
    1621    1622    1621    1624    1625    1627    1625    1626
    1625    1628    1629    1631    1629    1630    1629    1632
    1633    1635    1633    1634    1633    1636    1637    1639
    1637    1638    1637    1640    1641    1643    1641    1642
    1641    1644    1645    1647    1645    1646    1645    1648
    1649    1651    1649    1650    1649    1652    1653    1655
    1653    1654    1653    1656    1657    1659    1657    1658
    1657    1660    1661    1663    1661    1662    1661    1664
    1665    1667    1665    1666    1665    1668    1669    1671
    1669    1670    1669    1672    1673    1675    1673    1674
    1673    1676    1677    1679    1677    1678    1677    1680
    1681    1683    1681    1682    1681    1684    1685    1687
    1685    1686    1685    1688    1689    1691    1689    1690
    1689    1692    1693    1695    1693    1694    1693    1696
    1697    1699    1697    1698    1697    1700    1701    1703
    1701    1702    1701    1704    1705    1707    1705    1706
    1705    1708    1709    1711    1709    1710    1709    1712
    1713    1715    1713    1714    1713    1716    1717    1719
    1717    1718    1717    1720    1721    1723    1721    1722
    1721    1724    1725    1727    1725    1726    1725    1728
    1729    1731    1729    1730    1729    1732    1733    1735
    1733    1734    1733    1736    1737    1739    1737    1738
    1737    1740    1741    1743    1741    1742    1741    1744
    1745    1747    1745    1746    1745    1748    1749    1751
    1749    1750    1749    1752    1753    1755    1753    1754
    1753    1756    1757    1759    1757    1758    1757    1760
    1761    1763    1761    1762    1761    1764    1765    1767
    1765    1766    1765    1768    1769    1771    1769    1770
    1769    1772    1773    1775    1773    1774    1773    1776
    1777    1779    1777    1778    1777    1780    1781    1783
    1781    1782    1781    1784    1785    1787    1785    1786
    1785    1788    1789    1791    1789    1790    1789    1792
    1793    1795    1793    1794    1793    1796    1797    1799
    1797    1798    1797    1800    1801    1803    1801    1802
    1801    1804    1805    1807    1805    1806    1805    1808
    1809    1811    1809    1810    1809    1812    1813    1815
    1813    1814    1813    1816    1817    1819    1817    1818
    1817    1820    1821    1823    1821    1822    1821    1824
    1825    1827    1825    1826    1825    1828    1829    1831
    1829    1830    1829    1832    1833    1835    1833    1834
    1833    1836    1837    1839    1837    1838    1837    1840
    1841    1843    1841    1842    1841    1844    1845    1847
    1845    1846    1845    1848    1849    1851    1849    1850
    1849    1852    1853    1855    1853    1854    1853    1856
    1857    1859    1857    1858    1857    1860    1861    1863
    1861    1862    1861    1864    1865    1867    1865    1866
    1865    1868    1869    1871    1869    1870    1869    1872
    1873    1875    1873    1874    1873    1876    1877    1879
    1877    1878    1877    1880    1881    1883    1881    1882
    1881    1884    1885    1887    1885    1886    1885    1888
    1889    1891    1889    1890    1889    1892    1893    1895
    1893    1894    1893    1896    1897    1899    1897    1898
    1897    1900    1901    1903    1901    1902    1901    1904
    1905    1907    1905    1906    1905    1908    1909    1911
    1909    1910    1909    1912    1913    1915    1913    1914
    1913    1916    1917    1919    1917    1918    1917    1920
    1921    1923    1921    1922    1921    1924    1925    1927
    1925    1926    1925    1928    1929    1931    1929    1930
    1929    1932    1933    1935    1933    1934    1933    1936
    1937    1939    1937    1938    1937    1940    1941    1943
    1941    1942    1941    1944    1945    1947    1945    1946
    1945    1948    1949    1951    1949    1950    1949    1952
    1953    1955    1953    1954    1953    1956    1957    1959
    1957    1958    1957    1960    1961    1963    1961    1962
    1961    1964    1965    1967    1965    1966    1965    1968
    1969    1971    1969    1970    1969    1972    1973    1975
    1973    1974    1973    1976    1977    1979    1977    1978
    1977    1980    1981    1983    1981    1982    1981    1984
    1985    1987    1985    1986    1985    1988    1989    1991
    1989    1990    1989    1992    1993    1995    1993    1994
    1993    1996    1997    1999    1997    1998    1997    2000
    2001    2003    2001    2002    2001    2004    2005    2007
    2005    2006    2005    2008    2009    2011    2009    2010
    2009    2012    2013    2015    2013    2014    2013    2016
    2017    2019    2017    2018    2017    2020    2021    2023
    2021    2022    2021    2024    2025    2027    2025    2026
    2025    2028    2029    2031    2029    2030    2029    2032
    2033    2035    2033    2034    2033    2036    2037    2039
    2037    2038    2037    2040    2041    2043    2041    2042
    2041    2044    2045    2047    2045    2046    2045    2048
    2049    2051    2049    2050    2049    2052    2053    2055
    2053    2054    2053    2056    2057    2059    2057    2058
    2057    2060    2061    2063    2061    2062    2061    2064
    2065    2067    2065    2066    2065    2068    2069    2071
    2069    2070    2069    2072    2073    2075    2073    2074
    2073    2076    2077    2079    2077    2078    2077    2080
    2081    2083    2081    2082    2081    2084    2085    2087
    2085    2086    2085    2088    2089    2091    2089    2090
    2089    2092    2093    2095    2093    2094    2093    2096
    2097    2099    2097    2098    2097    2100    2101    2103
    2101    2102    2101    2104    2105    2107    2105    2106
    2105    2108    2109    2111    2109    2110    2109    2112
    2113    2115    2113    2114    2113    2116    2117    2119
    2117    2118    2117    2120    2121    2123    2121    2122
    2121    2124    2125    2127    2125    2126    2125    2128
    2129    2131    2129    2130    2129    2132    2133    2135
    2133    2134    2133    2136    2137    2139    2137    2138
    2137    2140    2141    2143    2141    2142    2141    2144
    2145    2147    2145    2146    2145    2148    2149    2151
    2149    2150    2149    2152    2153    2155    2153    2154
    2153    2156    2157    2159    2157    2158    2157    2160
    2161    2163    2161    2162    2161    2164    2165    2167
    2165    2166    2165    2168    2169    2171    2169    2170
    2169    2172    2173    2175    2173    2174    2173    2176
    2177    2179    2177    2178    2177    2180    2181    2183
    2181    2182    2181    2184    2185    2187    2185    2186
    2185    2188    2189    2191    2189    2190    2189    2192
    2193    2195    2193    2194    2193    2196    2197    2199
    2197    2198    2197    2200    2201    2203    2201    2202
    2201    2204    2205    2207    2205    2206    2205    2208
    2209    2211    2209    2210    2209    2212    2213    2215
    2213    2214    2213    2216    2217    2219    2217    2218
    2217    2220    2221    2223    2221    2222    2221    2224
    2225    2227    2225    2226    2225    2228    2229    2231
    2229    2230    2229    2232    2233    2235    2233    2234
    2233    2236    2237    2239    2237    2238    2237    2240
    2241    2243    2241    2242    2241    2244    2245    2247
    2245    2246    2245    2248    2249    2251    2249    2250
    2249    2252    2253    2255    2253    2254    2253    2256
    2257    2259    2257    2258    2257    2260    2261    2263
    2261    2262    2261    2264    2265    2267    2265    2266
    2265    2268    2269    2271    2269    2270    2269    2272
    2273    2275    2273    2274    2273    2276    2277    2279
    2277    2278    2277    2280    2281    2283    2281    2282
    2281    2284    2285    2287    2285    2286    2285    2288
    2289    2291    2289    2290    2289    2292    2293    2295
    2293    2294    2293    2296    2297    2299    2297    2298
    2297    2300    2301    2303    2301    2302    2301    2304
    2305    2307    2305    2306    2305    2308    2309    2311
    2309    2310    2309    2312    2313    2315    2313    2314
    2313    2316    2317    2319    2317    2318    2317    2320
    2321    2323    2321    2322    2321    2324    2325    2327
    2325    2326    2325    2328    2329    2331    2329    2330
    2329    2332    2333    2335    2333    2334    2333    2336
    2337    2339    2337    2338    2337    2340    2341    2343
    2341    2342    2341    2344    2345    2347    2345    2346
    2345    2348    2349    2351    2349    2350    2349    2352
    2353    2355    2353    2354    2353    2356    2357    2359
    2357    2358    2357    2360    2361    2363    2361    2362
    2361    2364    2365    2367    2365    2366    2365    2368
    2369    2371    2369    2370    2369    2372    2373    2375
    2373    2374    2373    2376    2377    2379    2377    2378
    2377    2380    2381    2383    2381    2382    2381    2384
    2385    2387    2385    2386    2385    2388    2389    2391
    2389    2390    2389    2392    2393    2395    2393    2394
    2393    2396    2397    2399    2397    2398    2397    2400
    2401    2403    2401    2402    2401    2404    2405    2407
    2405    2406    2405    2408    2409    2411    2409    2410
    2409    2412    2413    2415    2413    2414    2413    2416
    2417    2419    2417    2418    2417    2420    2421    2423
    2421    2422    2421    2424    2425    2427    2425    2426
    2425    2428    2429    2431    2429    2430    2429    2432
    2433    2435    2433    2434    2433    2436    2437    2439
    2437    2438    2437    2440    2441    2443    2441    2442
    2441    2444    2445    2447    2445    2446    2445    2448
    2449    2451    2449    2450    2449    2452    2453    2455
    2453    2454    2453    2456    2457    2459    2457    2458
    2457    2460    2461    2463    2461    2462    2461    2464
    2465    2467    2465    2466    2465    2468    2469    2471
    2469    2470    2469    2472    2473    2475    2473    2474
    2473    2476    2477    2479    2477    2478    2477    2480
    2481    2483    2481    2482    2481    2484    2485    2487
    2485    2486    2485    2488    2489    2491    2489    2490
    2489    2492    2493    2495    2493    2494    2493    2496
    2497    2499    2497    2498    2497    2500    2501    2503
    2501    2502    2501    2504    2505    2507    2505    2506
    2505    2508    2509    2511    2509    2510    2509    2512
    2513    2515    2513    2514    2513    2516    2517    2519
    2517    2518    2517    2520    2521    2523    2521    2522
    2521    2524    2525    2527    2525    2526    2525    2528
    2529    2531    2529    2530    2529    2532    2533    2535
    2533    2534    2533    2536    2537    2539    2537    2538
    2537    2540    2541    2543    2541    2542    2541    2544
    2545    2547    2545    2546    2545    2548    2549    2551
    2549    2550    2549    2552    2553    2555    2553    2554
    2553    2556    2557    2559    2557    2558    2557    2560
    2561    2563    2561    2562    2561    2564    2565    2567
    2565    2566    2565    2568    2569    2571    2569    2570
    2569    2572    2573    2575    2573    2574    2573    2576
    2577    2579    2577    2578    2577    2580    2581    2583
    2581    2582    2581    2584    2585    2587    2585    2586
    2585    2588    2589    2591    2589    2590    2589    2592
    2593    2595    2593    2594    2593    2596    2597    2599
    2597    2598    2597    2600    2601    2603    2601    2602
    2601    2604    2605    2607    2605    2606    2605    2608
    2609    2611    2609    2610    2609    2612    2613    2615
    2613    2614    2613    2616    2617    2619    2617    2618
    2617    2620    2621    2623    2621    2622    2621    2624
    2625    2627    2625    2626    2625    2628    2629    2631
    2629    2630    2629    2632    2633    2635    2633    2634
    2633    2636    2637    2639    2637    2638    2637    2640
    2641    2643    2641    2642    2641    2644    2645    2647
    2645    2646    2645    2648    2649    2651    2649    2650
    2649    2652    2653    2655    2653    2654    2653    2656
    2657    2659    2657    2658    2657    2660    2661    2663
    2661    2662    2661    2664    2665    2667    2665    2666
    2665    2668    2669    2671    2669    2670    2669    2672
    2673    2675    2673    2674    2673    2676    2677    2679
    2677    2678    2677    2680    2681    2683    2681    2682
    2681    2684    2685    2687    2685    2686    2685    2688
    2689    2691    2689    2690    2689    2692    2693    2695
    2693    2694    2693    2696    2697    2699    2697    2698
    2697    2700    2701    2703    2701    2702    2701    2704
    2705    2707    2705    2706    2705    2708    2709    2711
    2709    2710    2709    2712    2713    2715    2713    2714
    2713    2716    2717    2719    2717    2718    2717    2720
    2721    2723    2721    2722    2721    2724    2725    2727
    2725    2726    2725    2728    2729    2731    2729    2730
    2729    2732    2733    2735    2733    2734    2733    2736
    2737    2739    2737    2738    2737    2740    2741    2743
    2741    2742    2741    2744    2745    2747    2745    2746
    2745    2748    2749    2751    2749    2750    2749    2752
    2753    2755    2753    2754    2753    2756    2757    2759
    2757    2758    2757    2760    2761    2763    2761    2762
    2761    2764    2765    2767    2765    2766    2765    2768
    2769    2771    2769    2770    2769    2772    2773    2775
    2773    2774    2773    2776    2777    2779    2777    2778
    2777    2780    2781    2783    2781    2782    2781    2784
    2785    2787    2785    2786    2785    2788    2789    2791
    2789    2790    2789    2792    2793    2795    2793    2794
    2793    2796    2797    2799    2797    2798    2797    2800
    2801    2803    2801    2802    2801    2804    2805    2807
    2805    2806    2805    2808    2809    2811    2809    2810
    2809    2812    2813    2815    2813    2814    2813    2816
    2817    2819    2817    2818    2817    2820    2821    2823
    2821    2822    2821    2824    2825    2827    2825    2826
    2825    2828    2829    2831    2829    2830    2829    2832
    2833    2835    2833    2834    2833    2836    2837    2839
    2837    2838    2837    2840    2841    2843    2841    2842
    2841    2844    2845    2847    2845    2846    2845    2848
    2849    2851    2849    2850    2849    2852    2853    2855
    2853    2854    2853    2856    2857    2859    2857    2858
    2857    2860    2861    2863    2861    2862    2861    2864
    2865    2867    2865    2866    2865    2868    2869    2871
    2869    2870    2869    2872    2873    2875    2873    2874
    2873    2876    2877    2879    2877    2878    2877    2880
    2881    2883    2881    2882    2881    2884    2885    2887
    2885    2886    2885    2888    2889    2891    2889    2890
    2889    2892    2893    2895    2893    2894    2893    2896
    2897    2899    2897    2898    2897    2900    2901    2903
    2901    2902    2901    2904    2905    2907    2905    2906
    2905    2908    2909    2911    2909    2910    2909    2912
    2913    2915    2913    2914    2913    2916    2917    2919
    2917    2918    2917    2920    2921    2923    2921    2922
    2921    2924    2925    2927    2925    2926    2925    2928
    2929    2931    2929    2930    2929    2932    2933    2935
    2933    2934    2933    2936    2937    2939    2937    2938
    2937    2940    2941    2943    2941    2942    2941    2944
    2945    2947    2945    2946    2945    2948    2949    2951
    2949    2950    2949    2952    2953    2955    2953    2954
    2953    2956    2957    2959    2957    2958    2957    2960
    2961    2963    2961    2962    2961    2964    2965    2967
    2965    2966    2965    2968    2969    2971    2969    2970
    2969    2972    2973    2975    2973    2974    2973    2976
    2977    2979    2977    2978    2977    2980    2981    2983
    2981    2982    2981    2984    2985    2987    2985    2986
    2985    2988    2989    2991    2989    2990    2989    2992
    2993    2995    2993    2994    2993    2996    2997    2999
    2997    2998    2997    3000    3001    3003    3001    3002
    3001    3004    3005    3007    3005    3006    3005    3008
    3009    3011    3009    3010    3009    3012    3013    3015
    3013    3014    3013    3016    3017    3019    3017    3018
    3017    3020    3021    3023    3021    3022    3021    3024
    3025    3027    3025    3026    3025    3028    3029    3031
    3029    3030    3029    3032    3033    3035    3033    3034
    3033    3036    3037    3039    3037    3038    3037    3040
    3041    3043    3041    3042    3041    3044    3045    3047
    3045    3046    3045    3048    3049    3051    3049    3050
    3049    3052    3053    3055    3053    3054    3053    3056
    3057    3059    3057    3058    3057    3060    3061    3063
    3061    3062    3061    3064    3065    3067    3065    3066
    3065    3068    3069    3071    3069    3070    3069    3072
    3073    3075    3073    3074    3073    3076    3077    3079
    3077    3078    3077    3080    3081    3083    3081    3082
    3081    3084    3085    3087    3085    3086    3085    3088
    3089    3091    3089    3090    3089    3092    3093    3095
    3093    3094    3093    3096    3097    3099    3097    3098
    3097    3100    3101    3103    3101    3102    3101    3104
    3105    3107    3105    3106    3105    3108    3109    3111
    3109    3110    3109    3112    3113    3115    3113    3114
    3113    3116    3117    3119    3117    3118    3117    3120
    3121    3123    3121    3122    3121    3124    3125    3127
    3125    3126    3125    3128    3129    3131    3129    3130
    3129    3132    3133    3135    3133    3134    3133    3136
    3137    3139    3137    3138    3137    3140    3141    3143
    3141    3142    3141    3144    3145    3147    3145    3146
    3145    3148    3149    3151    3149    3150    3149    3152
    3153    3155    3153    3154    3153    3156    3157    3159
    3157    3158    3157    3160    3161    3163    3161    3162
    3161    3164    3165    3167    3165    3166    3165    3168
    3169    3171    3169    3170    3169    3172    3173    3175
    3173    3174    3173    3176    3177    3179    3177    3178
    3177    3180    3181    3183    3181    3182    3181    3184
    3185    3187    3185    3186    3185    3188    3189    3191
    3189    3190    3189    3192    3193    3195    3193    3194
    3193    3196    3197    3199    3197    3198    3197    3200
    3201    3203    3201    3202    3201    3204    3205    3207
    3205    3206    3205    3208    3209    3211    3209    3210
    3209    3212    3213    3215    3213    3214    3213    3216
    3217    3219    3217    3218    3217    3220    3221    3223
    3221    3222    3221    3224    3225    3227    3225    3226
    3225    3228    3229    3231    3229    3230    3229    3232
    3233    3235    3233    3234    3233    3236    3237    3239
    3237    3238    3237    3240    3241    3243    3241    3242
    3241    3244    3245    3247    3245    3246    3245    3248
    3249    3251    3249    3250    3249    3252    3253    3255
    3253    3254    3253    3256    3257    3259    3257    3258
    3257    3260    3261    3263    3261    3262    3261    3264
    3265    3267    3265    3266    3265    3268    3269    3271
    3269    3270    3269    3272    3273    3275    3273    3274
    3273    3276    3277    3279    3277    3278    3277    3280
    3281    3283    3281    3282    3281    3284    3285    3287
    3285    3286    3285    3288    3289    3291    3289    3290
    3289    3292    3293    3295    3293    3294    3293    3296
    3297    3299    3297    3298    3297    3300    3301    3303
    3301    3302    3301    3304    3305    3307    3305    3306
    3305    3308    3309    3311    3309    3310    3309    3312
    3313    3315    3313    3314    3313    3316    3317    3319
    3317    3318    3317    3320    3321    3323    3321    3322
    3321    3324    3325    3327    3325    3326    3325    3328
    3329    3331    3329    3330    3329    3332    3333    3335
    3333    3334    3333    3336    3337    3339    3337    3338
    3337    3340    3341    3343    3341    3342    3341    3344
    3345    3347    3345    3346    3345    3348    3349    3351
    3349    3350    3349    3352    3353    3355    3353    3354
    3353    3356    3357    3359    3357    3358    3357    3360
    3361    3363    3361    3362    3361    3364    3365    3367
    3365    3366    3365    3368    3369    3371    3369    3370
    3369    3372    3373    3375    3373    3374    3373    3376
    3377    3379    3377    3378    3377    3380    3381    3383
    3381    3382    3381    3384    3385    3387    3385    3386
    3385    3388    3389    3391    3389    3390    3389    3392
    3393    3395    3393    3394    3393    3396    3397    3399
    3397    3398    3397    3400    3401    3403    3401    3402
    3401    3404    3405    3407    3405    3406    3405    3408
    3409    3411    3409    3410    3409    3412    3413    3415
    3413    3414    3413    3416    3417    3419    3417    3418
    3417    3420    3421    3423    3421    3422    3421    3424
    3425    3427    3425    3426    3425    3428    3429    3431
    3429    3430    3429    3432    3433    3435    3433    3434
    3433    3436    3437    3439    3437    3438    3437    3440
    3441    3443    3441    3442    3441    3444    3445    3447
    3445    3446    3445    3448    3449    3451    3449    3450
    3449    3452    3453    3455    3453    3454    3453    3456
    3457    3459    3457    3458    3457    3460    3461    3463
    3461    3462    3461    3464    3465    3467    3465    3466
    3465    3468    3469    3471    3469    3470    3469    3472
    3473    3475    3473    3474    3473    3476    3477    3479
    3477    3478    3477    3480    3481    3483    3481    3482
    3481    3484    3485    3487    3485    3486    3485    3488
    3489    3491    3489    3490    3489    3492    3493    3495
    3493    3494    3493    3496    3497    3499    3497    3498
    3497    3500    3501    3503    3501    3502    3501    3504
    3505    3507    3505    3506    3505    3508    3509    3511
    3509    3510    3509    3512    3513    3515    3513    3514
    3513    3516    3517    3519    3517    3518    3517    3520
    3521    3523    3521    3522    3521    3524    3525    3527
    3525    3526    3525    3528    3529    3531    3529    3530
    3529    3532    3533    3535    3533    3534    3533    3536
    3537    3539    3537    3538    3537    3540    3541    3543
    3541    3542    3541    3544    3545    3547    3545    3546
    3545    3548    3549    3551    3549    3550    3549    3552
    3553    3555    3553    3554    3553    3556    3557    3559
    3557    3558    3557    3560    3561    3563    3561    3562
    3561    3564    3565    3567    3565    3566    3565    3568
    3569    3571    3569    3570    3569    3572    3573    3575
    3573    3574    3573    3576    3577    3579    3577    3578
    3577    3580    3581    3583    3581    3582    3581    3584
    3585    3587    3585    3586    3585    3588    3589    3591
    3589    3590    3589    3592    3593    3595    3593    3594
    3593    3596    3597    3599    3597    3598    3597    3600
    3601    3603    3601    3602    3601    3604    3605    3607
    3605    3606    3605    3608    3609    3611    3609    3610
    3609    3612    3613    3615    3613    3614    3613    3616
    3617    3619    3617    3618    3617    3620    3621    3623
    3621    3622    3621    3624    3625    3627    3625    3626
    3625    3628    3629    3631    3629    3630    3629    3632
    3633    3635    3633    3634    3633    3636    3637    3639
    3637    3638    3637    3640    3641    3643    3641    3642
    3641    3644    3645    3647    3645    3646    3645    3648
    3649    3651    3649    3650    3649    3652    3653    3655
    3653    3654    3653    3656    3657    3659    3657    3658
    3657    3660    3661    3663    3661    3662    3661    3664
    3665    3667    3665    3666    3665    3668    3669    3671
    3669    3670    3669    3672    3673    3675    3673    3674
    3673    3676    3677    3679    3677    3678    3677    3680
    3681    3683    3681    3682    3681    3684    3685    3687
    3685    3686    3685    3688    3689    3691    3689    3690
    3689    3692    3693    3695    3693    3694    3693    3696
    3697    3699    3697    3698    3697    3700    3701    3703
    3701    3702    3701    3704    3705    3707    3705    3706
    3705    3708    3709    3711    3709    3710    3709    3712
    3713    3715    3713    3714    3713    3716    3717    3719
    3717    3718    3717    3720    3721    3723    3721    3722
    3721    3724    3725    3727    3725    3726    3725    3728
    3729    3731    3729    3730    3729    3732    3733    3735
    3733    3734    3733    3736    3737    3739    3737    3738
    3737    3740    3741    3743    3741    3742    3741    3744
    3745    3747    3745    3746    3745    3748    3749    3751
    3749    3750    3749    3752    3753    3755    3753    3754
    3753    3756    3757    3759    3757    3758    3757    3760
    3761    3763    3761    3762    3761    3764    3765    3767
    3765    3766    3765    3768    3769    3771    3769    3770
    3769    3772    3773    3775    3773    3774    3773    3776
    3777    3779    3777    3778    3777    3780    3781    3783
    3781    3782    3781    3784    3785    3787    3785    3786
    3785    3788    3789    3791    3789    3790    3789    3792
    3793    3795    3793    3794    3793    3796    3797    3799
    3797    3798    3797    3800    3801    3803    3801    3802
    3801    3804    3805    3807    3805    3806    3805    3808
    3809    3811    3809    3810    3809    3812    3813    3815
    3813    3814    3813    3816    3817    3819    3817    3818
    3817    3820    3821    3823    3821    3822    3821    3824
    3825    3827    3825    3826    3825    3828    3829    3831
    3829    3830    3829    3832    3833    3835    3833    3834
    3833    3836    3837    3839    3837    3838    3837    3840
    3841    3843    3841    3842    3841    3844    3845    3847
    3845    3846    3845    3848    3849    3851    3849    3850
    3849    3852    3853    3855    3853    3854    3853    3856
    3857    3859    3857    3858    3857    3860    3861    3863
    3861    3862    3861    3864    3865    3867    3865    3866
    3865    3868    3869    3871    3869    3870    3869    3872
    3873    3875    3873    3874    3873    3876    3877    3879
    3877    3878    3877    3880    3881    3883    3881    3882
    3881    3884    3885    3887    3885    3886    3885    3888
    3889    3891    3889    3890    3889    3892    3893    3895
    3893    3894    3893    3896    3897    3899    3897    3898
    3897    3900    3901    3903    3901    3902    3901    3904
    3905    3907    3905    3906    3905    3908    3909    3911
    3909    3910    3909    3912    3913    3915    3913    3914
    3913    3916    3917    3919    3917    3918    3917    3920
    3921    3923    3921    3922    3921    3924    3925    3927
    3925    3926    3925    3928    3929    3931    3929    3930
    3929    3932    3933    3935    3933    3934    3933    3936
    3937    3939    3937    3938    3937    3940    3941    3943
    3941    3942    3941    3944    3945    3947    3945    3946
    3945    3948    3949    3951    3949    3950    3949    3952
    3953    3955    3953    3954    3953    3956    3957    3959
    3957    3958    3957    3960    3961    3963    3961    3962
    3961    3964    3965    3967    3965    3966    3965    3968
    3969    3971    3969    3970    3969    3972    3973    3975
    3973    3974    3973    3976    3977    3979    3977    3978
    3977    3980    3981    3983    3981    3982    3981    3984
    3985    3987    3985    3986    3985    3988    3989    3991
    3989    3990    3989    3992    3993    3995    3993    3994
    3993    3996    3997    3999    3997    3998    3997    4000
    4001    4003    4001    4002    4001    4004    4005    4007
    4005    4006    4005    4008    4009    4011    4009    4010
    4009    4012    4013    4015    4013    4014    4013    4016
    4017    4019    4017    4018    4017    4020    4021    4023
    4021    4022    4021    4024    4025    4027    4025    4026
    4025    4028    4029    4031    4029    4030    4029    4032
    4033    4035    4033    4034    4033    4036    4037    4039
    4037    4038    4037    4040    4041    4043    4041    4042
    4041    4044    4045    4047    4045    4046    4045    4048
    4049    4051    4049    4050    4049    4052    4053    4055
    4053    4054    4053    4056    4057    4059    4057    4058
    4057    4060    4061    4063    4061    4062    4061    4064
    4065    4067    4065    4066    4065    4068    4069    4071
    4069    4070    4069    4072    4073    4075    4073    4074
    4073    4076    4077    4079    4077    4078    4077    4080
    4081    4083    4081    4082    4081    4084    4085    4087
    4085    4086    4085    4088    4089    4091    4089    4090
    4089    4092    4093    4095    4093    4094    4093    4096
    4097    4099    4097    4098    4097    4100    4101    4103
    4101    4102    4101    4104    4105    4107    4105    4106
    4105    4108    4109    4111    4109    4110    4109    4112
    4113    4115    4113    4114    4113    4116    4117    4119
    4117    4118    4117    4120    4121    4123    4121    4122
    4121    4124    4125    4127    4125    4126    4125    4128
    4129    4131    4129    4130    4129    4132    4133    4135
    4133    4134    4133    4136    4137    4139    4137    4138
    4137    4140    4141    4143    4141    4142    4141    4144
    4145    4147    4145    4146    4145    4148    4149    4151
    4149    4150    4149    4152    4153    4155    4153    4154
    4153    4156    4157    4159    4157    4158    4157    4160
    4161    4163    4161    4162    4161    4164    4165    4167
    4165    4166    4165    4168    4169    4171    4169    4170
    4169    4172    4173    4175    4173    4174    4173    4176
    4177    4179    4177    4178    4177    4180    4181    4183
    4181    4182    4181    4184    4185    4187    4185    4186
    4185    4188    4189    4191    4189    4190    4189    4192
    4193    4195    4193    4194    4193    4196    4197    4199
    4197    4198    4197    4200    4201    4203    4201    4202
    4201    4204    4205    4207    4205    4206    4205    4208
    4209    4211    4209    4210    4209    4212    4213    4215
    4213    4214    4213    4216    4217    4219    4217    4218
    4217    4220    4221    4223    4221    4222    4221    4224
    4225    4227    4225    4226    4225    4228    4229    4231
    4229    4230    4229    4232    4233    4235    4233    4234
    4233    4236    4237    4239    4237    4238    4237    4240
    4241    4243    4241    4242    4241    4244    4245    4247
    4245    4246    4245    4248    4249    4251    4249    4250
    4249    4252    4253    4255    4253    4254    4253    4256
    4257    4259    4257    4258    4257    4260    4261    4263
    4261    4262    4261    4264    4265    4267    4265    4266
    4265    4268    4269    4271    4269    4270    4269    4272
    4273    4275    4273    4274    4273    4276    4277    4279
    4277    4278    4277    4280    4281    4283    4281    4282
    4281    4284    4285    4287    4285    4286    4285    4288
    4289    4291    4289    4290    4289    4292    4293    4295
    4293    4294    4293    4296    4297    4299    4297    4298
    4297    4300    4301    4303    4301    4302    4301    4304
    4305    4307    4305    4306    4305    4308    4309    4311
    4309    4310    4309    4312    4313    4315    4313    4314
    4313    4316    4317    4319    4317    4318    4317    4320
    4321    4323    4321    4322    4321    4324    4325    4327
    4325    4326    4325    4328    4329    4331    4329    4330
    4329    4332    4333    4335    4333    4334    4333    4336
    4337    4339    4337    4338    4337    4340    4341    4343
    4341    4342    4341    4344    4345    4347    4345    4346
    4345    4348    4349    4351    4349    4350    4349    4352
    4353    4355    4353    4354    4353    4356    4357    4359
    4357    4358    4357    4360    4361    4363    4361    4362
    4361    4364    4365    4367    4365    4366    4365    4368
    4369    4371    4369    4370    4369    4372    4373    4375
    4373    4374    4373    4376    4377    4379    4377    4378
    4377    4380    4381    4383    4381    4382    4381    4384
    4385    4387    4385    4386    4385    4388    4389    4391
    4389    4390    4389    4392    4393    4395    4393    4394
    4393    4396    4397    4399    4397    4398    4397    4400
    4401    4403    4401    4402    4401    4404    4405    4407
    4405    4406    4405    4408    4409    4411    4409    4410
    4409    4412    4413    4415    4413    4414    4413    4416
    4417    4419    4417    4418    4417    4420    4421    4423
    4421    4422    4421    4424    4425    4427    4425    4426
    4425    4428    4429    4431    4429    4430    4429    4432
    4433    4435    4433    4434    4433    4436    4437    4439
    4437    4438    4437    4440    4441    4443    4441    4442
    4441    4444    4445    4447    4445    4446    4445    4448
    4449    4451    4449    4450    4449    4452    4453    4455
    4453    4454    4453    4456    4457    4459    4457    4458
    4457    4460    4461    4463    4461    4462    4461    4464
    4465    4467    4465    4466    4465    4468    4469    4471
    4469    4470    4469    4472    4473    4475    4473    4474
    4473    4476    4477    4479    4477    4478    4477    4480
    4481    4483    4481    4482    4481    4484    4485    4487
    4485    4486    4485    4488    4489    4491    4489    4490
    4489    4492    4493    4495    4493    4494    4493    4496
    4497    4499    4497    4498    4497    4500    4501    4503
    4501    4502    4501    4504    4505    4507    4505    4506
    4505    4508    4509    4511    4509    4510    4509    4512
    4513    4515    4513    4514    4513    4516    4517    4519
    4517    4518    4517    4520    4521    4523    4521    4522
    4521    4524    4525    4527    4525    4526    4525    4528
    4529    4531    4529    4530    4529    4532    4533    4535
    4533    4534    4533    4536    4537    4539    4537    4538
    4537    4540    4541    4543    4541    4542    4541    4544
    4545    4547    4545    4546    4545    4548    4549    4551
    4549    4550    4549    4552    4553    4555    4553    4554
    4553    4556    4557    4559    4557    4558    4557    4560
    4561    4563    4561    4562    4561    4564    4565    4567
    4565    4566    4565    4568    4569    4571    4569    4570
    4569    4572    4573    4575    4573    4574    4573    4576
    4577    4579    4577    4578    4577    4580    4581    4583
    4581    4582    4581    4584    4585    4587    4585    4586
    4585    4588    4589    4591    4589    4590    4589    4592
    4593    4595    4593    4594    4593    4596    4597    4599
    4597    4598    4597    4600    4601    4603    4601    4602
    4601    4604    4605    4607    4605    4606    4605    4608
    4609    4611    4609    4610    4609    4612    4613    4615
    4613    4614    4613    4616    4617    4619    4617    4618
    4617    4620    4621    4623    4621    4622    4621    4624
    4625    4627    4625    4626    4625    4628    4629    4631
    4629    4630    4629    4632    4633    4635    4633    4634
    4633    4636    4637    4639    4637    4638    4637    4640
    4641    4643    4641    4642    4641    4644    4645    4647
    4645    4646    4645    4648    4649    4651    4649    4650
    4649    4652    4653    4655    4653    4654    4653    4656
    4657    4659    4657    4658    4657    4660    4661    4663
    4661    4662    4661    4664    4665    4667    4665    4666
    4665    4668    4669    4671    4669    4670    4669    4672
    4673    4675    4673    4674    4673    4676    4677    4679
    4677    4678    4677    4680    4681    4683    4681    4682
    4681    4684    4685    4687    4685    4686    4685    4688
    4689    4691    4689    4690    4689    4692    4693    4695
    4693    4694    4693    4696    4697    4699    4697    4698
    4697    4700    4701    4703    4701    4702    4701    4704
    4705    4707    4705    4706    4705    4708    4709    4711
    4709    4710    4709    4712    4713    4715    4713    4714
    4713    4716    4717    4719    4717    4718    4717    4720
    4721    4723    4721    4722    4721    4724    4725    4727
    4725    4726    4725    4728    4729    4731    4729    4730
    4729    4732    4733    4735    4733    4734    4733    4736
    4737    4739    4737    4738    4737    4740    4741    4743
    4741    4742    4741    4744    4745    4747    4745    4746
    4745    4748    4749    4751    4749    4750    4749    4752
    4753    4755    4753    4754    4753    4756    4757    4759
    4757    4758    4757    4760    4761    4763    4761    4762
    4761    4764    4765    4767    4765    4766    4765    4768
    4769    4771    4769    4770    4769    4772    4773    4775
    4773    4774    4773    4776    4777    4779    4777    4778
    4777    4780    4781    4783    4781    4782    4781    4784
    4785    4787    4785    4786    4785    4788    4789    4791
    4789    4790    4789    4792    4793    4795    4793    4794
    4793    4796    4797    4799    4797    4798    4797    4800
    4801    4803    4801    4802    4801    4804    4805    4807
    4805    4806    4805    4808    4809    4811    4809    4810
    4809    4812    4813    4815    4813    4814    4813    4816
    4817    4819    4817    4818    4817    4820    4821    4823
    4821    4822    4821    4824    4825    4827    4825    4826
    4825    4828    4829    4831    4829    4830    4829    4832
    4833    4835    4833    4834    4833    4836    4837    4839
    4837    4838    4837    4840    4841    4843    4841    4842
    4841    4844    4845    4847    4845    4846    4845    4848
    4849    4851    4849    4850    4849    4852    4853    4855
    4853    4854    4853    4856    4857    4859    4857    4858
    4857    4860    4861    4863    4861    4862    4861    4864
    4865    4867    4865    4866    4865    4868    4869    4871
    4869    4870    4869    4872    4873    4875    4873    4874
    4873    4876    4877    4879    4877    4878    4877    4880
    4881    4883    4881    4882    4881    4884    4885    4887
    4885    4886    4885    4888    4889    4891    4889    4890
    4889    4892    4893    4895    4893    4894    4893    4896
    4897    4899    4897    4898    4897    4900    4901    4903
    4901    4902    4901    4904    4905    4907    4905    4906
    4905    4908    4909    4911    4909    4910    4909    4912
    4913    4915    4913    4914    4913    4916    4917    4919
    4917    4918    4917    4920    4921    4923    4921    4922
    4921    4924    4925    4927    4925    4926    4925    4928
    4929    4931    4929    4930    4929    4932    4933    4935
    4933    4934    4933    4936    4937    4939    4937    4938
    4937    4940    4941    4943    4941    4942    4941    4944
    4945    4947    4945    4946    4945    4948    4949    4951
    4949    4950    4949    4952    4953    4955    4953    4954
    4953    4956    4957    4959    4957    4958    4957    4960
    4961    4963    4961    4962    4961    4964    4965    4967
    4965    4966    4965    4968    4969    4971    4969    4970
    4969    4972    4973    4975    4973    4974    4973    4976
    4977    4979    4977    4978    4977    4980    4981    4983
    4981    4982    4981    4984    4985    4987    4985    4986
    4985    4988    4989    4991    4989    4990    4989    4992
    4993    4995    4993    4994    4993    4996    4997    4999
    4997    4998    4997    5000    5001    5003    5001    5002
    5001    5004    5005    5007    5005    5006    5005    5008
    5009    5011    5009    5010    5009    5012    5013    5015
    5013    5014    5013    5016    5017    5019    5017    5018
    5017    5020    5021    5023    5021    5022    5021    5024
    5025    5027    5025    5026    5025    5028    5029    5031
    5029    5030    5029    5032    5033    5035    5033    5034
    5033    5036    5037    5039    5037    5038    5037    5040
    5041    5043    5041    5042    5041    5044    5045    5047
    5045    5046    5045    5048    5049    5051    5049    5050
    5049    5052    5053    5055    5053    5054    5053    5056
    5057    5059    5057    5058    5057    5060    5061    5063
    5061    5062    5061    5064    5065    5067    5065    5066
    5065    5068    5069    5071    5069    5070    5069    5072
    5073    5075    5073    5074    5073    5076    5077    5079
    5077    5078    5077    5080    5081    5083    5081    5082
    5081    5084    5085    5087    5085    5086    5085    5088
    5089    5091    5089    5090    5089    5092    5093    5095
    5093    5094    5093    5096    5097    5099    5097    5098
    5097    5100    5101    5103    5101    5102    5101    5104
    5105    5107    5105    5106    5105    5108    5109    5111
    5109    5110    5109    5112    5113    5115    5113    5114
    5113    5116    5117    5119    5117    5118    5117    5120
    5121    5123    5121    5122    5121    5124    5125    5127
    5125    5126    5125    5128    5129    5131    5129    5130
    5129    5132    5133    5135    5133    5134    5133    5136
    5137    5139    5137    5138    5137    5140    5141    5143
    5141    5142    5141    5144    5145    5147    5145    5146
    5145    5148    5149    5151    5149    5150    5149    5152
    5153    5155    5153    5154    5153    5156    5157    5159
    5157    5158    5157    5160    5161    5163    5161    5162
    5161    5164    5165    5167    5165    5166    5165    5168
    5169    5171    5169    5170    5169    5172    5173    5175
    5173    5174    5173    5176    5177    5179    5177    5178
    5177    5180    5181    5183    5181    5182    5181    5184
    5185    5187    5185    5186    5185    5188    5189    5191
    5189    5190    5189    5192    5193    5195    5193    5194
    5193    5196    5197    5199    5197    5198    5197    5200
    5201    5203    5201    5202    5201    5204    5205    5207
    5205    5206    5205    5208    5209    5211    5209    5210
    5209    5212    5213    5215    5213    5214    5213    5216
    5217    5219    5217    5218    5217    5220    5221    5223
    5221    5222    5221    5224    5225    5227    5225    5226
    5225    5228    5229    5231    5229    5230    5229    5232
    5233    5235    5233    5234    5233    5236    5237    5239
    5237    5238    5237    5240    5241    5243    5241    5242
    5241    5244    5245    5247    5245    5246    5245    5248
    5249    5251    5249    5250    5249    5252    5253    5255
    5253    5254    5253    5256    5257    5259    5257    5258
    5257    5260    5261    5263    5261    5262    5261    5264
    5265    5267    5265    5266    5265    5268    5269    5271
    5269    5270    5269    5272    5273    5275    5273    5274
    5273    5276    5277    5279    5277    5278    5277    5280
    5281    5283    5281    5282    5281    5284    5285    5287
    5285    5286    5285    5288    5289    5291    5289    5290
    5289    5292    5293    5295    5293    5294    5293    5296
    5297    5299    5297    5298    5297    5300    5301    5303
    5301    5302    5301    5304    5305    5307    5305    5306
    5305    5308    5309    5311    5309    5310    5309    5312
    5313    5315    5313    5314    5313    5316    5317    5319
    5317    5318    5317    5320    5321    5323    5321    5322
    5321    5324    5325    5327    5325    5326    5325    5328
    5329    5331    5329    5330    5329    5332    5333    5335
    5333    5334    5333    5336    5337    5339    5337    5338
    5337    5340    5341    5343    5341    5342    5341    5344
    5345    5347    5345    5346    5345    5348    5349    5351
    5349    5350    5349    5352    5353    5355    5353    5354
    5353    5356    5357    5359    5357    5358    5357    5360
    5361    5363    5361    5362    5361    5364    5365    5367
    5365    5366    5365    5368    5369    5371    5369    5370
    5369    5372    5373    5375    5373    5374    5373    5376
    5377    5379    5377    5378    5377    5380    5381    5383
    5381    5382    5381    5384    5385    5387    5385    5386
    5385    5388    5389    5391    5389    5390    5389    5392
    5393    5395    5393    5394    5393    5396    5397    5399
    5397    5398    5397    5400    5401    5403    5401    5402
    5401    5404    5405    5407    5405    5406    5405    5408
    5409    5411    5409    5410    5409    5412    5413    5415
    5413    5414    5413    5416    5417    5419    5417    5418
    5417    5420    5421    5423    5421    5422    5421    5424
    5425    5427    5425    5426    5425    5428    5429    5431
    5429    5430    5429    5432    5433    5435    5433    5434
    5433    5436    5437    5439    5437    5438    5437    5440
    5441    5443    5441    5442    5441    5444    5445    5447
    5445    5446    5445    5448    5449    5451    5449    5450
    5449    5452    5453    5455    5453    5454    5453    5456
    5457    5459    5457    5458    5457    5460    5461    5463
    5461    5462    5461    5464    5465    5467    5465    5466
    5465    5468    5469    5471    5469    5470    5469    5472
    5473    5475    5473    5474    5473    5476    5477    5479
    5477    5478    5477    5480    5481    5483    5481    5482
    5481    5484    5485    5487    5485    5486    5485    5488
    5489    5491    5489    5490    5489    5492    5493    5495
    5493    5494    5493    5496    5497    5499    5497    5498
    5497    5500    5501    5503    5501    5502    5501    5504
    5505    5507    5505    5506    5505    5508    5509    5511
    5509    5510    5509    5512    5513    5515    5513    5514
    5513    5516    5517    5519    5517    5518    5517    5520
    5521    5523    5521    5522    5521    5524    5525    5527
    5525    5526    5525    5528    5529    5531    5529    5530
    5529    5532    5533    5535    5533    5534    5533    5536
    5537    5539    5537    5538    5537    5540    5541    5543
    5541    5542    5541    5544    5545    5547    5545    5546
    5545    5548    5549    5551    5549    5550    5549    5552
    5553    5555    5553    5554    5553    5556    5557    5559
    5557    5558    5557    5560    5561    5563    5561    5562
    5561    5564    5565    5567    5565    5566    5565    5568
    5569    5571    5569    5570    5569    5572    5573    5575
    5573    5574    5573    5576    5577    5579    5577    5578
    5577    5580    5581    5583    5581    5582    5581    5584
    5585    5587    5585    5586    5585    5588    5589    5591
    5589    5590    5589    5592    5593    5595    5593    5594
    5593    5596    5597    5599    5597    5598    5597    5600
    5601    5603    5601    5602    5601    5604    5605    5607
    5605    5606    5605    5608    5609    5611    5609    5610
    5609    5612    5613    5615    5613    5614    5613    5616
    5617    5619    5617    5618    5617    5620    5621    5623
    5621    5622    5621    5624    5625    5627    5625    5626
    5625    5628    5629    5631    5629    5630    5629    5632
    5633    5635    5633    5634    5633    5636    5637    5639
    5637    5638    5637    5640    5641    5643    5641    5642
    5641    5644    5645    5647    5645    5646    5645    5648
    5649    5651    5649    5650    5649    5652    5653    5655
    5653    5654    5653    5656    5657    5659    5657    5658
    5657    5660    5661    5663    5661    5662    5661    5664
    5665    5667    5665    5666    5665    5668    5669    5671
    5669    5670    5669    5672    5673    5675    5673    5674
    5673    5676    5677    5679    5677    5678    5677    5680
    5681    5683    5681    5682    5681    5684    5685    5687
    5685    5686    5685    5688    5689    5691    5689    5690
    5689    5692    5693    5695    5693    5694    5693    5696
    5697    5699    5697    5698    5697    5700    5701    5703
    5701    5702    5701    5704    5705    5707    5705    5706
    5705    5708    5709    5711    5709    5710    5709    5712
    5713    5715    5713    5714    5713    5716    5717    5719
    5717    5718    5717    5720    5721    5723    5721    5722
    5721    5724    5725    5727    5725    5726    5725    5728
    5729    5731    5729    5730    5729    5732    5733    5735
    5733    5734    5733    5736    5737    5739    5737    5738
    5737    5740    5741    5743    5741    5742    5741    5744
    5745    5747    5745    5746    5745    5748    5749    5751
    5749    5750    5749    5752    5753    5755    5753    5754
    5753    5756    5757    5759    5757    5758    5757    5760
    5761    5763    5761    5762    5761    5764    5765    5767
    5765    5766    5765    5768    5769    5771    5769    5770
    5769    5772    5773    5775    5773    5774    5773    5776
    5777    5779    5777    5778    5777    5780    5781    5783
    5781    5782    5781    5784    5785    5787    5785    5786
    5785    5788    5789    5791    5789    5790    5789    5792
    5793    5795    5793    5794    5793    5796    5797    5799
    5797    5798    5797    5800    5801    5803    5801    5802
    5801    5804    5805    5807    5805    5806    5805    5808
    5809    5811    5809    5810    5809    5812    5813    5815
    5813    5814    5813    5816    5817    5819    5817    5818
    5817    5820    5821    5823    5821    5822    5821    5824
    5825    5827    5825    5826    5825    5828    5829    5831
    5829    5830    5829    5832    5833    5835    5833    5834
    5833    5836    5837    5839    5837    5838    5837    5840
    5841    5843    5841    5842    5841    5844    5845    5847
    5845    5846    5845    5848    5849    5851    5849    5850
    5849    5852    5853    5855    5853    5854    5853    5856
    5857    5859    5857    5858    5857    5860    5861    5863
    5861    5862    5861    5864    5865    5867    5865    5866
    5865    5868    5869    5871    5869    5870    5869    5872
    5873    5875    5873    5874    5873    5876    5877    5879
    5877    5878    5877    5880    5881    5883    5881    5882
    5881    5884    5885    5887    5885    5886    5885    5888
    5889    5891    5889    5890    5889    5892    5893    5895
    5893    5894    5893    5896    5897    5899    5897    5898
    5897    5900    5901    5903    5901    5902    5901    5904
    5905    5907    5905    5906    5905    5908    5909    5911
    5909    5910    5909    5912    5913    5915    5913    5914
    5913    5916    5917    5919    5917    5918    5917    5920
    5921    5923    5921    5922    5921    5924    5925    5927
    5925    5926    5925    5928    5929    5931    5929    5930
    5929    5932    5933    5935    5933    5934    5933    5936
    5937    5939    5937    5938    5937    5940    5941    5943
    5941    5942    5941    5944    5945    5947    5945    5946
    5945    5948    5949    5951    5949    5950    5949    5952
    5953    5955    5953    5954    5953    5956    5957    5959
    5957    5958    5957    5960    5961    5963    5961    5962
    5961    5964    5965    5967    5965    5966    5965    5968
    5969    5971    5969    5970    5969    5972    5973    5975
    5973    5974    5973    5976    5977    5979    5977    5978
    5977    5980    5981    5983    5981    5982    5981    5984
    5985    5987    5985    5986    5985    5988    5989    5991
    5989    5990    5989    5992    5993    5995    5993    5994
    5993    5996    5997    5999    5997    5998    5997    6000
    6001    6003    6001    6002    6001    6004    6005    6007
    6005    6006    6005    6008    6009    6011    6009    6010
    6009    6012    6013    6015    6013    6014    6013    6016
    6017    6019    6017    6018    6017    6020    6021    6023
    6021    6022    6021    6024    6025    6027    6025    6026
    6025    6028    6029    6031    6029    6030    6029    6032
    6033    6035    6033    6034    6033    6036    6037    6039
    6037    6038    6037    6040    6041    6043    6041    6042
    6041    6044    6045    6047    6045    6046    6045    6048
    6049    6051    6049    6050    6049    6052    6053    6055
    6053    6054    6053    6056    6057    6059    6057    6058
    6057    6060    6061    6063    6061    6062    6061    6064
    6065    6067    6065    6066    6065    6068    6069    6071
    6069    6070    6069    6072    6073    6075    6073    6074
    6073    6076    6077    6079    6077    6078    6077    6080
    6081    6083    6081    6082    6081    6084    6085    6087
    6085    6086    6085    6088    6089    6091    6089    6090
    6089    6092    6093    6095    6093    6094    6093    6096
    6097    6099    6097    6098    6097    6100    6101    6103
    6101    6102    6101    6104    6105    6107    6105    6106
    6105    6108    6109    6111    6109    6110    6109    6112
    6113    6115    6113    6114    6113    6116    6117    6119
    6117    6118    6117    6120    6121    6123    6121    6122
    6121    6124    6125    6127    6125    6126    6125    6128
    6129    6131    6129    6130    6129    6132    6133    6135
    6133    6134    6133    6136    6137    6139    6137    6138
    6137    6140    6141    6143    6141    6142    6141    6144
    6145    6147    6145    6146    6145    6148    6149    6151
    6149    6150    6149    6152    6153    6155    6153    6154
    6153    6156    6157    6159    6157    6158    6157    6160
    6161    6163    6161    6162    6161    6164    6165    6167
    6165    6166    6165    6168    6169    6171    6169    6170
    6169    6172    6173    6175    6173    6174    6173    6176
    6177    6179    6177    6178    6177    6180    6181    6183
    6181    6182    6181    6184    6185    6187    6185    6186
    6185    6188    6189    6191    6189    6190    6189    6192
    6193    6195    6193    6194    6193    6196    6197    6199
    6197    6198    6197    6200    6201    6203    6201    6202
    6201    6204    6205    6207    6205    6206    6205    6208
    6209    6211    6209    6210    6209    6212    6213    6215
    6213    6214    6213    6216    6217    6219    6217    6218
    6217    6220    6221    6223    6221    6222    6221    6224
    6225    6227    6225    6226    6225    6228    6229    6231
    6229    6230    6229    6232    6233    6235    6233    6234
    6233    6236    6237    6239    6237    6238    6237    6240
    6241    6243    6241    6242    6241    6244    6245    6247
    6245    6246    6245    6248    6249    6251    6249    6250
    6249    6252    6253    6255    6253    6254    6253    6256
    6257    6259    6257    6258    6257    6260    6261    6263
    6261    6262    6261    6264    6265    6267    6265    6266
    6265    6268    6269    6271    6269    6270    6269    6272
    6273    6275    6273    6274    6273    6276    6277    6279
    6277    6278    6277    6280    6281    6283    6281    6282
    6281    6284    6285    6287    6285    6286    6285    6288
    6289    6291    6289    6290    6289    6292    6293    6295
    6293    6294    6293    6296    6297    6299    6297    6298
    6297    6300    6301    6303    6301    6302    6301    6304
    6305    6307    6305    6306    6305    6308    6309    6311
    6309    6310    6309    6312    6313    6315    6313    6314
    6313    6316    6317    6319    6317    6318    6317    6320
    6321    6323    6321    6322    6321    6324    6325    6327
    6325    6326    6325    6328    6329    6331    6329    6330
    6329    6332    6333    6335    6333    6334    6333    6336
    6337    6339    6337    6338    6337    6340    6341    6343
    6341    6342    6341    6344    6345    6347    6345    6346
    6345    6348    6349    6351    6349    6350    6349    6352
    6353    6355    6353    6354    6353    6356    6357    6359
    6357    6358    6357    6360    6361    6363    6361    6362
    6361    6364    6365    6367    6365    6366    6365    6368
    6369    6371    6369    6370    6369    6372    6373    6375
    6373    6374    6373    6376    6377    6379    6377    6378
    6377    6380    6381    6383    6381    6382    6381    6384
    6385    6387    6385    6386    6385    6388    6389    6391
    6389    6390    6389    6392    6393    6395    6393    6394
    6393    6396    6397    6399    6397    6398    6397    6400
    6401    6403    6401    6402    6401    6404    6405    6407
    6405    6406    6405    6408    6409    6411    6409    6410
    6409    6412    6413    6415    6413    6414    6413    6416
    6417    6419    6417    6418    6417    6420    6421    6423
    6421    6422    6421    6424    6425    6427    6425    6426
    6425    6428    6429    6431    6429    6430    6429    6432
    6433    6435    6433    6434    6433    6436    6437    6439
    6437    6438    6437    6440    6441    6443    6441    6442
    6441    6444    6445    6447    6445    6446    6445    6448
    6449    6451    6449    6450    6449    6452    6453    6455
    6453    6454    6453    6456    6457    6459    6457    6458
    6457    6460    6461    6463    6461    6462    6461    6464
    6465    6467    6465    6466    6465    6468    6469    6471
    6469    6470    6469    6472    6473    6475    6473    6474
    6473    6476    6477    6479    6477    6478    6477    6480
    6481    6483    6481    6482    6481    6484    6485    6487
    6485    6486    6485    6488    6489    6491    6489    6490
    6489    6492    6493    6495    6493    6494    6493    6496
    6497    6499    6497    6498    6497    6500    6501    6503
    6501    6502    6501    6504    6505    6507    6505    6506
    6505    6508    6509    6511    6509    6510    6509    6512
    6513    6515    6513    6514    6513    6516    6517    6519
    6517    6518    6517    6520    6521    6523    6521    6522
    6521    6524    6525    6527    6525    6526    6525    6528
    6529    6531    6529    6530    6529    6532    6533    6535
    6533    6534    6533    6536    6537    6539    6537    6538
    6537    6540    6541    6543    6541    6542    6541    6544
    6545    6547    6545    6546    6545    6548    6549    6551
    6549    6550    6549    6552    6553    6555    6553    6554
    6553    6556    6557    6559    6557    6558    6557    6560
    6561    6563    6561    6562    6561    6564    6565    6567
    6565    6566    6565    6568    6569    6571    6569    6570
    6569    6572    6573    6575    6573    6574    6573    6576
    6577    6579    6577    6578    6577    6580    6581    6583
    6581    6582    6581    6584    6585    6587    6585    6586
    6585    6588    6589    6591    6589    6590    6589    6592
    6593    6595    6593    6594    6593    6596    6597    6599
    6597    6598    6597    6600    6601    6603    6601    6602
    6601    6604    6605    6607    6605    6606    6605    6608
    6609    6611    6609    6610    6609    6612    6613    6615
    6613    6614    6613    6616    6617    6619    6617    6618
    6617    6620    6621    6623    6621    6622    6621    6624
    6625    6627    6625    6626    6625    6628    6629    6631
    6629    6630    6629    6632    6633    6635    6633    6634
    6633    6636    6637    6639    6637    6638    6637    6640
    6641    6643    6641    6642    6641    6644    6645    6647
    6645    6646    6645    6648    6649    6651    6649    6650
    6649    6652    6653    6655    6653    6654    6653    6656
    6657    6659    6657    6658    6657    6660    6661    6663
    6661    6662    6661    6664    6665    6667    6665    6666
    6665    6668    6669    6671    6669    6670    6669    6672
    6673    6675    6673    6674    6673    6676    6677    6679
    6677    6678    6677    6680    6681    6683    6681    6682
    6681    6684    6685    6687    6685    6686    6685    6688
    6689    6691    6689    6690    6689    6692    6693    6695
    6693    6694    6693    6696    6697    6699    6697    6698
    6697    6700    6701    6703    6701    6702    6701    6704
    6705    6707    6705    6706    6705    6708    6709    6711
    6709    6710    6709    6712    6713    6715    6713    6714
    6713    6716    6717    6719    6717    6718    6717    6720
    6721    6723    6721    6722    6721    6724    6725    6727
    6725    6726    6725    6728    6729    6731    6729    6730
    6729    6732    6733    6735    6733    6734    6733    6736
    6737    6739    6737    6738    6737    6740    6741    6743
    6741    6742    6741    6744    6745    6747    6745    6746
    6745    6748    6749    6751    6749    6750    6749    6752
    6753    6755    6753    6754    6753    6756    6757    6759
    6757    6758    6757    6760    6761    6763    6761    6762
    6761    6764    6765    6767    6765    6766    6765    6768
    6769    6771    6769    6770    6769    6772    6773    6775
    6773    6774    6773    6776    6777    6779    6777    6778
    6777    6780    6781    6783    6781    6782    6781    6784
    6785    6787    6785    6786    6785    6788    6789    6791
    6789    6790    6789    6792    6793    6795    6793    6794
    6793    6796    6797    6799    6797    6798    6797    6800
    6801    6803    6801    6802    6801    6804    6805    6807
    6805    6806    6805    6808    6809    6811    6809    6810
    6809    6812    6813    6815    6813    6814    6813    6816
    6817    6819    6817    6818    6817    6820    6821    6823
    6821    6822    6821    6824    6825    6827    6825    6826
    6825    6828    6829    6831    6829    6830    6829    6832
    6833    6835    6833    6834    6833    6836    6837    6839
    6837    6838    6837    6840    6841    6843    6841    6842
    6841    6844    6845    6847    6845    6846    6845    6848
    6849    6851    6849    6850    6849    6852    6853    6855
    6853    6854    6853    6856    6857    6859    6857    6858
    6857    6860    6861    6863    6861    6862    6861    6864
    6865    6867    6865    6866    6865    6868    6869    6871
    6869    6870    6869    6872    6873    6875    6873    6874
    6873    6876    6877    6879    6877    6878    6877    6880
    6881    6883    6881    6882    6881    6884    6885    6887
    6885    6886    6885    6888    6889    6891    6889    6890
    6889    6892    6893    6895    6893    6894    6893    6896
    6897    6899    6897    6898    6897    6900    6901    6903
    6901    6902    6901    6904    6905    6907    6905    6906
    6905    6908    6909    6911    6909    6910    6909    6912
    6913    6915    6913    6914    6913    6916    6917    6919
    6917    6918    6917    6920    6921    6923    6921    6922
    6921    6924    6925    6927    6925    6926    6925    6928
    6929    6931    6929    6930    6929    6932    6933    6935
    6933    6934    6933    6936    6937    6939    6937    6938
    6937    6940    6941    6943    6941    6942    6941    6944
    6945    6947    6945    6946    6945    6948    6949    6951
    6949    6950    6949    6952    6953    6955    6953    6954
    6953    6956    6957    6959    6957    6958    6957    6960
    6961    6963    6961    6962    6961    6964    6965    6967
    6965    6966    6965    6968    6969    6971    6969    6970
    6969    6972    6973    6975    6973    6974    6973    6976
    6977    6979    6977    6978    6977    6980    6981    6983
    6981    6982    6981    6984    6985    6987    6985    6986
    6985    6988    6989    6991    6989    6990    6989    6992
    6993    6995    6993    6994    6993    6996    6997    6999
    6997    6998    6997    7000    7001    7003    7001    7002
    7001    7004    7005    7007    7005    7006    7005    7008
    7009    7011    7009    7010    7009    7012    7013    7015
    7013    7014    7013    7016    7017    7019    7017    7018
    7017    7020    7021    7023    7021    7022    7021    7024
    7025    7027    7025    7026    7025    7028    7029    7031
    7029    7030    7029    7032    7033    7035    7033    7034
    7033    7036    7037    7039    7037    7038    7037    7040
    7041    7043    7041    7042    7041    7044    7045    7047
    7045    7046    7045    7048    7049    7051    7049    7050
    7049    7052    7053    7055    7053    7054    7053    7056
    7057    7059    7057    7058    7057    7060    7061    7063
    7061    7062    7061    7064    7065    7067    7065    7066
    7065    7068    7069    7071    7069    7070    7069    7072
    7073    7075    7073    7074    7073    7076    7077    7079
    7077    7078    7077    7080    7081    7083    7081    7082
    7081    7084    7085    7087    7085    7086    7085    7088
    7089    7091    7089    7090    7089    7092    7093    7095
    7093    7094    7093    7096    7097    7099    7097    7098
    7097    7100    7101    7103    7101    7102    7101    7104
    7105    7107    7105    7106    7105    7108    7109    7111
    7109    7110    7109    7112    7113    7115    7113    7114
    7113    7116    7117    7119    7117    7118    7117    7120
    7121    7123    7121    7122    7121    7124    7125    7127
    7125    7126    7125    7128    7129    7131    7129    7130
    7129    7132    7133    7135    7133    7134    7133    7136
    7137    7139    7137    7138    7137    7140    7141    7143
    7141    7142    7141    7144    7145    7147    7145    7146
    7145    7148    7149    7151    7149    7150    7149    7152
    7153    7155    7153    7154    7153    7156    7157    7159
    7157    7158    7157    7160    7161    7163    7161    7162
    7161    7164    7165    7167    7165    7166    7165    7168
    7169    7171    7169    7170    7169    7172    7173    7175
    7173    7174    7173    7176    7177    7179    7177    7178
    7177    7180    7181    7183    7181    7182    7181    7184
    7185    7187    7185    7186    7185    7188    7189    7191
    7189    7190    7189    7192    7193    7195    7193    7194
    7193    7196    7197    7199    7197    7198    7197    7200
    7201    7203    7201    7202    7201    7204    7205    7207
    7205    7206    7205    7208    7209    7211    7209    7210
    7209    7212    7213    7215    7213    7214    7213    7216
    7217    7219    7217    7218    7217    7220    7221    7223
    7221    7222    7221    7224    7225    7227    7225    7226
    7225    7228    7229    7231    7229    7230    7229    7232
    7233    7235    7233    7234    7233    7236    7237    7239
    7237    7238    7237    7240    7241    7243    7241    7242
    7241    7244    7245    7247    7245    7246    7245    7248
    7249    7251    7249    7250    7249    7252    7253    7255
    7253    7254    7253    7256    7257    7259    7257    7258
    7257    7260    7261    7263    7261    7262    7261    7264
    7265    7267    7265    7266    7265    7268    7269    7271
    7269    7270    7269    7272    7273    7275    7273    7274
    7273    7276    7277    7279    7277    7278    7277    7280
    7281    7283    7281    7282    7281    7284    7285    7287
    7285    7286    7285    7288    7289    7291    7289    7290
    7289    7292    7293    7295    7293    7294    7293    7296
    7297    7299    7297    7298    7297    7300    7301    7303
    7301    7302    7301    7304    7305    7307    7305    7306
    7305    7308    7309    7311    7309    7310    7309    7312
    7313    7315    7313    7314    7313    7316    7317    7319
    7317    7318    7317    7320    7321    7323    7321    7322
    7321    7324    7325    7327    7325    7326    7325    7328
    7329    7331    7329    7330    7329    7332    7333    7335
    7333    7334    7333    7336    7337    7339    7337    7338
    7337    7340    7341    7343    7341    7342    7341    7344
    7345    7347    7345    7346    7345    7348    7349    7351
    7349    7350    7349    7352    7353    7355    7353    7354
    7353    7356    7357    7359    7357    7358    7357    7360
    7361    7363    7361    7362    7361    7364    7365    7367
    7365    7366    7365    7368    7369    7371    7369    7370
    7369    7372    7373    7375    7373    7374    7373    7376
    7377    7379    7377    7378    7377    7380    7381    7383
    7381    7382    7381    7384    7385    7387    7385    7386
    7385    7388    7389    7391    7389    7390    7389    7392
    7393    7395    7393    7394    7393    7396    7397    7399
    7397    7398    7397    7400    7401    7403    7401    7402
    7401    7404    7405    7407    7405    7406    7405    7408
    7409    7411    7409    7410    7409    7412    7413    7415
    7413    7414    7413    7416    7417    7419    7417    7418
    7417    7420    7421    7423    7421    7422    7421    7424
    7425    7427    7425    7426    7425    7428    7429    7431
    7429    7430    7429    7432    7433    7435    7433    7434
    7433    7436    7437    7439    7437    7438    7437    7440
    7441    7443    7441    7442    7441    7444    7445    7447
    7445    7446    7445    7448    7449    7451    7449    7450
    7449    7452    7453    7455    7453    7454    7453    7456
    7457    7459    7457    7458    7457    7460    7461    7463
    7461    7462    7461    7464    7465    7467    7465    7466
    7465    7468    7469    7471    7469    7470    7469    7472
    7473    7475    7473    7474    7473    7476    7477    7479
    7477    7478    7477    7480    7481    7483    7481    7482
    7481    7484    7485    7487    7485    7486    7485    7488
    7489    7491    7489    7490    7489    7492    7493    7495
    7493    7494    7493    7496    7497    7499    7497    7498
    7497    7500    7501    7503    7501    7502    7501    7504
    7505    7507    7505    7506    7505    7508    7509    7511
    7509    7510    7509    7512    7513    7515    7513    7514
    7513    7516    7517    7519    7517    7518    7517    7520
    7521    7523    7521    7522    7521    7524    7525    7527
    7525    7526    7525    7528    7529    7531    7529    7530
    7529    7532    7533    7535    7533    7534    7533    7536
    7537    7539    7537    7538    7537    7540    7541    7543
    7541    7542    7541    7544    7545    7547    7545    7546
    7545    7548    7549    7551    7549    7550    7549    7552
    7553    7555    7553    7554    7553    7556    7557    7559
    7557    7558    7557    7560    7561    7563    7561    7562
    7561    7564    7565    7567    7565    7566    7565    7568
    7569    7571    7569    7570    7569    7572    7573    7575
    7573    7574    7573    7576    7577    7579    7577    7578
    7577    7580    7581    7583    7581    7582    7581    7584
    7585    7587    7585    7586    7585    7588    7589    7591
    7589    7590    7589    7592    7593    7595    7593    7594
    7593    7596    7597    7599    7597    7598    7597    7600
    7601    7603    7601    7602    7601    7604    7605    7607
    7605    7606    7605    7608    7609    7611    7609    7610
    7609    7612    7613    7615    7613    7614    7613    7616
    7617    7619    7617    7618    7617    7620    7621    7623
    7621    7622    7621    7624    7625    7627    7625    7626
    7625    7628    7629    7631    7629    7630    7629    7632
    7633    7635    7633    7634    7633    7636    7637    7639
    7637    7638    7637    7640    7641    7643    7641    7642
    7641    7644    7645    7647    7645    7646    7645    7648
    7649    7651    7649    7650    7649    7652    7653    7655
    7653    7654    7653    7656    7657    7659    7657    7658
    7657    7660    7661    7663    7661    7662    7661    7664
    7665    7667    7665    7666    7665    7668    7669    7671
    7669    7670    7669    7672    7673    7675    7673    7674
    7673    7676    7677    7679    7677    7678    7677    7680
    7681    7683    7681    7682    7681    7684    7685    7687
    7685    7686    7685    7688    7689    7691    7689    7690
    7689    7692    7693    7695    7693    7694    7693    7696
    7697    7699    7697    7698    7697    7700    7701    7703
    7701    7702    7701    7704    7705    7707    7705    7706
    7705    7708    7709    7711    7709    7710    7709    7712
    7713    7715    7713    7714    7713    7716    7717    7719
    7717    7718    7717    7720    7721    7723    7721    7722
    7721    7724    7725    7727    7725    7726    7725    7728
    7729    7731    7729    7730    7729    7732    7733    7735
    7733    7734    7733    7736    7737    7739    7737    7738
    7737    7740    7741    7743    7741    7742    7741    7744
    7745    7747    7745    7746    7745    7748    7749    7751
    7749    7750    7749    7752    7753    7755    7753    7754
    7753    7756    7757    7759    7757    7758    7757    7760
    7761    7763    7761    7762    7761    7764    7765    7767
    7765    7766    7765    7768    7769    7771    7769    7770
    7769    7772    7773    7775    7773    7774    7773    7776
    7777    7779    7777    7778    7777    7780    7781    7783
    7781    7782    7781    7784    7785    7787    7785    7786
    7785    7788    7789    7791    7789    7790    7789    7792
    7793    7795    7793    7794    7793    7796    7797    7799
    7797    7798    7797    7800    7801    7803    7801    7802
    7801    7804    7805    7807    7805    7806    7805    7808
    7809    7811    7809    7810    7809    7812    7813    7815
    7813    7814    7813    7816    7817    7819    7817    7818
    7817    7820    7821    7823    7821    7822    7821    7824
    7825    7827    7825    7826    7825    7828    7829    7831
    7829    7830    7829    7832    7833    7835    7833    7834
    7833    7836    7837    7839    7837    7838    7837    7840
    7841    7843    7841    7842    7841    7844    7845    7847
    7845    7846    7845    7848    7849    7851    7849    7850
    7849    7852    7853    7855    7853    7854    7853    7856
    7857    7859    7857    7858    7857    7860    7861    7863
    7861    7862    7861    7864    7865    7867    7865    7866
    7865    7868    7869    7871    7869    7870    7869    7872
    7873    7875    7873    7874    7873    7876    7877    7879
    7877    7878    7877    7880    7881    7883    7881    7882
    7881    7884    7885    7887    7885    7886    7885    7888
    7889    7891    7889    7890    7889    7892    7893    7895
    7893    7894    7893    7896    7897    7899    7897    7898
    7897    7900    7901    7903    7901    7902    7901    7904
    7905    7907    7905    7906    7905    7908    7909    7911
    7909    7910    7909    7912    7913    7915    7913    7914
    7913    7916    7917    7919    7917    7918    7917    7920
    7921    7923    7921    7922    7921    7924    7925    7927
    7925    7926    7925    7928    7929    7931    7929    7930
    7929    7932    7933    7935    7933    7934    7933    7936
    7937    7939    7937    7938    7937    7940    7941    7943
    7941    7942    7941    7944    7945    7947    7945    7946
    7945    7948    7949    7951    7949    7950    7949    7952
    7953    7955    7953    7954    7953    7956    7957    7959
    7957    7958    7957    7960    7961    7963    7961    7962
    7961    7964    7965    7967    7965    7966    7965    7968
    7969    7971    7969    7970    7969    7972    7973    7975
    7973    7974    7973    7976    7977    7979    7977    7978
    7977    7980    7981    7983    7981    7982    7981    7984
    7985    7987    7985    7986    7985    7988    7989    7991
    7989    7990    7989    7992    7993    7995    7993    7994
    7993    7996    7997    7999    7997    7998    7997    8000
    8001    8003    8001    8002    8001    8004    8005    8007
    8005    8006    8005    8008    8009    8011    8009    8010
    8009    8012    8013    8015    8013    8014    8013    8016
    8017    8019    8017    8018    8017    8020    8021    8023
    8021    8022    8021    8024    8025    8027    8025    8026
    8025    8028    8029    8031    8029    8030    8029    8032
    8033    8035    8033    8034    8033    8036    8037    8039
    8037    8038    8037    8040    8041    8043    8041    8042
    8041    8044    8045    8047    8045    8046    8045    8048
    8049    8051    8049    8050    8049    8052    8053    8055
    8053    8054    8053    8056    8057    8059    8057    8058
    8057    8060    8061    8063    8061    8062    8061    8064
    8065    8067    8065    8066    8065    8068    8069    8071
    8069    8070    8069    8072    8073    8075    8073    8074
    8073    8076    8077    8079    8077    8078    8077    8080
    8081    8083    8081    8082    8081    8084    8085    8087
    8085    8086    8085    8088    8089    8091    8089    8090
    8089    8092    8093    8095    8093    8094    8093    8096
    8097    8099    8097    8098    8097    8100    8101    8103
    8101    8102    8101    8104    8105    8107    8105    8106
    8105    8108    8109    8111    8109    8110    8109    8112
    8113    8115    8113    8114    8113    8116    8117    8119
    8117    8118    8117    8120    8121    8123    8121    8122
    8121    8124    8125    8127    8125    8126    8125    8128
    8129    8131    8129    8130    8129    8132    8133    8135
    8133    8134    8133    8136    8137    8139    8137    8138
    8137    8140    8141    8143    8141    8142    8141    8144
    8145    8147    8145    8146    8145    8148    8149    8151
    8149    8150    8149    8152    8153    8155    8153    8154
    8153    8156    8157    8159    8157    8158    8157    8160
    8161    8163    8161    8162    8161    8164    8165    8167
    8165    8166    8165    8168    8169    8171    8169    8170
    8169    8172    8173    8175    8173    8174    8173    8176
    8177    8179    8177    8178    8177    8180    8181    8183
    8181    8182    8181    8184    8185    8187    8185    8186
    8185    8188    8189    8191    8189    8190    8189    8192
    8193    8195    8193    8194    8193    8196    8197    8199
    8197    8198    8197    8200    8201    8203    8201    8202
    8201    8204    8205    8207    8205    8206    8205    8208
    8209    8211    8209    8210    8209    8212    8213    8215
    8213    8214    8213    8216    8217    8219    8217    8218
    8217    8220    8221    8223    8221    8222    8221    8224
    8225    8227    8225    8226    8225    8228    8229    8231
    8229    8230    8229    8232    8233    8235    8233    8234
    8233    8236    8237    8239    8237    8238    8237    8240
    8241    8243    8241    8242    8241    8244    8245    8247
    8245    8246    8245    8248    8249    8251    8249    8250
    8249    8252    8253    8255    8253    8254    8253    8256
    8257    8259    8257    8258    8257    8260    8261    8263
    8261    8262    8261    8264    8265    8267    8265    8266
    8265    8268    8269    8271    8269    8270    8269    8272
    8273    8275    8273    8274    8273    8276    8277    8279
    8277    8278    8277    8280    8281    8283    8281    8282
    8281    8284    8285    8287    8285    8286    8285    8288
    8289    8291    8289    8290    8289    8292    8293    8295
    8293    8294    8293    8296    8297    8299    8297    8298
    8297    8300    8301    8303    8301    8302    8301    8304
    8305    8307    8305    8306    8305    8308    8309    8311
    8309    8310    8309    8312    8313    8315    8313    8314
    8313    8316    8317    8319    8317    8318    8317    8320
    8321    8323    8321    8322    8321    8324    8325    8327
    8325    8326    8325    8328    8329    8331    8329    8330
    8329    8332    8333    8335    8333    8334    8333    8336
    8337    8339    8337    8338    8337    8340    8341    8343
    8341    8342    8341    8344    8345    8347    8345    8346
    8345    8348    8349    8351    8349    8350    8349    8352
    8353    8355    8353    8354    8353    8356    8357    8359
    8357    8358    8357    8360    8361    8363    8361    8362
    8361    8364    8365    8367    8365    8366    8365    8368
    8369    8371    8369    8370    8369    8372    8373    8375
    8373    8374    8373    8376    8377    8379    8377    8378
    8377    8380    8381    8383    8381    8382    8381    8384
    8385    8387    8385    8386    8385    8388    8389    8391
    8389    8390    8389    8392    8393    8395    8393    8394
    8393    8396    8397    8399    8397    8398    8397    8400
    8401    8403    8401    8402    8401    8404    8405    8407
    8405    8406    8405    8408    8409    8411    8409    8410
    8409    8412    8413    8415    8413    8414    8413    8416
    8417    8419    8417    8418    8417    8420    8421    8423
    8421    8422    8421    8424    8425    8427    8425    8426
    8425    8428    8429    8431    8429    8430    8429    8432
    8433    8435    8433    8434    8433    8436    8437    8439
    8437    8438    8437    8440    8441    8443    8441    8442
    8441    8444    8445    8447    8445    8446    8445    8448
    8449    8451    8449    8450    8449    8452    8453    8455
    8453    8454    8453    8456    8457    8459    8457    8458
    8457    8460    8461    8463    8461    8462    8461    8464
    8465    8467    8465    8466    8465    8468    8469    8471
    8469    8470    8469    8472    8473    8475    8473    8474
    8473    8476    8477    8479    8477    8478    8477    8480
    8481    8483    8481    8482    8481    8484    8485    8487
    8485    8486    8485    8488    8489    8491    8489    8490
    8489    8492    8493    8495    8493    8494    8493    8496
    8497    8499    8497    8498    8497    8500    8501    8503
    8501    8502    8501    8504    8505    8507    8505    8506
    8505    8508    8509    8511    8509    8510    8509    8512
    8513    8515    8513    8514    8513    8516    8517    8519
    8517    8518    8517    8520    8521    8523    8521    8522
    8521    8524    8525    8527    8525    8526    8525    8528
    8529    8531    8529    8530    8529    8532    8533    8535
    8533    8534    8533    8536    8537    8539    8537    8538
    8537    8540    8541    8543    8541    8542    8541    8544
    8545    8547    8545    8546    8545    8548    8549    8551
    8549    8550    8549    8552    8553    8555    8553    8554
    8553    8556    8557    8559    8557    8558    8557    8560
    8561    8563    8561    8562    8561    8564    8565    8567
    8565    8566    8565    8568    8569    8571    8569    8570
    8569    8572    8573    8575    8573    8574    8573    8576
    8577    8579    8577    8578    8577    8580    8581    8583
    8581    8582    8581    8584    8585    8587    8585    8586
    8585    8588    8589    8591    8589    8590    8589    8592
    8593    8595    8593    8594    8593    8596    8597    8599
    8597    8598    8597    8600    8601    8603    8601    8602
    8601    8604    8605    8607    8605    8606    8605    8608
    8609    8611    8609    8610    8609    8612    8613    8615
    8613    8614    8613    8616    8617    8619    8617    8618
    8617    8620    8621    8623    8621    8622    8621    8624
    8625    8627    8625    8626    8625    8628    8629    8631
    8629    8630    8629    8632    8633    8635    8633    8634
    8633    8636    8637    8639    8637    8638    8637    8640
    8641    8643    8641    8642    8641    8644    8645    8647
    8645    8646    8645    8648    8649    8651    8649    8650
    8649    8652    8653    8655    8653    8654    8653    8656
    8657    8659    8657    8658    8657    8660    8661    8663
    8661    8662    8661    8664    8665    8667    8665    8666
    8665    8668    8669    8671    8669    8670    8669    8672
    8673    8675    8673    8674    8673    8676    8677    8679
    8677    8678    8677    8680    8681    8683    8681    8682
    8681    8684    8685    8687    8685    8686    8685    8688
    8689    8691    8689    8690    8689    8692    8693    8695
    8693    8694    8693    8696    8697    8699    8697    8698
    8697    8700    8701    8703    8701    8702    8701    8704
    8705    8707    8705    8706    8705    8708    8709    8711
    8709    8710    8709    8712    8713    8715    8713    8714
    8713    8716    8717    8719    8717    8718    8717    8720
    8721    8723    8721    8722    8721    8724    8725    8727
    8725    8726    8725    8728    8729    8731    8729    8730
    8729    8732    8733    8735    8733    8734    8733    8736
    8737    8739    8737    8738    8737    8740    8741    8743
    8741    8742    8741    8744    8745    8747    8745    8746
    8745    8748    8749    8751    8749    8750    8749    8752
    8753    8755    8753    8754    8753    8756    8757    8759
    8757    8758    8757    8760    8761    8763    8761    8762
    8761    8764    8765    8767    8765    8766    8765    8768
    8769    8771    8769    8770    8769    8772    8773    8775
    8773    8774    8773    8776    8777    8779    8777    8778
    8777    8780    8781    8783    8781    8782    8781    8784
    8785    8787    8785    8786    8785    8788    8789    8791
    8789    8790    8789    8792    8793    8795    8793    8794
    8793    8796    8797    8799    8797    8798    8797    8800
    8801    8803    8801    8802    8801    8804    8805    8807
    8805    8806    8805    8808    8809    8811    8809    8810
    8809    8812    8813    8815    8813    8814    8813    8816
    8817    8819    8817    8818    8817    8820    8821    8823
    8821    8822    8821    8824    8825    8827    8825    8826
    8825    8828    8829    8831    8829    8830    8829    8832
    8833    8835    8833    8834    8833    8836    8837    8839
    8837    8838    8837    8840    8841    8843    8841    8842
    8841    8844    8845    8847    8845    8846    8845    8848
    8849    8851    8849    8850    8849    8852    8853    8855
    8853    8854    8853    8856    8857    8859    8857    8858
    8857    8860    8861    8863    8861    8862    8861    8864
    8865    8867    8865    8866    8865    8868    8869    8871
    8869    8870    8869    8872    8873    8875    8873    8874
    8873    8876    8877    8879    8877    8878    8877    8880
    8881    8883    8881    8882    8881    8884    8885    8887
    8885    8886    8885    8888    8889    8891    8889    8890
    8889    8892    8893    8895    8893    8894    8893    8896
    8897    8899    8897    8898    8897    8900    8901    8903
    8901    8902    8901    8904    8905    8907    8905    8906
    8905    8908    8909    8911    8909    8910    8909    8912
    8913    8915    8913    8914    8913    8916    8917    8919
    8917    8918    8917    8920    8921    8923    8921    8922
    8921    8924    8925    8927    8925    8926    8925    8928
    8929    8931    8929    8930    8929    8932    8933    8935
    8933    8934    8933    8936    8937    8939    8937    8938
    8937    8940    8941    8943    8941    8942    8941    8944
    8945    8947    8945    8946    8945    8948    8949    8951
    8949    8950    8949    8952    8953    8955    8953    8954
    8953    8956    8957    8959    8957    8958    8957    8960
    8961    8963    8961    8962    8961    8964    8965    8967
    8965    8966    8965    8968    8969    8971    8969    8970
    8969    8972    8973    8975    8973    8974    8973    8976
    8977    8979    8977    8978    8977    8980    8981    8983
    8981    8982    8981    8984    8985    8987    8985    8986
    8985    8988    8989    8991    8989    8990    8989    8992
    8993    8995    8993    8994    8993    8996    8997    8999
    8997    8998    8997    9000    9001    9003    9001    9002
    9001    9004    9005    9007    9005    9006    9005    9008
    9009    9011    9009    9010    9009    9012    9013    9015
    9013    9014    9013    9016    9017    9019    9017    9018
    9017    9020    9021    9023    9021    9022    9021    9024
    9025    9027    9025    9026    9025    9028    9029    9031
    9029    9030    9029    9032    9033    9035    9033    9034
    9033    9036    9037    9039    9037    9038    9037    9040
    9041    9043    9041    9042    9041    9044    9045    9047
    9045    9046    9045    9048    9049    9051    9049    9050
    9049    9052    9053    9055    9053    9054    9053    9056
    9057    9059    9057    9058    9057    9060    9061    9063
    9061    9062    9061    9064    9065    9067    9065    9066
    9065    9068    9069    9071    9069    9070    9069    9072
    9073    9075    9073    9074    9073    9076    9077    9079
    9077    9078    9077    9080    9081    9083    9081    9082
    9081    9084    9085    9087    9085    9086    9085    9088
    9089    9091    9089    9090    9089    9092    9093    9095
    9093    9094    9093    9096    9097    9099    9097    9098
    9097    9100    9101    9103    9101    9102    9101    9104
    9105    9107    9105    9106    9105    9108    9109    9111
    9109    9110    9109    9112    9113    9115    9113    9114
    9113    9116    9117    9119    9117    9118    9117    9120
    9121    9123    9121    9122    9121    9124    9125    9127
    9125    9126    9125    9128    9129    9131    9129    9130
    9129    9132    9133    9135    9133    9134    9133    9136
    9137    9139    9137    9138    9137    9140    9141    9143
    9141    9142    9141    9144    9145    9147    9145    9146
    9145    9148    9149    9151    9149    9150    9149    9152
    9153    9155    9153    9154    9153    9156    9157    9159
    9157    9158    9157    9160    9161    9163    9161    9162
    9161    9164    9165    9167    9165    9166    9165    9168
    9169    9171    9169    9170    9169    9172    9173    9175
    9173    9174    9173    9176    9177    9179    9177    9178
    9177    9180    9181    9183    9181    9182    9181    9184
    9185    9187    9185    9186    9185    9188    9189    9191
    9189    9190    9189    9192    9193    9195    9193    9194
    9193    9196    9197    9199    9197    9198    9197    9200
    9201    9203    9201    9202    9201    9204    9205    9207
    9205    9206    9205    9208    9209    9211    9209    9210
    9209    9212    9213    9215    9213    9214    9213    9216
    9217    9219    9217    9218    9217    9220    9221    9223
    9221    9222    9221    9224    9225    9227    9225    9226
    9225    9228    9229    9231    9229    9230    9229    9232
    9233    9235    9233    9234    9233    9236    9237    9239
    9237    9238    9237    9240    9241    9243    9241    9242
    9241    9244    9245    9247    9245    9246    9245    9248
    9249    9251    9249    9250    9249    9252    9253    9255
    9253    9254    9253    9256    9257    9259    9257    9258
    9257    9260    9261    9263    9261    9262    9261    9264
    9265    9267    9265    9266    9265    9268    9269    9271
    9269    9270    9269    9272    9273    9275    9273    9274
    9273    9276    9277    9279    9277    9278    9277    9280
    9281    9283    9281    9282    9281    9284    9285    9287
    9285    9286    9285    9288    9289    9291    9289    9290
    9289    9292    9293    9295    9293    9294    9293    9296
    9297    9299    9297    9298    9297    9300    9301    9303
    9301    9302    9301    9304    9305    9307    9305    9306
    9305    9308    9309    9311    9309    9310    9309    9312
    9313    9315    9313    9314    9313    9316    9317    9319
    9317    9318    9317    9320    9321    9323    9321    9322
    9321    9324    9325    9327    9325    9326    9325    9328
    9329    9331    9329    9330    9329    9332    9333    9335
    9333    9334    9333    9336    9337    9339    9337    9338
    9337    9340    9341    9343    9341    9342    9341    9344
    9345    9347    9345    9346    9345    9348    9349    9351
    9349    9350    9349    9352    9353    9355    9353    9354
    9353    9356    9357    9359    9357    9358    9357    9360
    9361    9363    9361    9362    9361    9364    9365    9367
    9365    9366    9365    9368    9369    9371    9369    9370
    9369    9372    9373    9375    9373    9374    9373    9376
    9377    9379    9377    9378    9377    9380    9381    9383
    9381    9382    9381    9384    9385    9387    9385    9386
    9385    9388    9389    9391    9389    9390    9389    9392
    9393    9395    9393    9394    9393    9396    9397    9399
    9397    9398    9397    9400    9401    9403    9401    9402
    9401    9404    9405    9407    9405    9406    9405    9408
    9409    9411    9409    9410    9409    9412    9413    9415
    9413    9414    9413    9416    9417    9419    9417    9418
    9417    9420    9421    9423    9421    9422    9421    9424
    9425    9427    9425    9426    9425    9428    9429    9431
    9429    9430    9429    9432    9433    9435    9433    9434
    9433    9436    9437    9439    9437    9438    9437    9440
    9441    9443    9441    9442    9441    9444    9445    9447
    9445    9446    9445    9448    9449    9451    9449    9450
    9449    9452    9453    9455    9453    9454    9453    9456
    9457    9459    9457    9458    9457    9460    9461    9463
    9461    9462    9461    9464    9465    9467    9465    9466
    9465    9468    9469    9471    9469    9470    9469    9472
    9473    9475    9473    9474    9473    9476    9477    9479
    9477    9478    9477    9480    9481    9483    9481    9482
    9481    9484    9485    9487    9485    9486    9485    9488
    9489    9491    9489    9490    9489    9492    9493    9495
    9493    9494    9493    9496    9497    9499    9497    9498
    9497    9500    9501    9503    9501    9502    9501    9504
    9505    9507    9505    9506    9505    9508    9509    9511
    9509    9510    9509    9512    9513    9515    9513    9514
    9513    9516    9517    9519    9517    9518    9517    9520
    9521    9523    9521    9522    9521    9524    9525    9527
    9525    9526    9525    9528    9529    9531    9529    9530
    9529    9532    9533    9535    9533    9534    9533    9536
    9537    9539    9537    9538    9537    9540    9541    9543
    9541    9542    9541    9544    9545    9547    9545    9546
    9545    9548    9549    9551    9549    9550    9549    9552
    9553    9555    9553    9554    9553    9556    9557    9559
    9557    9558    9557    9560    9561    9563    9561    9562
    9561    9564    9565    9567    9565    9566    9565    9568
    9569    9571    9569    9570    9569    9572    9573    9575
    9573    9574    9573    9576    9577    9579    9577    9578
    9577    9580    9581    9583    9581    9582    9581    9584
    9585    9587    9585    9586    9585    9588    9589    9591
    9589    9590    9589    9592    9593    9595    9593    9594
    9593    9596    9597    9599    9597    9598    9597    9600
    9601    9603    9601    9602    9601    9604    9605    9607
    9605    9606    9605    9608    9609    9611    9609    9610
    9609    9612    9613    9615    9613    9614    9613    9616
    9617    9619    9617    9618    9617    9620    9621    9623
    9621    9622    9621    9624    9625    9627    9625    9626
    9625    9628    9629    9631    9629    9630    9629    9632
    9633    9635    9633    9634    9633    9636    9637    9639
    9637    9638    9637    9640    9641    9643    9641    9642
    9641    9644    9645    9647    9645    9646    9645    9648
    9649    9651    9649    9650    9649    9652    9653    9655
    9653    9654    9653    9656    9657    9659    9657    9658
    9657    9660    9661    9663    9661    9662    9661    9664
    9665    9667    9665    9666    9665    9668    9669    9671
    9669    9670    9669    9672    9673    9675    9673    9674
    9673    9676    9677    9679    9677    9678    9677    9680
    9681    9683    9681    9682    9681    9684    9685    9687
    9685    9686    9685    9688    9689    9691    9689    9690
    9689    9692    9693    9695    9693    9694    9693    9696
    9697    9699    9697    9698    9697    9700    9701    9703
    9701    9702    9701    9704    9705    9707    9705    9706
    9705    9708    9709    9711    9709    9710    9709    9712
    9713    9715    9713    9714    9713    9716    9717    9719
    9717    9718    9717    9720    9721    9723    9721    9722
    9721    9724    9725    9727    9725    9726    9725    9728
    9729    9731    9729    9730    9729    9732    9733    9735
    9733    9734    9733    9736    9737    9739    9737    9738
    9737    9740    9741    9743    9741    9742    9741    9744
    9745    9747    9745    9746    9745    9748    9749    9751
    9749    9750    9749    9752    9753    9755    9753    9754
    9753    9756    9757    9759    9757    9758    9757    9760
    9761    9763    9761    9762    9761    9764    9765    9767
    9765    9766    9765    9768    9769    9771    9769    9770
    9769    9772    9773    9775    9773    9774    9773    9776
    9777    9779    9777    9778    9777    9780    9781    9783
    9781    9782    9781    9784    9785    9787    9785    9786
    9785    9788    9789    9791    9789    9790    9789    9792
    9793    9795    9793    9794    9793    9796    9797    9799
    9797    9798    9797    9800    9801    9803    9801    9802
    9801    9804    9805    9807    9805    9806    9805    9808
    9809    9811    9809    9810    9809    9812    9813    9815
    9813    9814    9813    9816    9817    9819    9817    9818
    9817    9820    9821    9823    9821    9822    9821    9824
    9825    9827    9825    9826    9825    9828    9829    9831
    9829    9830    9829    9832    9833    9835    9833    9834
    9833    9836    9837    9839    9837    9838    9837    9840
    9841    9843    9841    9842    9841    9844    9845    9847
    9845    9846    9845    9848    9849    9851    9849    9850
    9849    9852    9853    9855    9853    9854    9853    9856
    9857    9859    9857    9858    9857    9860    9861    9863
    9861    9862    9861    9864    9865    9867    9865    9866
    9865    9868    9869    9871    9869    9870    9869    9872
    9873    9875    9873    9874    9873    9876    9877    9879
    9877    9878    9877    9880    9881    9883    9881    9882
    9881    9884    9885    9887    9885    9886    9885    9888
    9889    9891    9889    9890    9889    9892    9893    9895
    9893    9894    9893    9896    9897    9899    9897    9898
    9897    9900    9901    9903    9901    9902    9901    9904
    9905    9907    9905    9906    9905    9908    9909    9911
    9909    9910    9909    9912    9913    9915    9913    9914
    9913    9916    9917    9919    9917    9918    9917    9920
    9921    9923    9921    9922    9921    9924    9925    9927
    9925    9926    9925    9928    9929    9931    9929    9930
    9929    9932    9933    9935    9933    9934    9933    9936
    9937    9939    9937    9938    9937    9940    9941    9943
    9941    9942    9941    9944    9945    9947    9945    9946
    9945    9948    9949    9951    9949    9950    9949    9952
    9953    9955    9953    9954    9953    9956    9957    9959
    9957    9958    9957    9960    9961    9963    9961    9962
    9961    9964    9965    9967    9965    9966    9965    9968
    9969    9971    9969    9970    9969    9972    9973    9975
    9973    9974    9973    9976    9977    9979    9977    9978
    9977    9980    9981    9983    9981    9982    9981    9984
    9985    9987    9985    9986    9985    9988    9989    9991
    9989    9990    9989    9992    9993    9995    9993    9994
    9993    9996    9997    9999    9997    9998    9997   10000
   10001   10003   10001   10002   10001   10004   10005   10007
   10005   10006   10005   10008   10009   10011   10009   10010
   10009   10012   10013   10015   10013   10014   10013   10016
   10017   10019   10017   10018   10017   10020   10021   10023
   10021   10022   10021   10024   10025   10027   10025   10026
   10025   10028   10029   10031   10029   10030   10029   10032
   10033   10035   10033   10034   10033   10036   10037   10039
   10037   10038   10037   10040   10041   10043   10041   10042
   10041   10044   10045   10047   10045   10046   10045   10048
   10049   10051   10049   10050   10049   10052   10053   10055
   10053   10054   10053   10056   10057   10059   10057   10058
   10057   10060   10061   10063   10061   10062   10061   10064
   10065   10067   10065   10066   10065   10068   10069   10071
   10069   10070   10069   10072   10073   10075   10073   10074
   10073   10076   10077   10079   10077   10078   10077   10080
   10081   10083   10081   10082   10081   10084   10085   10087
   10085   10086   10085   10088   10089   10091   10089   10090
   10089   10092   10093   10095   10093   10094   10093   10096
   10097   10099   10097   10098   10097   10100   10101   10103
   10101   10102   10101   10104   10105   10107   10105   10106
   10105   10108   10109   10111   10109   10110   10109   10112
   10113   10115   10113   10114   10113   10116   10117   10119
   10117   10118   10117   10120   10121   10123   10121   10122
   10121   10124   10125   10127   10125   10126   10125   10128
   10129   10131   10129   10130   10129   10132   10133   10135
   10133   10134   10133   10136   10137   10139   10137   10138
   10137   10140   10141   10143   10141   10142   10141   10144
   10145   10147   10145   10146   10145   10148   10149   10151
   10149   10150   10149   10152   10153   10155   10153   10154
   10153   10156   10157   10159   10157   10158   10157   10160
   10161   10163   10161   10162   10161   10164   10165   10167
   10165   10166   10165   10168   10169   10171   10169   10170
   10169   10172   10173   10175   10173   10174   10173   10176
   10177   10179   10177   10178   10177   10180   10181   10183
   10181   10182   10181   10184   10185   10187   10185   10186
   10185   10188   10189   10191   10189   10190   10189   10192
   10193   10195   10193   10194   10193   10196   10197   10199
   10197   10198   10197   10200   10201   10203   10201   10202
   10201   10204   10205   10207   10205   10206   10205   10208
   10209   10211   10209   10210   10209   10212   10213   10215
   10213   10214   10213   10216   10217   10219   10217   10218
   10217   10220   10221   10223   10221   10222   10221   10224
   10225   10227   10225   10226   10225   10228   10229   10231
   10229   10230   10229   10232   10233   10235   10233   10234
   10233   10236   10237   10239   10237   10238   10237   10240
   10241   10243   10241   10242   10241   10244   10245   10247
   10245   10246   10245   10248   10249   10251   10249   10250
   10249   10252   10253   10255   10253   10254   10253   10256
   10257   10259   10257   10258   10257   10260   10261   10263
   10261   10262   10261   10264   10265   10267   10265   10266
   10265   10268   10269   10271   10269   10270   10269   10272
   10273   10275   10273   10274   10273   10276   10277   10279
   10277   10278   10277   10280   10281   10283   10281   10282
   10281   10284   10285   10287   10285   10286   10285   10288
   10289   10291   10289   10290   10289   10292   10293   10295
   10293   10294   10293   10296   10297   10299   10297   10298
   10297   10300   10301   10303   10301   10302   10301   10304
   10305   10307   10305   10306   10305   10308   10309   10311
   10309   10310   10309   10312   10313   10315   10313   10314
   10313   10316   10317   10319   10317   10318   10317   10320
   10321   10323   10321   10322   10321   10324   10325   10327
   10325   10326   10325   10328   10329   10331   10329   10330
   10329   10332   10333   10335   10333   10334   10333   10336
   10337   10339   10337   10338   10337   10340   10341   10343
   10341   10342   10341   10344   10345   10347   10345   10346
   10345   10348   10349   10351   10349   10350   10349   10352
   10353   10355   10353   10354   10353   10356   10357   10359
   10357   10358   10357   10360   10361   10363   10361   10362
   10361   10364   10365   10367   10365   10366   10365   10368
   10369   10371   10369   10370   10369   10372   10373   10375
   10373   10374   10373   10376   10377   10379   10377   10378
   10377   10380   10381   10383   10381   10382   10381   10384
   10385   10387   10385   10386   10385   10388   10389   10391
   10389   10390   10389   10392   10393   10395   10393   10394
   10393   10396   10397   10399   10397   10398   10397   10400
   10401   10403   10401   10402   10401   10404   10405   10407
   10405   10406   10405   10408   10409   10411   10409   10410
   10409   10412   10413   10415   10413   10414   10413   10416
   10417   10419   10417   10418   10417   10420   10421   10423
   10421   10422   10421   10424   10425   10427   10425   10426
   10425   10428   10429   10431   10429   10430   10429   10432
   10433   10435   10433   10434   10433   10436   10437   10439
   10437   10438   10437   10440   10441   10443   10441   10442
   10441   10444   10445   10447   10445   10446   10445   10448
   10449   10451   10449   10450   10449   10452   10453   10455
   10453   10454   10453   10456   10457   10459   10457   10458
   10457   10460   10461   10463   10461   10462   10461   10464
   10465   10467   10465   10466   10465   10468   10469   10471
   10469   10470   10469   10472   10473   10475   10473   10474
   10473   10476   10477   10479   10477   10478   10477   10480
   10481   10483   10481   10482   10481   10484   10485   10487
   10485   10486   10485   10488   10489   10491   10489   10490
   10489   10492   10493   10495   10493   10494   10493   10496
   10497   10499   10497   10498   10497   10500   10501   10503
   10501   10502   10501   10504   10505   10507   10505   10506
   10505   10508   10509   10511   10509   10510   10509   10512
   10513   10515   10513   10514   10513   10516   10517   10519
   10517   10518   10517   10520   10521   10523   10521   10522
   10521   10524   10525   10527   10525   10526   10525   10528
   10529   10531   10529   10530   10529   10532   10533   10535
   10533   10534   10533   10536   10537   10539   10537   10538
   10537   10540   10541   10543   10541   10542   10541   10544
   10545   10547   10545   10546   10545   10548   10549   10551
   10549   10550   10549   10552   10553   10555   10553   10554
   10553   10556   10557   10559   10557   10558   10557   10560
   10561   10563   10561   10562   10561   10564   10565   10567
   10565   10566   10565   10568   10569   10571   10569   10570
   10569   10572   10573   10575   10573   10574   10573   10576
   10577   10579   10577   10578   10577   10580   10581   10583
   10581   10582   10581   10584   10585   10587   10585   10586
   10585   10588   10589   10591   10589   10590   10589   10592
   10593   10595   10593   10594   10593   10596   10597   10599
   10597   10598   10597   10600   10601   10603   10601   10602
   10601   10604   10605   10607   10605   10606   10605   10608
   10609   10611   10609   10610   10609   10612   10613   10615
   10613   10614   10613   10616   10617   10619   10617   10618
   10617   10620   10621   10623   10621   10622   10621   10624
   10625   10627   10625   10626   10625   10628   10629   10631
   10629   10630   10629   10632   10633   10635   10633   10634
   10633   10636   10637   10639   10637   10638   10637   10640
   10641   10643   10641   10642   10641   10644   10645   10647
   10645   10646   10645   10648   10649   10651   10649   10650
   10649   10652   10653   10655   10653   10654   10653   10656
   10657   10659   10657   10658   10657   10660   10661   10663
   10661   10662   10661   10664   10665   10667   10665   10666
   10665   10668   10669   10671   10669   10670   10669   10672
   10673   10675   10673   10674   10673   10676   10677   10679
   10677   10678   10677   10680   10681   10683   10681   10682
   10681   10684   10685   10687   10685   10686   10685   10688
   10689   10691   10689   10690   10689   10692   10693   10695
   10693   10694   10693   10696   10697   10699   10697   10698
   10697   10700   10701   10703   10701   10702   10701   10704
   10705   10707   10705   10706   10705   10708   10709   10711
   10709   10710   10709   10712   10713   10715   10713   10714
   10713   10716   10717   10719   10717   10718   10717   10720
   10721   10723   10721   10722   10721   10724   10725   10727
   10725   10726   10725   10728   10729   10731   10729   10730
   10729   10732   10733   10735   10733   10734   10733   10736
   10737   10739   10737   10738   10737   10740   10741   10743
   10741   10742   10741   10744   10745   10747   10745   10746
   10745   10748   10749   10751   10749   10750   10749   10752
   10753   10755   10753   10754   10753   10756   10757   10759
   10757   10758   10757   10760   10761   10763   10761   10762
   10761   10764   10765   10767   10765   10766   10765   10768
   10769   10771   10769   10770   10769   10772   10773   10775
   10773   10774   10773   10776   10777   10779   10777   10778
   10777   10780   10781   10783   10781   10782   10781   10784
   10785   10787   10785   10786   10785   10788   10789   10791
   10789   10790   10789   10792   10793   10795   10793   10794
   10793   10796   10797   10799   10797   10798   10797   10800
   10801   10803   10801   10802   10801   10804   10805   10807
   10805   10806   10805   10808   10809   10811   10809   10810
   10809   10812   10813   10815   10813   10814   10813   10816
   10817   10819   10817   10818   10817   10820   10821   10823
   10821   10822   10821   10824   10825   10827   10825   10826
   10825   10828   10829   10831   10829   10830   10829   10832
   10833   10835   10833   10834   10833   10836   10837   10839
   10837   10838   10837   10840   10841   10843   10841   10842
   10841   10844   10845   10847   10845   10846   10845   10848
   10849   10851   10849   10850   10849   10852   10853   10855
   10853   10854   10853   10856   10857   10859   10857   10858
   10857   10860   10861   10863   10861   10862   10861   10864
   10865   10867   10865   10866   10865   10868   10869   10871
   10869   10870   10869   10872   10873   10875   10873   10874
   10873   10876   10877   10879   10877   10878   10877   10880
   10881   10883   10881   10882   10881   10884   10885   10887
   10885   10886   10885   10888   10889   10891   10889   10890
   10889   10892   10893   10895   10893   10894   10893   10896
   10897   10899   10897   10898   10897   10900   10901   10903
   10901   10902   10901   10904   10905   10907   10905   10906
   10905   10908   10909   10911   10909   10910   10909   10912
   10913   10915   10913   10914   10913   10916   10917   10919
   10917   10918   10917   10920   10921   10923   10921   10922
   10921   10924   10925   10927   10925   10926   10925   10928
   10929   10931   10929   10930   10929   10932   10933   10935
   10933   10934   10933   10936   10937   10939   10937   10938
   10937   10940   10941   10943   10941   10942   10941   10944
   10945   10947   10945   10946   10945   10948   10949   10951
   10949   10950   10949   10952   10953   10955   10953   10954
   10953   10956   10957   10959   10957   10958   10957   10960
   10961   10963   10961   10962   10961   10964   10965   10967
   10965   10966   10965   10968   10969   10971   10969   10970
   10969   10972   10973   10975   10973   10974   10973   10976
   10977   10979   10977   10978   10977   10980   10981   10983
   10981   10982   10981   10984   10985   10987   10985   10986
   10985   10988   10989   10991   10989   10990   10989   10992
   10993   10995   10993   10994   10993   10996   10997   10999
   10997   10998   10997   11000   11001   11003   11001   11002
   11001   11004   11005   11007   11005   11006   11005   11008
   11009   11011   11009   11010   11009   11012   11013   11015
   11013   11014   11013   11016   11017   11019   11017   11018
   11017   11020   11021   11023   11021   11022   11021   11024
   11025   11027   11025   11026   11025   11028   11029   11031
   11029   11030   11029   11032   11033   11035   11033   11034
   11033   11036   11037   11039   11037   11038   11037   11040
   11041   11043   11041   11042   11041   11044   11045   11047
   11045   11046   11045   11048   11049   11051   11049   11050
   11049   11052   11053   11055   11053   11054   11053   11056
   11057   11059   11057   11058   11057   11060   11061   11063
   11061   11062   11061   11064   11065   11067   11065   11066
   11065   11068   11069   11071   11069   11070   11069   11072
   11073   11075   11073   11074   11073   11076   11077   11079
   11077   11078   11077   11080   11081   11083   11081   11082
   11081   11084   11085   11087   11085   11086   11085   11088
   11089   11091   11089   11090   11089   11092   11093   11095
   11093   11094   11093   11096   11097   11099   11097   11098
   11097   11100   11101   11103   11101   11102   11101   11104
   11105   11107   11105   11106   11105   11108   11109   11111
   11109   11110   11109   11112   11113   11115   11113   11114
   11113   11116   11117   11119   11117   11118   11117   11120
   11121   11123   11121   11122   11121   11124   11125   11127
   11125   11126   11125   11128   11129   11131   11129   11130
   11129   11132   11133   11135   11133   11134   11133   11136
   11137   11139   11137   11138   11137   11140   11141   11143
   11141   11142   11141   11144   11145   11147   11145   11146
   11145   11148   11149   11151   11149   11150   11149   11152
   11153   11155   11153   11154   11153   11156   11157   11159
   11157   11158   11157   11160   11161   11163   11161   11162
   11161   11164   11165   11167   11165   11166   11165   11168
   11169   11171   11169   11170   11169   11172   11173   11175
   11173   11174   11173   11176   11177   11179   11177   11178
   11177   11180   11181   11183   11181   11182   11181   11184
   11185   11187   11185   11186   11185   11188   11189   11191
   11189   11190   11189   11192   11193   11195   11193   11194
   11193   11196   11197   11199   11197   11198   11197   11200
   11201   11203   11201   11202   11201   11204   11205   11207
   11205   11206   11205   11208   11209   11211   11209   11210
   11209   11212   11213   11215   11213   11214   11213   11216
   11217   11219   11217   11218   11217   11220   11221   11223
   11221   11222   11221   11224   11225   11227   11225   11226
   11225   11228   11229   11231   11229   11230   11229   11232
   11233   11235   11233   11234   11233   11236   11237   11239
   11237   11238   11237   11240   11241   11243   11241   11242
   11241   11244   11245   11247   11245   11246   11245   11248
   11249   11251   11249   11250   11249   11252   11253   11255
   11253   11254   11253   11256   11257   11259   11257   11258
   11257   11260   11261   11263   11261   11262   11261   11264
   11265   11267   11265   11266   11265   11268   11269   11271
   11269   11270   11269   11272   11273   11275   11273   11274
   11273   11276   11277   11279   11277   11278   11277   11280
   11281   11283   11281   11282   11281   11284   11285   11287
   11285   11286   11285   11288   11289   11291   11289   11290
   11289   11292   11293   11295   11293   11294   11293   11296
   11297   11299   11297   11298   11297   11300   11301   11303
   11301   11302   11301   11304   11305   11307   11305   11306
   11305   11308   11309   11311   11309   11310   11309   11312
   11313   11315   11313   11314   11313   11316   11317   11319
   11317   11318   11317   11320   11321   11323   11321   11322
   11321   11324   11325   11327   11325   11326   11325   11328
   11329   11331   11329   11330   11329   11332   11333   11335
   11333   11334   11333   11336   11337   11339   11337   11338
   11337   11340   11341   11343   11341   11342   11341   11344
   11345   11347   11345   11346   11345   11348   11349   11351
   11349   11350   11349   11352   11353   11355   11353   11354
   11353   11356   11357   11359   11357   11358   11357   11360
   11361   11363   11361   11362   11361   11364   11365   11367
   11365   11366   11365   11368   11369   11371   11369   11370
   11369   11372   11373   11375   11373   11374   11373   11376
   11377   11379   11377   11378   11377   11380   11381   11383
   11381   11382   11381   11384   11385   11387   11385   11386
   11385   11388   11389   11391   11389   11390   11389   11392
   11393   11395   11393   11394   11393   11396   11397   11399
   11397   11398   11397   11400   11401   11403   11401   11402
   11401   11404   11405   11407   11405   11406   11405   11408
   11409   11411   11409   11410   11409   11412   11413   11415
   11413   11414   11413   11416   11417   11419   11417   11418
   11417   11420   11421   11423   11421   11422   11421   11424
   11425   11427   11425   11426   11425   11428   11429   11431
   11429   11430   11429   11432   11433   11435   11433   11434
   11433   11436   11437   11439   11437   11438   11437   11440
   11441   11443   11441   11442   11441   11444   11445   11447
   11445   11446   11445   11448   11449   11451   11449   11450
   11449   11452   11453   11455   11453   11454   11453   11456
   11457   11459   11457   11458   11457   11460   11461   11463
   11461   11462   11461   11464   11465   11467   11465   11466
   11465   11468   11469   11471   11469   11470   11469   11472
   11473   11475   11473   11474   11473   11476   11477   11479
   11477   11478   11477   11480   11481   11483   11481   11482
   11481   11484   11485   11487   11485   11486   11485   11488
   11489   11491   11489   11490   11489   11492   11493   11495
   11493   11494   11493   11496   11497   11499   11497   11498
   11497   11500   11501   11503   11501   11502   11501   11504
   11505   11507   11505   11506   11505   11508   11509   11511
   11509   11510   11509   11512   11513   11515   11513   11514
   11513   11516   11517   11519   11517   11518   11517   11520
   11521   11523   11521   11522   11521   11524   11525   11527
   11525   11526   11525   11528   11529   11531   11529   11530
   11529   11532   11533   11535   11533   11534   11533   11536
   11537   11539   11537   11538   11537   11540   11541   11543
   11541   11542   11541   11544   11545   11547   11545   11546
   11545   11548   11549   11551   11549   11550   11549   11552
   11553   11555   11553   11554   11553   11556   11557   11559
   11557   11558   11557   11560   11561   11563   11561   11562
   11561   11564   11565   11567   11565   11566   11565   11568
   11569   11571   11569   11570   11569   11572   11573   11575
   11573   11574   11573   11576   11577   11579   11577   11578
   11577   11580   11581   11583   11581   11582   11581   11584
   11585   11587   11585   11586   11585   11588   11589   11591
   11589   11590   11589   11592   11593   11595   11593   11594
   11593   11596   11597   11599   11597   11598   11597   11600
   11601   11603   11601   11602   11601   11604   11605   11607
   11605   11606   11605   11608   11609   11611   11609   11610
   11609   11612   11613   11615   11613   11614   11613   11616
   11617   11619   11617   11618   11617   11620   11621   11623
   11621   11622   11621   11624   11625   11627   11625   11626
   11625   11628   11629   11631   11629   11630   11629   11632
   11633   11635   11633   11634   11633   11636   11637   11639
   11637   11638   11637   11640   11641   11643   11641   11642
   11641   11644   11645   11647   11645   11646   11645   11648
   11649   11651   11649   11650   11649   11652   11653   11655
   11653   11654   11653   11656   11657   11659   11657   11658
   11657   11660   11661   11663   11661   11662   11661   11664
   11665   11667   11665   11666   11665   11668   11669   11671
   11669   11670   11669   11672   11673   11675   11673   11674
   11673   11676   11677   11679   11677   11678   11677   11680
   11681   11683   11681   11682   11681   11684   11685   11687
   11685   11686   11685   11688   11689   11691   11689   11690
   11689   11692   11693   11695   11693   11694   11693   11696
   11697   11699   11697   11698   11697   11700   11701   11703
   11701   11702   11701   11704   11705   11707   11705   11706
   11705   11708   11709   11711   11709   11710   11709   11712
   11713   11715   11713   11714   11713   11716   11717   11719
   11717   11718   11717   11720   11721   11723   11721   11722
   11721   11724   11725   11727   11725   11726   11725   11728
   11729   11731   11729   11730   11729   11732   11733   11735
   11733   11734   11733   11736   11737   11739   11737   11738
   11737   11740   11741   11743   11741   11742   11741   11744
   11745   11747   11745   11746   11745   11748   11749   11751
   11749   11750   11749   11752   11753   11755   11753   11754
   11753   11756   11757   11759   11757   11758   11757   11760
   11761   11763   11761   11762   11761   11764   11765   11767
   11765   11766   11765   11768   11769   11771   11769   11770
   11769   11772   11773   11775   11773   11774   11773   11776
   11777   11779   11777   11778   11777   11780   11781   11783
   11781   11782   11781   11784   11785   11787   11785   11786
   11785   11788   11789   11791   11789   11790   11789   11792
   11793   11795   11793   11794   11793   11796   11797   11799
   11797   11798   11797   11800   11801   11803   11801   11802
   11801   11804   11805   11807   11805   11806   11805   11808
   11809   11811   11809   11810   11809   11812   11813   11815
   11813   11814   11813   11816   11817   11819   11817   11818
   11817   11820   11821   11823   11821   11822   11821   11824
   11825   11827   11825   11826   11825   11828   11829   11831
   11829   11830   11829   11832   11833   11835   11833   11834
   11833   11836   11837   11839   11837   11838   11837   11840
   11841   11843   11841   11842   11841   11844   11845   11847
   11845   11846   11845   11848   11849   11851   11849   11850
   11849   11852   11853   11855   11853   11854   11853   11856
   11857   11859   11857   11858   11857   11860   11861   11863
   11861   11862   11861   11864   11865   11867   11865   11866
   11865   11868   11869   11871   11869   11870   11869   11872
   11873   11875   11873   11874   11873   11876   11877   11879
   11877   11878   11877   11880   11881   11883   11881   11882
   11881   11884   11885   11887   11885   11886   11885   11888
   11889   11891   11889   11890   11889   11892   11893   11895
   11893   11894   11893   11896   11897   11899   11897   11898
   11897   11900   11901   11903   11901   11902   11901   11904
   11905   11907   11905   11906   11905   11908   11909   11911
   11909   11910   11909   11912   11913   11915   11913   11914
   11913   11916   11917   11919   11917   11918   11917   11920
   11921   11923   11921   11922   11921   11924   11925   11927
   11925   11926   11925   11928   11929   11931   11929   11930
   11929   11932   11933   11935   11933   11934   11933   11936
   11937   11939   11937   11938   11937   11940   11941   11943
   11941   11942   11941   11944   11945   11947   11945   11946
   11945   11948   11949   11951   11949   11950   11949   11952
   11953   11955   11953   11954   11953   11956   11957   11959
   11957   11958   11957   11960   11961   11963   11961   11962
   11961   11964   11965   11967   11965   11966   11965   11968
   11969   11971   11969   11970   11969   11972   11973   11975
   11973   11974   11973   11976   11977   11979   11977   11978
   11977   11980   11981   11983   11981   11982   11981   11984
   11985   11987   11985   11986   11985   11988   11989   11991
   11989   11990   11989   11992   11993   11995   11993   11994
   11993   11996   11997   11999   11997   11998   11997   12000
   12001   12003   12001   12002   12001   12004   12005   12007
   12005   12006   12005   12008   12009   12011   12009   12010
   12009   12012   12013   12015   12013   12014   12013   12016
   12017   12019   12017   12018   12017   12020   12021   12023
   12021   12022   12021   12024   12025   12027   12025   12026
   12025   12028   12029   12031   12029   12030   12029   12032
   12033   12035   12033   12034   12033   12036   12037   12039
   12037   12038   12037   12040   12041   12043   12041   12042
   12041   12044   12045   12047   12045   12046   12045   12048
   12049   12051   12049   12050   12049   12052   12053   12055
   12053   12054   12053   12056   12057   12059   12057   12058
   12057   12060   12061   12063   12061   12062   12061   12064
   12065   12067   12065   12066   12065   12068   12069   12071
   12069   12070   12069   12072   12073   12075   12073   12074
   12073   12076   12077   12079   12077   12078   12077   12080
   12081   12083   12081   12082   12081   12084   12085   12087
   12085   12086   12085   12088   12089   12091   12089   12090
   12089   12092   12093   12095   12093   12094   12093   12096
   12097   12099   12097   12098   12097   12100   12101   12103
   12101   12102   12101   12104   12105   12107   12105   12106
   12105   12108   12109   12111   12109   12110   12109   12112
   12113   12115   12113   12114   12113   12116   12117   12119
   12117   12118   12117   12120   12121   12123   12121   12122
   12121   12124   12125   12127   12125   12126   12125   12128
   12129   12131   12129   12130   12129   12132   12133   12135
   12133   12134   12133   12136   12137   12139   12137   12138
   12137   12140   12141   12143   12141   12142   12141   12144
   12145   12147   12145   12146   12145   12148   12149   12151
   12149   12150   12149   12152   12153   12155   12153   12154
   12153   12156   12157   12159   12157   12158   12157   12160
   12161   12163   12161   12162   12161   12164   12165   12167
   12165   12166   12165   12168   12169   12171   12169   12170
   12169   12172   12173   12175   12173   12174   12173   12176
   12177   12179   12177   12178   12177   12180   12181   12183
   12181   12182   12181   12184   12185   12187   12185   12186
   12185   12188   12189   12191   12189   12190   12189   12192
   12193   12195   12193   12194   12193   12196   12197   12199
   12197   12198   12197   12200   12201   12203   12201   12202
   12201   12204   12205   12207   12205   12206   12205   12208
   12209   12211   12209   12210   12209   12212   12213   12215
   12213   12214   12213   12216   12217   12219   12217   12218
   12217   12220   12221   12223   12221   12222   12221   12224
   12225   12227   12225   12226   12225   12228   12229   12231
   12229   12230   12229   12232   12233   12235   12233   12234
   12233   12236   12237   12239   12237   12238   12237   12240
   12241   12243   12241   12242   12241   12244   12245   12247
   12245   12246   12245   12248   12249   12251   12249   12250
   12249   12252   12253   12255   12253   12254   12253   12256
   12257   12259   12257   12258   12257   12260   12261   12263
   12261   12262   12261   12264   12265   12267   12265   12266
   12265   12268   12269   12271   12269   12270   12269   12272
   12273   12275   12273   12274   12273   12276   12277   12279
   12277   12278   12277   12280   12281   12283   12281   12282
   12281   12284   12285   12287   12285   12286   12285   12288
   12289   12291   12289   12290   12289   12292   12293   12295
   12293   12294   12293   12296   12297   12299   12297   12298
   12297   12300   12301   12303   12301   12302   12301   12304
   12305   12307   12305   12306   12305   12308   12309   12311
   12309   12310   12309   12312   12313   12315   12313   12314
   12313   12316   12317   12319   12317   12318   12317   12320
   12321   12323   12321   12322   12321   12324   12325   12327
   12325   12326   12325   12328   12329   12331   12329   12330
   12329   12332   12333   12335   12333   12334   12333   12336
   12337   12339   12337   12338   12337   12340   12341   12343
   12341   12342   12341   12344   12345   12347   12345   12346
   12345   12348   12349   12351   12349   12350   12349   12352
   12353   12355   12353   12354   12353   12356   12357   12359
   12357   12358   12357   12360   12361   12363   12361   12362
   12361   12364   12365   12367   12365   12366   12365   12368
   12369   12371   12369   12370   12369   12372   12373   12375
   12373   12374   12373   12376   12377   12379   12377   12378
   12377   12380   12381   12383   12381   12382   12381   12384
   12385   12387   12385   12386   12385   12388   12389   12391
   12389   12390   12389   12392   12393   12395   12393   12394
   12393   12396   12397   12399   12397   12398   12397   12400
   12401   12403   12401   12402   12401   12404   12405   12407
   12405   12406   12405   12408   12409   12411   12409   12410
   12409   12412   12413   12415   12413   12414   12413   12416
   12417   12419   12417   12418   12417   12420   12421   12423
   12421   12422   12421   12424   12425   12427   12425   12426
   12425   12428   12429   12431   12429   12430   12429   12432
   12433   12435   12433   12434   12433   12436   12437   12439
   12437   12438   12437   12440   12441   12443   12441   12442
   12441   12444   12445   12447   12445   12446   12445   12448
   12449   12451   12449   12450   12449   12452   12453   12455
   12453   12454   12453   12456   12457   12459   12457   12458
   12457   12460   12461   12463   12461   12462   12461   12464
   12465   12467   12465   12466   12465   12468   12469   12471
   12469   12470   12469   12472   12473   12475   12473   12474
   12473   12476   12477   12479   12477   12478   12477   12480
   12481   12483   12481   12482   12481   12484   12485   12487
   12485   12486   12485   12488   12489   12491   12489   12490
   12489   12492   12493   12495   12493   12494   12493   12496
   12497   12499   12497   12498   12497   12500   12501   12503
   12501   12502   12501   12504   12505   12507   12505   12506
   12505   12508   12509   12511   12509   12510   12509   12512
   12513   12515   12513   12514   12513   12516   12517   12519
   12517   12518   12517   12520   12521   12523   12521   12522
   12521   12524   12525   12527   12525   12526   12525   12528
   12529   12531   12529   12530   12529   12532   12533   12535
   12533   12534   12533   12536   12537   12539   12537   12538
   12537   12540   12541   12543   12541   12542   12541   12544
   12545   12547   12545   12546   12545   12548   12549   12551
   12549   12550   12549   12552   12553   12555   12553   12554
   12553   12556   12557   12559   12557   12558   12557   12560
   12561   12563   12561   12562   12561   12564   12565   12567
   12565   12566   12565   12568   12569   12571   12569   12570
   12569   12572   12573   12575   12573   12574   12573   12576
   12577   12579   12577   12578   12577   12580   12581   12583
   12581   12582   12581   12584   12585   12587   12585   12586
   12585   12588   12589   12591   12589   12590   12589   12592
   12593   12595   12593   12594   12593   12596   12597   12599
   12597   12598   12597   12600   12601   12603   12601   12602
   12601   12604   12605   12607   12605   12606   12605   12608
   12609   12611   12609   12610   12609   12612   12613   12615
   12613   12614   12613   12616   12617   12619   12617   12618
   12617   12620   12621   12623   12621   12622   12621   12624
   12625   12627   12625   12626   12625   12628   12629   12631
   12629   12630   12629   12632   12633   12635   12633   12634
   12633   12636   12637   12639   12637   12638   12637   12640
   12641   12643   12641   12642   12641   12644   12645   12647
   12645   12646   12645   12648   12649   12651   12649   12650
   12649   12652   12653   12655   12653   12654   12653   12656
   12657   12659   12657   12658   12657   12660   12661   12663
   12661   12662   12661   12664   12665   12667   12665   12666
   12665   12668   12669   12671   12669   12670   12669   12672
   12673   12675   12673   12674   12673   12676   12677   12679
   12677   12678   12677   12680   12681   12683   12681   12682
   12681   12684   12685   12687   12685   12686   12685   12688
   12689   12691   12689   12690   12689   12692   12693   12695
   12693   12694   12693   12696   12697   12699   12697   12698
   12697   12700   12701   12703   12701   12702   12701   12704
   12705   12707   12705   12706   12705   12708   12709   12711
   12709   12710   12709   12712   12713   12715   12713   12714
   12713   12716   12717   12719   12717   12718   12717   12720
   12721   12723   12721   12722   12721   12724   12725   12727
   12725   12726   12725   12728   12729   12731   12729   12730
   12729   12732   12733   12735   12733   12734   12733   12736
   12737   12739   12737   12738   12737   12740   12741   12743
   12741   12742   12741   12744   12745   12747   12745   12746
   12745   12748   12749   12751   12749   12750   12749   12752
   12753   12755   12753   12754   12753   12756   12757   12759
   12757   12758   12757   12760   12761   12763   12761   12762
   12761   12764   12765   12767   12765   12766   12765   12768
   12769   12771   12769   12770   12769   12772   12773   12775
   12773   12774   12773   12776   12777   12779   12777   12778
   12777   12780   12781   12783   12781   12782   12781   12784
   12785   12787   12785   12786   12785   12788   12789   12791
   12789   12790   12789   12792   12793   12795   12793   12794
   12793   12796   12797   12799   12797   12798   12797   12800
   12801   12803   12801   12802   12801   12804   12805   12807
   12805   12806   12805   12808   12809   12811   12809   12810
   12809   12812   12813   12815   12813   12814   12813   12816
   12817   12819   12817   12818   12817   12820   12821   12823
   12821   12822   12821   12824   12825   12827   12825   12826
   12825   12828   12829   12831   12829   12830   12829   12832
   12833   12835   12833   12834   12833   12836   12837   12839
   12837   12838   12837   12840   12841   12843   12841   12842
   12841   12844   12845   12847   12845   12846   12845   12848
   12849   12851   12849   12850   12849   12852   12853   12855
   12853   12854   12853   12856   12857   12859   12857   12858
   12857   12860   12861   12863   12861   12862   12861   12864
   12865   12867   12865   12866   12865   12868   12869   12871
   12869   12870   12869   12872   12873   12875   12873   12874
   12873   12876   12877   12879   12877   12878   12877   12880
   12881   12883   12881   12882   12881   12884   12885   12887
   12885   12886   12885   12888   12889   12891   12889   12890
   12889   12892   12893   12895   12893   12894   12893   12896
   12897   12899   12897   12898   12897   12900   12901   12903
   12901   12902   12901   12904   12905   12907   12905   12906
   12905   12908   12909   12911   12909   12910   12909   12912
   12913   12915   12913   12914   12913   12916   12917   12919
   12917   12918   12917   12920   12921   12923   12921   12922
   12921   12924   12925   12927   12925   12926   12925   12928
   12929   12931   12929   12930   12929   12932   12933   12935
   12933   12934   12933   12936   12937   12939   12937   12938
   12937   12940   12941   12943   12941   12942   12941   12944
   12945   12947   12945   12946   12945   12948   12949   12951
   12949   12950   12949   12952   12953   12955   12953   12954
   12953   12956   12957   12959   12957   12958   12957   12960
   12961   12963   12961   12962   12961   12964   12965   12967
   12965   12966   12965   12968   12969   12971   12969   12970
   12969   12972   12973   12975   12973   12974   12973   12976
   12977   12979   12977   12978   12977   12980   12981   12983
   12981   12982   12981   12984   12985   12987   12985   12986
   12985   12988   12989   12991   12989   12990   12989   12992
   12993   12995   12993   12994   12993   12996   12997   12999
   12997   12998   12997   13000   13001   13003   13001   13002
   13001   13004   13005   13007   13005   13006   13005   13008
   13009   13011   13009   13010   13009   13012   13013   13015
   13013   13014   13013   13016   13017   13019   13017   13018
   13017   13020   13021   13023   13021   13022   13021   13024
   13025   13027   13025   13026   13025   13028   13029   13031
   13029   13030   13029   13032   13033   13035   13033   13034
   13033   13036   13037   13039   13037   13038   13037   13040
   13041   13043   13041   13042   13041   13044   13045   13047
   13045   13046   13045   13048   13049   13051   13049   13050
   13049   13052   13053   13055   13053   13054   13053   13056
   13057   13059   13057   13058   13057   13060   13061   13063
   13061   13062   13061   13064   13065   13067   13065   13066
   13065   13068   13069   13071   13069   13070   13069   13072
   13073   13075   13073   13074   13073   13076   13077   13079
   13077   13078   13077   13080   13081   13083   13081   13082
   13081   13084   13085   13087   13085   13086   13085   13088
   13089   13091   13089   13090   13089   13092   13093   13095
   13093   13094   13093   13096   13097   13099   13097   13098
   13097   13100   13101   13103   13101   13102   13101   13104
   13105   13107   13105   13106   13105   13108   13109   13111
   13109   13110   13109   13112   13113   13115   13113   13114
   13113   13116   13117   13119   13117   13118   13117   13120
   13121   13123   13121   13122   13121   13124   13125   13127
   13125   13126   13125   13128   13129   13131   13129   13130
   13129   13132   13133   13135   13133   13134   13133   13136
   13137   13139   13137   13138   13137   13140   13141   13143
   13141   13142   13141   13144   13145   13147   13145   13146
   13145   13148   13149   13151   13149   13150   13149   13152
   13153   13155   13153   13154   13153   13156   13157   13159
   13157   13158   13157   13160   13161   13163   13161   13162
   13161   13164   13165   13167   13165   13166   13165   13168
   13169   13171   13169   13170   13169   13172   13173   13175
   13173   13174   13173   13176   13177   13179   13177   13178
   13177   13180   13181   13183   13181   13182   13181   13184
   13185   13187   13185   13186   13185   13188   13189   13191
   13189   13190   13189   13192   13193   13195   13193   13194
   13193   13196   13197   13199   13197   13198   13197   13200
   13201   13203   13201   13202   13201   13204   13205   13207
   13205   13206   13205   13208   13209   13211   13209   13210
   13209   13212   13213   13215   13213   13214   13213   13216
   13217   13219   13217   13218   13217   13220   13221   13223
   13221   13222   13221   13224   13225   13227   13225   13226
   13225   13228   13229   13231   13229   13230   13229   13232
   13233   13235   13233   13234   13233   13236   13237   13239
   13237   13238   13237   13240   13241   13243   13241   13242
   13241   13244   13245   13247   13245   13246   13245   13248
   13249   13251   13249   13250   13249   13252   13253   13255
   13253   13254   13253   13256   13257   13259   13257   13258
   13257   13260   13261   13263   13261   13262   13261   13264
   13265   13267   13265   13266   13265   13268   13269   13271
   13269   13270   13269   13272   13273   13275   13273   13274
   13273   13276   13277   13279   13277   13278   13277   13280
   13281   13283   13281   13282   13281   13284   13285   13287
   13285   13286   13285   13288   13289   13291   13289   13290
   13289   13292   13293   13295   13293   13294   13293   13296
   13297   13299   13297   13298   13297   13300   13301   13303
   13301   13302   13301   13304   13305   13307   13305   13306
   13305   13308   13309   13311   13309   13310   13309   13312
   13313   13315   13313   13314   13313   13316   13317   13319
   13317   13318   13317   13320   13321   13323   13321   13322
   13321   13324   13325   13327   13325   13326   13325   13328
   13329   13331   13329   13330   13329   13332   13333   13335
   13333   13334   13333   13336   13337   13339   13337   13338
   13337   13340   13341   13343   13341   13342   13341   13344
   13345   13347   13345   13346   13345   13348   13349   13351
   13349   13350   13349   13352   13353   13355   13353   13354
   13353   13356   13357   13359   13357   13358   13357   13360
   13361   13363   13361   13362   13361   13364   13365   13367
   13365   13366   13365   13368   13369   13371   13369   13370
   13369   13372   13373   13375   13373   13374   13373   13376
   13377   13379   13377   13378   13377   13380   13381   13383
   13381   13382   13381   13384   13385   13387   13385   13386
   13385   13388   13389   13391   13389   13390   13389   13392
   13393   13395   13393   13394   13393   13396   13397   13399
   13397   13398   13397   13400   13401   13403   13401   13402
   13401   13404   13405   13407   13405   13406   13405   13408
   13409   13411   13409   13410   13409   13412   13413   13415
   13413   13414   13413   13416   13417   13419   13417   13418
   13417   13420   13421   13423   13421   13422   13421   13424
   13425   13427   13425   13426   13425   13428   13429   13431
   13429   13430   13429   13432   13433   13435   13433   13434
   13433   13436   13437   13439   13437   13438   13437   13440
   13441   13443   13441   13442   13441   13444   13445   13447
   13445   13446   13445   13448   13449   13451   13449   13450
   13449   13452   13453   13455   13453   13454   13453   13456
   13457   13459   13457   13458   13457   13460   13461   13463
   13461   13462   13461   13464   13465   13467   13465   13466
   13465   13468   13469   13471   13469   13470   13469   13472
   13473   13475   13473   13474   13473   13476   13477   13479
   13477   13478   13477   13480   13481   13483   13481   13482
   13481   13484   13485   13487   13485   13486   13485   13488
   13489   13491   13489   13490   13489   13492   13493   13495
   13493   13494   13493   13496   13497   13499   13497   13498
   13497   13500   13501   13503   13501   13502   13501   13504
   13505   13507   13505   13506   13505   13508   13509   13511
   13509   13510   13509   13512   13513   13515   13513   13514
   13513   13516   13517   13519   13517   13518   13517   13520
   13521   13523   13521   13522   13521   13524   13525   13527
   13525   13526   13525   13528   13529   13531   13529   13530
   13529   13532   13533   13535   13533   13534   13533   13536
   13537   13539   13537   13538   13537   13540   13541   13543
   13541   13542   13541   13544   13545   13547   13545   13546
   13545   13548   13549   13551   13549   13550   13549   13552
   13553   13555   13553   13554   13553   13556   13557   13559
   13557   13558   13557   13560   13561   13563   13561   13562
   13561   13564   13565   13567   13565   13566   13565   13568
   13569   13571   13569   13570   13569   13572   13573   13575
   13573   13574   13573   13576   13577   13579   13577   13578
   13577   13580   13581   13583   13581   13582   13581   13584
   13585   13587   13585   13586   13585   13588   13589   13591
   13589   13590   13589   13592   13593   13595   13593   13594
   13593   13596   13597   13599   13597   13598   13597   13600
   13601   13603   13601   13602   13601   13604   13605   13607
   13605   13606   13605   13608   13609   13611   13609   13610
   13609   13612   13613   13615   13613   13614   13613   13616
   13617   13619   13617   13618   13617   13620   13621   13623
   13621   13622   13621   13624   13625   13627   13625   13626
   13625   13628   13629   13631   13629   13630   13629   13632
   13633   13635   13633   13634   13633   13636   13637   13639
   13637   13638   13637   13640   13641   13643   13641   13642
   13641   13644   13645   13647   13645   13646   13645   13648
   13649   13651   13649   13650   13649   13652   13653   13655
   13653   13654   13653   13656   13657   13659   13657   13658
   13657   13660   13661   13663   13661   13662   13661   13664
   13665   13667   13665   13666   13665   13668   13669   13671
   13669   13670   13669   13672   13673   13675   13673   13674
   13673   13676   13677   13679   13677   13678   13677   13680
   13681   13683   13681   13682   13681   13684   13685   13687
   13685   13686   13685   13688   13689   13691   13689   13690
   13689   13692   13693   13695   13693   13694   13693   13696
   13697   13699   13697   13698   13697   13700   13701   13703
   13701   13702   13701   13704   13705   13707   13705   13706
   13705   13708   13709   13711   13709   13710   13709   13712
   13713   13715   13713   13714   13713   13716   13717   13719
   13717   13718   13717   13720   13721   13723   13721   13722
   13721   13724   13725   13727   13725   13726   13725   13728
   13729   13731   13729   13730   13729   13732   13733   13735
   13733   13734   13733   13736   13737   13739   13737   13738
   13737   13740   13741   13743   13741   13742   13741   13744
   13745   13747   13745   13746   13745   13748   13749   13751
   13749   13750   13749   13752   13753   13755   13753   13754
   13753   13756   13757   13759   13757   13758   13757   13760
   13761   13763   13761   13762   13761   13764   13765   13767
   13765   13766   13765   13768   13769   13771   13769   13770
   13769   13772   13773   13775   13773   13774   13773   13776
   13777   13779   13777   13778   13777   13780   13781   13783
   13781   13782   13781   13784   13785   13787   13785   13786
   13785   13788   13789   13791   13789   13790   13789   13792
   13793   13795   13793   13794   13793   13796   13797   13799
   13797   13798   13797   13800   13801   13803   13801   13802
   13801   13804   13805   13807   13805   13806   13805   13808
   13809   13811   13809   13810   13809   13812   13813   13815
   13813   13814   13813   13816   13817   13819   13817   13818
   13817   13820   13821   13823   13821   13822   13821   13824
   13825   13827   13825   13826   13825   13828   13829   13831
   13829   13830   13829   13832   13833   13835   13833   13834
   13833   13836   13837   13839   13837   13838   13837   13840
   13841   13843   13841   13842   13841   13844   13845   13847
   13845   13846   13845   13848   13849   13851   13849   13850
   13849   13852   13853   13855   13853   13854   13853   13856
   13857   13859   13857   13858   13857   13860   13861   13863
   13861   13862   13861   13864   13865   13867   13865   13866
   13865   13868   13869   13871   13869   13870   13869   13872
   13873   13875   13873   13874   13873   13876   13877   13879
   13877   13878   13877   13880   13881   13883   13881   13882
   13881   13884   13885   13887   13885   13886   13885   13888
   13889   13891   13889   13890   13889   13892   13893   13895
   13893   13894   13893   13896   13897   13899   13897   13898
   13897   13900   13901   13903   13901   13902   13901   13904
   13905   13907   13905   13906   13905   13908   13909   13911
   13909   13910   13909   13912   13913   13915   13913   13914
   13913   13916   13917   13919   13917   13918   13917   13920
   13921   13923   13921   13922   13921   13924   13925   13927
   13925   13926   13925   13928   13929   13931   13929   13930
   13929   13932   13933   13935   13933   13934   13933   13936
   13937   13939   13937   13938   13937   13940   13941   13943
   13941   13942   13941   13944   13945   13947   13945   13946
   13945   13948   13949   13951   13949   13950   13949   13952
   13953   13955   13953   13954   13953   13956   13957   13959
   13957   13958   13957   13960   13961   13963   13961   13962
   13961   13964   13965   13967   13965   13966   13965   13968
   13969   13971   13969   13970   13969   13972   13973   13975
   13973   13974   13973   13976   13977   13979   13977   13978
   13977   13980   13981   13983   13981   13982   13981   13984
   13985   13987   13985   13986   13985   13988   13989   13991
   13989   13990   13989   13992   13993   13995   13993   13994
   13993   13996   13997   13999   13997   13998   13997   14000
   14001   14003   14001   14002   14001   14004   14005   14007
   14005   14006   14005   14008   14009   14011   14009   14010
   14009   14012   14013   14015   14013   14014   14013   14016
   14017   14019   14017   14018   14017   14020   14021   14023
   14021   14022   14021   14024   14025   14027   14025   14026
   14025   14028   14029   14031   14029   14030   14029   14032
   14033   14035   14033   14034   14033   14036   14037   14039
   14037   14038   14037   14040   14041   14043   14041   14042
   14041   14044   14045   14047   14045   14046   14045   14048
   14049   14051   14049   14050   14049   14052   14053   14055
   14053   14054   14053   14056   14057   14059   14057   14058
   14057   14060   14061   14063   14061   14062   14061   14064
   14065   14067   14065   14066   14065   14068   14069   14071
   14069   14070   14069   14072   14073   14075   14073   14074
   14073   14076   14077   14079   14077   14078   14077   14080
   14081   14083   14081   14082   14081   14084   14085   14087
   14085   14086   14085   14088   14089   14091   14089   14090
   14089   14092   14093   14095   14093   14094   14093   14096
   14097   14099   14097   14098   14097   14100   14101   14103
   14101   14102   14101   14104   14105   14107   14105   14106
   14105   14108   14109   14111   14109   14110   14109   14112
   14113   14115   14113   14114   14113   14116   14117   14119
   14117   14118   14117   14120   14121   14123   14121   14122
   14121   14124   14125   14127   14125   14126   14125   14128
   14129   14131   14129   14130   14129   14132   14133   14135
   14133   14134   14133   14136   14137   14139   14137   14138
   14137   14140   14141   14143   14141   14142   14141   14144
   14145   14147   14145   14146   14145   14148   14149   14151
   14149   14150   14149   14152   14153   14155   14153   14154
   14153   14156   14157   14159   14157   14158   14157   14160
   14161   14163   14161   14162   14161   14164   14165   14167
   14165   14166   14165   14168   14169   14171   14169   14170
   14169   14172   14173   14175   14173   14174   14173   14176
   14177   14179   14177   14178   14177   14180   14181   14183
   14181   14182   14181   14184   14185   14187   14185   14186
   14185   14188   14189   14191   14189   14190   14189   14192
   14193   14195   14193   14194   14193   14196   14197   14199
   14197   14198   14197   14200   14201   14203   14201   14202
   14201   14204   14205   14207   14205   14206   14205   14208
   14209   14211   14209   14210   14209   14212   14213   14215
   14213   14214   14213   14216   14217   14219   14217   14218
   14217   14220   14221   14223   14221   14222   14221   14224
   14225   14227   14225   14226   14225   14228   14229   14231
   14229   14230   14229   14232   14233   14235   14233   14234
   14233   14236   14237   14239   14237   14238   14237   14240
   14241   14243   14241   14242   14241   14244   14245   14247
   14245   14246   14245   14248   14249   14251   14249   14250
   14249   14252   14253   14255   14253   14254   14253   14256
   14257   14259   14257   14258   14257   14260   14261   14263
   14261   14262   14261   14264   14265   14267   14265   14266
   14265   14268   14269   14271   14269   14270   14269   14272
   14273   14275   14273   14274   14273   14276   14277   14279
   14277   14278   14277   14280   14281   14283   14281   14282
   14281   14284   14285   14287   14285   14286   14285   14288
   14289   14291   14289   14290   14289   14292   14293   14295
   14293   14294   14293   14296   14297   14299   14297   14298
   14297   14300   14301   14303   14301   14302   14301   14304
   14305   14307   14305   14306   14305   14308   14309   14311
   14309   14310   14309   14312   14313   14315   14313   14314
   14313   14316   14317   14319   14317   14318   14317   14320
   14321   14323   14321   14322   14321   14324   14325   14327
   14325   14326   14325   14328   14329   14331   14329   14330
   14329   14332   14333   14335   14333   14334   14333   14336
   14337   14339   14337   14338   14337   14340   14341   14343
   14341   14342   14341   14344   14345   14347   14345   14346
   14345   14348   14349   14351   14349   14350   14349   14352
   14353   14355   14353   14354   14353   14356   14357   14359
   14357   14358   14357   14360   14361   14363   14361   14362
   14361   14364   14365   14367   14365   14366   14365   14368
   14369   14371   14369   14370   14369   14372   14373   14375
   14373   14374   14373   14376   14377   14379   14377   14378
   14377   14380   14381   14383   14381   14382   14381   14384
   14385   14387   14385   14386   14385   14388   14389   14391
   14389   14390   14389   14392   14393   14395   14393   14394
   14393   14396   14397   14399   14397   14398   14397   14400
   14401   14403   14401   14402   14401   14404   14405   14407
   14405   14406   14405   14408   14409   14411   14409   14410
   14409   14412   14413   14415   14413   14414   14413   14416
   14417   14419   14417   14418   14417   14420   14421   14423
   14421   14422   14421   14424   14425   14427   14425   14426
   14425   14428   14429   14431   14429   14430   14429   14432
   14433   14435   14433   14434   14433   14436   14437   14439
   14437   14438   14437   14440   14441   14443   14441   14442
   14441   14444   14445   14447   14445   14446   14445   14448
   14449   14451   14449   14450   14449   14452   14453   14455
   14453   14454   14453   14456   14457   14459   14457   14458
   14457   14460   14461   14463   14461   14462   14461   14464
   14465   14467   14465   14466   14465   14468   14469   14471
   14469   14470   14469   14472   14473   14475   14473   14474
   14473   14476   14477   14479   14477   14478   14477   14480
   14481   14483   14481   14482   14481   14484   14485   14487
   14485   14486   14485   14488   14489   14491   14489   14490
   14489   14492   14493   14495   14493   14494   14493   14496
   14497   14499   14497   14498   14497   14500   14501   14503
   14501   14502   14501   14504   14505   14507   14505   14506
   14505   14508   14509   14511   14509   14510   14509   14512
   14513   14515   14513   14514   14513   14516   14517   14519
   14517   14518   14517   14520   14521   14523   14521   14522
   14521   14524   14525   14527   14525   14526   14525   14528
   14529   14531   14529   14530   14529   14532   14533   14535
   14533   14534   14533   14536   14537   14539   14537   14538
   14537   14540   14541   14543   14541   14542   14541   14544
   14545   14547   14545   14546   14545   14548   14549   14551
   14549   14550   14549   14552   14553   14555   14553   14554
   14553   14556   14557   14559   14557   14558   14557   14560
   14561   14563   14561   14562   14561   14564   14565   14567
   14565   14566   14565   14568   14569   14571   14569   14570
   14569   14572   14573   14575   14573   14574   14573   14576
   14577   14579   14577   14578   14577   14580   14581   14583
   14581   14582   14581   14584   14585   14587   14585   14586
   14585   14588   14589   14591   14589   14590   14589   14592
   14593   14595   14593   14594   14593   14596   14597   14599
   14597   14598   14597   14600   14601   14603   14601   14602
   14601   14604   14605   14607   14605   14606   14605   14608
   14609   14611   14609   14610   14609   14612   14613   14615
   14613   14614   14613   14616   14617   14619   14617   14618
   14617   14620   14621   14623   14621   14622   14621   14624
   14625   14627   14625   14626   14625   14628   14629   14631
   14629   14630   14629   14632   14633   14635   14633   14634
   14633   14636   14637   14639   14637   14638   14637   14640
   14641   14643   14641   14642   14641   14644   14645   14647
   14645   14646   14645   14648   14649   14651   14649   14650
   14649   14652   14653   14655   14653   14654   14653   14656
   14657   14659   14657   14658   14657   14660   14661   14663
   14661   14662   14661   14664   14665   14667   14665   14666
   14665   14668   14669   14671   14669   14670   14669   14672
   14673   14675   14673   14674   14673   14676   14677   14679
   14677   14678   14677   14680   14681   14683   14681   14682
   14681   14684   14685   14687   14685   14686   14685   14688
   14689   14691   14689   14690   14689   14692   14693   14695
   14693   14694   14693   14696   14697   14699   14697   14698
   14697   14700   14701   14703   14701   14702   14701   14704
   14705   14707   14705   14706   14705   14708   14709   14711
   14709   14710   14709   14712   14713   14715   14713   14714
   14713   14716   14717   14719   14717   14718   14717   14720
   14721   14723   14721   14722   14721   14724   14725   14727
   14725   14726   14725   14728   14729   14731   14729   14730
   14729   14732   14733   14735   14733   14734   14733   14736
   14737   14739   14737   14738   14737   14740   14741   14743
   14741   14742   14741   14744   14745   14747   14745   14746
   14745   14748   14749   14751   14749   14750   14749   14752
   14753   14755   14753   14754   14753   14756   14757   14759
   14757   14758   14757   14760   14761   14763   14761   14762
   14761   14764   14765   14767   14765   14766   14765   14768
   14769   14771   14769   14770   14769   14772   14773   14775
   14773   14774   14773   14776   14777   14779   14777   14778
   14777   14780   14781   14783   14781   14782   14781   14784
   14785   14787   14785   14786   14785   14788   14789   14791
   14789   14790   14789   14792   14793   14795   14793   14794
   14793   14796   14797   14799   14797   14798   14797   14800
   14801   14803   14801   14802   14801   14804   14805   14807
   14805   14806   14805   14808   14809   14811   14809   14810
   14809   14812   14813   14815   14813   14814   14813   14816
   14817   14819   14817   14818   14817   14820   14821   14823
   14821   14822   14821   14824   14825   14827   14825   14826
   14825   14828   14829   14831   14829   14830   14829   14832
   14833   14835   14833   14834   14833   14836   14837   14839
   14837   14838   14837   14840   14841   14843   14841   14842
   14841   14844   14845   14847   14845   14846   14845   14848
   14849   14851   14849   14850   14849   14852   14853   14855
   14853   14854   14853   14856   14857   14859   14857   14858
   14857   14860   14861   14863   14861   14862   14861   14864
   14865   14867   14865   14866   14865   14868   14869   14871
   14869   14870   14869   14872   14873   14875   14873   14874
   14873   14876   14877   14879   14877   14878   14877   14880
   14881   14883   14881   14882   14881   14884   14885   14887
   14885   14886   14885   14888   14889   14891   14889   14890
   14889   14892   14893   14895   14893   14894   14893   14896
   14897   14899   14897   14898   14897   14900   14901   14903
   14901   14902   14901   14904   14905   14907   14905   14906
   14905   14908   14909   14911   14909   14910   14909   14912
   14913   14915   14913   14914   14913   14916   14917   14919
   14917   14918   14917   14920   14921   14923   14921   14922
   14921   14924   14925   14927   14925   14926   14925   14928
   14929   14931   14929   14930   14929   14932   14933   14935
   14933   14934   14933   14936   14937   14939   14937   14938
   14937   14940   14941   14943   14941   14942   14941   14944
   14945   14947   14945   14946   14945   14948   14949   14951
   14949   14950   14949   14952   14953   14955   14953   14954
   14953   14956   14957   14959   14957   14958   14957   14960
   14961   14963   14961   14962   14961   14964   14965   14967
   14965   14966   14965   14968   14969   14971   14969   14970
   14969   14972   14973   14975   14973   14974   14973   14976
   14977   14979   14977   14978   14977   14980   14981   14983
   14981   14982   14981   14984   14985   14987   14985   14986
   14985   14988   14989   14991   14989   14990   14989   14992
   14993   14995   14993   14994   14993   14996   14997   14999
   14997   14998   14997   15000   15001   15003   15001   15002
   15001   15004   15005   15007   15005   15006   15005   15008
   15009   15011   15009   15010   15009   15012   15013   15015
   15013   15014   15013   15016   15017   15019   15017   15018
   15017   15020   15021   15023   15021   15022   15021   15024
   15025   15027   15025   15026   15025   15028   15029   15031
   15029   15030   15029   15032   15033   15035   15033   15034
   15033   15036   15037   15039   15037   15038   15037   15040
   15041   15043   15041   15042   15041   15044   15045   15047
   15045   15046   15045   15048   15049   15051   15049   15050
   15049   15052   15053   15055   15053   15054   15053   15056
   15057   15059   15057   15058   15057   15060   15061   15063
   15061   15062   15061   15064   15065   15067   15065   15066
   15065   15068   15069   15071   15069   15070   15069   15072
   15073   15075   15073   15074   15073   15076   15077   15079
   15077   15078   15077   15080   15081   15083   15081   15082
   15081   15084   15085   15087   15085   15086   15085   15088
   15089   15091   15089   15090   15089   15092   15093   15095
   15093   15094   15093   15096   15097   15099   15097   15098
   15097   15100   15101   15103   15101   15102   15101   15104
   15105   15107   15105   15106   15105   15108   15109   15111
   15109   15110   15109   15112   15113   15115   15113   15114
   15113   15116   15117   15119   15117   15118   15117   15120
   15121   15123   15121   15122   15121   15124   15125   15127
   15125   15126   15125   15128   15129   15131   15129   15130
   15129   15132   15133   15135   15133   15134   15133   15136
   15137   15139   15137   15138   15137   15140   15141   15143
   15141   15142   15141   15144   15145   15147   15145   15146
   15145   15148   15149   15151   15149   15150   15149   15152
   15153   15155   15153   15154   15153   15156   15157   15159
   15157   15158   15157   15160   15161   15163   15161   15162
   15161   15164   15165   15167   15165   15166   15165   15168
   15169   15171   15169   15170   15169   15172   15173   15175
   15173   15174   15173   15176   15177   15179   15177   15178
   15177   15180   15181   15183   15181   15182   15181   15184
   15185   15187   15185   15186   15185   15188   15189   15191
   15189   15190   15189   15192   15193   15195   15193   15194
   15193   15196   15197   15199   15197   15198   15197   15200
   15201   15203   15201   15202   15201   15204   15205   15207
   15205   15206   15205   15208   15209   15211   15209   15210
   15209   15212   15213   15215   15213   15214   15213   15216
   15217   15219   15217   15218   15217   15220   15221   15223
   15221   15222   15221   15224   15225   15227   15225   15226
   15225   15228   15229   15231   15229   15230   15229   15232
   15233   15235   15233   15234   15233   15236   15237   15239
   15237   15238   15237   15240   15241   15243   15241   15242
   15241   15244   15245   15247   15245   15246   15245   15248
   15249   15251   15249   15250   15249   15252   15253   15255
   15253   15254   15253   15256   15257   15259   15257   15258
   15257   15260   15261   15263   15261   15262   15261   15264
   15265   15267   15265   15266   15265   15268   15269   15271
   15269   15270   15269   15272   15273   15275   15273   15274
   15273   15276   15277   15279   15277   15278   15277   15280
   15281   15283   15281   15282   15281   15284   15285   15287
   15285   15286   15285   15288   15289   15291   15289   15290
   15289   15292   15293   15295   15293   15294   15293   15296
   15297   15299   15297   15298   15297   15300   15301   15303
   15301   15302   15301   15304   15305   15307   15305   15306
   15305   15308   15309   15311   15309   15310   15309   15312
   15313   15315   15313   15314   15313   15316   15317   15319
   15317   15318   15317   15320   15321   15323   15321   15322
   15321   15324   15325   15327   15325   15326   15325   15328
   15329   15331   15329   15330   15329   15332   15333   15335
   15333   15334   15333   15336   15337   15339   15337   15338
   15337   15340   15341   15343   15341   15342   15341   15344
   15345   15347   15345   15346   15345   15348   15349   15351
   15349   15350   15349   15352   15353   15355   15353   15354
   15353   15356   15357   15359   15357   15358   15357   15360
   15361   15363   15361   15362   15361   15364   15365   15367
   15365   15366   15365   15368   15369   15371   15369   15370
   15369   15372   15373   15375   15373   15374   15373   15376
   15377   15379   15377   15378   15377   15380   15381   15383
   15381   15382   15381   15384   15385   15387   15385   15386
   15385   15388   15389   15391   15389   15390   15389   15392
   15393   15395   15393   15394   15393   15396   15397   15399
   15397   15398   15397   15400   15401   15403   15401   15402
   15401   15404   15405   15407   15405   15406   15405   15408
   15409   15411   15409   15410   15409   15412   15413   15415
   15413   15414   15413   15416   15417   15419   15417   15418
   15417   15420   15421   15423   15421   15422   15421   15424
   15425   15427   15425   15426   15425   15428   15429   15431
   15429   15430   15429   15432   15433   15435   15433   15434
   15433   15436   15437   15439   15437   15438   15437   15440
   15441   15443   15441   15442   15441   15444   15445   15447
   15445   15446   15445   15448   15449   15451   15449   15450
   15449   15452   15453   15455   15453   15454   15453   15456
   15457   15459   15457   15458   15457   15460   15461   15463
   15461   15462   15461   15464   15465   15467   15465   15466
   15465   15468   15469   15471   15469   15470   15469   15472
   15473   15475   15473   15474   15473   15476   15477   15479
   15477   15478   15477   15480   15481   15483   15481   15482
   15481   15484   15485   15487   15485   15486   15485   15488
   15489   15491   15489   15490   15489   15492   15493   15495
   15493   15494   15493   15496   15497   15499   15497   15498
   15497   15500   15501   15503   15501   15502   15501   15504
   15505   15507   15505   15506   15505   15508   15509   15511
   15509   15510   15509   15512   15513   15515   15513   15514
   15513   15516   15517   15519   15517   15518   15517   15520
   15521   15523   15521   15522   15521   15524   15525   15527
   15525   15526   15525   15528   15529   15531   15529   15530
   15529   15532   15533   15535   15533   15534   15533   15536
   15537   15539   15537   15538   15537   15540   15541   15543
   15541   15542   15541   15544   15545   15547   15545   15546
   15545   15548   15549   15551   15549   15550   15549   15552
   15553   15555   15553   15554   15553   15556   15557   15559
   15557   15558   15557   15560   15561   15563   15561   15562
   15561   15564   15565   15567   15565   15566   15565   15568
   15569   15571   15569   15570   15569   15572   15573   15575
   15573   15574   15573   15576   15577   15579   15577   15578
   15577   15580   15581   15583   15581   15582   15581   15584
   15585   15587   15585   15586   15585   15588   15589   15591
   15589   15590   15589   15592   15593   15595   15593   15594
   15593   15596   15597   15599   15597   15598   15597   15600
   15601   15603   15601   15602   15601   15604   15605   15607
   15605   15606   15605   15608   15609   15611   15609   15610
   15609   15612   15613   15615   15613   15614   15613   15616
   15617   15619   15617   15618   15617   15620   15621   15623
   15621   15622   15621   15624   15625   15627   15625   15626
   15625   15628   15629   15631   15629   15630   15629   15632
   15633   15635   15633   15634   15633   15636   15637   15639
   15637   15638   15637   15640   15641   15643   15641   15642
   15641   15644   15645   15647   15645   15646   15645   15648
   15649   15651   15649   15650   15649   15652   15653   15655
   15653   15654   15653   15656   15657   15659   15657   15658
   15657   15660   15661   15663   15661   15662   15661   15664
   15665   15667   15665   15666   15665   15668   15669   15671
   15669   15670   15669   15672   15673   15675   15673   15674
   15673   15676   15677   15679   15677   15678   15677   15680
   15681   15683   15681   15682   15681   15684   15685   15687
   15685   15686   15685   15688   15689   15691   15689   15690
   15689   15692   15693   15695   15693   15694   15693   15696
   15697   15699   15697   15698   15697   15700   15701   15703
   15701   15702   15701   15704   15705   15707   15705   15706
   15705   15708   15709   15711   15709   15710   15709   15712
   15713   15715   15713   15714   15713   15716   15717   15719
   15717   15718   15717   15720   15721   15723   15721   15722
   15721   15724   15725   15727   15725   15726   15725   15728
   15729   15731   15729   15730   15729   15732   15733   15735
   15733   15734   15733   15736   15737   15739   15737   15738
   15737   15740   15741   15743   15741   15742   15741   15744
   15745   15747   15745   15746   15745   15748   15749   15751
   15749   15750   15749   15752   15753   15755   15753   15754
   15753   15756   15757   15759   15757   15758   15757   15760
   15761   15763   15761   15762   15761   15764   15765   15767
   15765   15766   15765   15768   15769   15771   15769   15770
   15769   15772   15773   15775   15773   15774   15773   15776
   15777   15779   15777   15778   15777   15780   15781   15783
   15781   15782   15781   15784   15785   15787   15785   15786
   15785   15788   15789   15791   15789   15790   15789   15792
   15793   15795   15793   15794   15793   15796   15797   15799
   15797   15798   15797   15800   15801   15803   15801   15802
   15801   15804   15805   15807   15805   15806   15805   15808
   15809   15811   15809   15810   15809   15812   15813   15815
   15813   15814   15813   15816   15817   15819   15817   15818
   15817   15820   15821   15823   15821   15822   15821   15824
   15825   15827   15825   15826   15825   15828   15829   15831
   15829   15830   15829   15832   15833   15835   15833   15834
   15833   15836   15837   15839   15837   15838   15837   15840
   15841   15843   15841   15842   15841   15844   15845   15847
   15845   15846   15845   15848   15849   15851   15849   15850
   15849   15852   15853   15855   15853   15854   15853   15856
   15857   15859   15857   15858   15857   15860   15861   15863
   15861   15862   15861   15864   15865   15867   15865   15866
   15865   15868   15869   15871   15869   15870   15869   15872
   15873   15875   15873   15874   15873   15876   15877   15879
   15877   15878   15877   15880   15881   15883   15881   15882
   15881   15884   15885   15887   15885   15886   15885   15888
   15889   15891   15889   15890   15889   15892   15893   15895
   15893   15894   15893   15896   15897   15899   15897   15898
   15897   15900   15901   15903   15901   15902   15901   15904
   15905   15907   15905   15906   15905   15908   15909   15911
   15909   15910   15909   15912   15913   15915   15913   15914
   15913   15916   15917   15919   15917   15918   15917   15920
   15921   15923   15921   15922   15921   15924   15925   15927
   15925   15926   15925   15928   15929   15931   15929   15930
   15929   15932   15933   15935   15933   15934   15933   15936
   15937   15939   15937   15938   15937   15940   15941   15943
   15941   15942   15941   15944   15945   15947   15945   15946
   15945   15948   15949   15951   15949   15950   15949   15952
   15953   15955   15953   15954   15953   15956   15957   15959
   15957   15958   15957   15960   15961   15963   15961   15962
   15961   15964   15965   15967   15965   15966   15965   15968
   15969   15971   15969   15970   15969   15972   15973   15975
   15973   15974   15973   15976   15977   15979   15977   15978
   15977   15980   15981   15983   15981   15982   15981   15984
   15985   15987   15985   15986   15985   15988   15989   15991
   15989   15990   15989   15992   15993   15995   15993   15994
   15993   15996   15997   15999   15997   15998   15997   16000
   16001   16003   16001   16002   16001   16004   16005   16007
   16005   16006   16005   16008   16009   16011   16009   16010
   16009   16012   16013   16015   16013   16014   16013   16016
   16017   16019   16017   16018   16017   16020   16021   16023
   16021   16022   16021   16024   16025   16027   16025   16026
   16025   16028   16029   16031   16029   16030   16029   16032
   16033   16035   16033   16034   16033   16036   16037   16039
   16037   16038   16037   16040   16041   16043   16041   16042
   16041   16044   16045   16047   16045   16046   16045   16048
   16049   16051   16049   16050   16049   16052   16053   16055
   16053   16054   16053   16056   16057   16059   16057   16058
   16057   16060   16061   16063   16061   16062   16061   16064
   16065   16067   16065   16066   16065   16068   16069   16071
   16069   16070   16069   16072   16073   16075   16073   16074
   16073   16076   16077   16079   16077   16078   16077   16080
   16081   16083   16081   16082   16081   16084   16085   16087
   16085   16086   16085   16088   16089   16091   16089   16090
   16089   16092   16093   16095   16093   16094   16093   16096
   16097   16099   16097   16098   16097   16100   16101   16103
   16101   16102   16101   16104   16105   16107   16105   16106
   16105   16108   16109   16111   16109   16110   16109   16112
   16113   16115   16113   16114   16113   16116   16117   16119
   16117   16118   16117   16120   16121   16123   16121   16122
   16121   16124   16125   16127   16125   16126   16125   16128
   16129   16131   16129   16130   16129   16132   16133   16135
   16133   16134   16133   16136   16137   16139   16137   16138
   16137   16140   16141   16143   16141   16142   16141   16144
   16145   16147   16145   16146   16145   16148   16149   16151
   16149   16150   16149   16152   16153   16155   16153   16154
   16153   16156   16157   16159   16157   16158   16157   16160
   16161   16163   16161   16162   16161   16164   16165   16167
   16165   16166   16165   16168   16169   16171   16169   16170
   16169   16172   16173   16175   16173   16174   16173   16176
   16177   16179   16177   16178   16177   16180   16181   16183
   16181   16182   16181   16184   16185   16187   16185   16186
   16185   16188   16189   16191   16189   16190   16189   16192
   16193   16195   16193   16194   16193   16196   16197   16199
   16197   16198   16197   16200   16201   16203   16201   16202
   16201   16204   16205   16207   16205   16206   16205   16208
   16209   16211   16209   16210   16209   16212   16213   16215
   16213   16214   16213   16216   16217   16219   16217   16218
   16217   16220   16221   16223   16221   16222   16221   16224
   16225   16227   16225   16226   16225   16228   16229   16231
   16229   16230   16229   16232   16233   16235   16233   16234
   16233   16236   16237   16239   16237   16238   16237   16240
   16241   16243   16241   16242   16241   16244   16245   16247
   16245   16246   16245   16248   16249   16251   16249   16250
   16249   16252   16253   16255   16253   16254   16253   16256
   16257   16259   16257   16258   16257   16260   16261   16263
   16261   16262   16261   16264   16265   16267   16265   16266
   16265   16268   16269   16271   16269   16270   16269   16272
   16273   16275   16273   16274   16273   16276   16277   16279
   16277   16278   16277   16280   16281   16283   16281   16282
   16281   16284   16285   16287   16285   16286   16285   16288
   16289   16291   16289   16290   16289   16292   16293   16295
   16293   16294   16293   16296   16297   16299   16297   16298
   16297   16300   16301   16303   16301   16302   16301   16304
   16305   16307   16305   16306   16305   16308   16309   16311
   16309   16310   16309   16312   16313   16315   16313   16314
   16313   16316   16317   16319   16317   16318   16317   16320
   16321   16323   16321   16322   16321   16324   16325   16327
   16325   16326   16325   16328   16329   16331   16329   16330
   16329   16332   16333   16335   16333   16334   16333   16336
   16337   16339   16337   16338   16337   16340   16341   16343
   16341   16342   16341   16344   16345   16347   16345   16346
   16345   16348   16349   16351   16349   16350   16349   16352
   16353   16355   16353   16354   16353   16356   16357   16359
   16357   16358   16357   16360   16361   16363   16361   16362
   16361   16364   16365   16367   16365   16366   16365   16368
   16369   16371   16369   16370   16369   16372   16373   16375
   16373   16374   16373   16376   16377   16379   16377   16378
   16377   16380   16381   16383   16381   16382   16381   16384
   16385   16387   16385   16386   16385   16388   16389   16391
   16389   16390   16389   16392   16393   16395   16393   16394
   16393   16396   16397   16399   16397   16398   16397   16400
   16401   16403   16401   16402   16401   16404   16405   16407
   16405   16406   16405   16408   16409   16411   16409   16410
   16409   16412   16413   16415   16413   16414   16413   16416
   16417   16419   16417   16418   16417   16420   16421   16423
   16421   16422   16421   16424   16425   16427   16425   16426
   16425   16428   16429   16431   16429   16430   16429   16432
   16433   16435   16433   16434   16433   16436   16437   16439
   16437   16438   16437   16440   16441   16443   16441   16442
   16441   16444   16445   16447   16445   16446   16445   16448
   16449   16451   16449   16450   16449   16452   16453   16455
   16453   16454   16453   16456   16457   16459   16457   16458
   16457   16460   16461   16463   16461   16462   16461   16464
   16465   16467   16465   16466   16465   16468   16469   16471
   16469   16470   16469   16472   16473   16475   16473   16474
   16473   16476   16477   16479   16477   16478   16477   16480
   16481   16483   16481   16482   16481   16484   16485   16487
   16485   16486   16485   16488   16489   16491   16489   16490
   16489   16492   16493   16495   16493   16494   16493   16496
   16497   16499   16497   16498   16497   16500   16501   16503
   16501   16502   16501   16504   16505   16507   16505   16506
   16505   16508   16509   16511   16509   16510   16509   16512
   16513   16515   16513   16514   16513   16516   16517   16519
   16517   16518   16517   16520   16521   16523   16521   16522
   16521   16524   16525   16527   16525   16526   16525   16528
   16529   16531   16529   16530   16529   16532   16533   16535
   16533   16534   16533   16536   16537   16539   16537   16538
   16537   16540   16541   16543   16541   16542   16541   16544
   16545   16547   16545   16546   16545   16548   16549   16551
   16549   16550   16549   16552   16553   16555   16553   16554
   16553   16556   16557   16559   16557   16558   16557   16560
   16561   16563   16561   16562   16561   16564   16565   16567
   16565   16566   16565   16568   16569   16571   16569   16570
   16569   16572   16573   16575   16573   16574   16573   16576
   16577   16579   16577   16578   16577   16580   16581   16583
   16581   16582   16581   16584   16585   16587   16585   16586
   16585   16588   16589   16591   16589   16590   16589   16592
   16593   16595   16593   16594   16593   16596   16597   16599
   16597   16598   16597   16600   16601   16603   16601   16602
   16601   16604   16605   16607   16605   16606   16605   16608
   16609   16611   16609   16610   16609   16612   16613   16615
   16613   16614   16613   16616   16617   16619   16617   16618
   16617   16620   16621   16623   16621   16622   16621   16624
   16625   16627   16625   16626   16625   16628   16629   16631
   16629   16630   16629   16632   16633   16635   16633   16634
   16633   16636   16637   16639   16637   16638   16637   16640
   16641   16643   16641   16642   16641   16644   16645   16647
   16645   16646   16645   16648   16649   16651   16649   16650
   16649   16652   16653   16655   16653   16654   16653   16656
   16657   16659   16657   16658   16657   16660   16661   16663
   16661   16662   16661   16664   16665   16667   16665   16666
   16665   16668   16669   16671   16669   16670   16669   16672
   16673   16675   16673   16674   16673   16676   16677   16679
   16677   16678   16677   16680   16681   16683   16681   16682
   16681   16684   16685   16687   16685   16686   16685   16688
   16689   16691   16689   16690   16689   16692   16693   16695
   16693   16694   16693   16696   16697   16699   16697   16698
   16697   16700   16701   16703   16701   16702   16701   16704
   16705   16707   16705   16706   16705   16708   16709   16711
   16709   16710   16709   16712   16713   16715   16713   16714
   16713   16716   16717   16719   16717   16718   16717   16720
   16721   16723   16721   16722   16721   16724   16725   16727
   16725   16726   16725   16728   16729   16731   16729   16730
   16729   16732   16733   16735   16733   16734   16733   16736
   16737   16739   16737   16738   16737   16740   16741   16743
   16741   16742   16741   16744   16745   16747   16745   16746
   16745   16748   16749   16751   16749   16750   16749   16752
   16753   16755   16753   16754   16753   16756   16757   16759
   16757   16758   16757   16760   16761   16763   16761   16762
   16761   16764   16765   16767   16765   16766   16765   16768
   16769   16771   16769   16770   16769   16772   16773   16775
   16773   16774   16773   16776   16777   16779   16777   16778
   16777   16780   16781   16783   16781   16782   16781   16784
   16785   16787   16785   16786   16785   16788   16789   16791
   16789   16790   16789   16792   16793   16795   16793   16794
   16793   16796   16797   16799   16797   16798   16797   16800
   16801   16803   16801   16802   16801   16804   16805   16807
   16805   16806   16805   16808   16809   16811   16809   16810
   16809   16812   16813   16815   16813   16814   16813   16816
   16817   16819   16817   16818   16817   16820   16821   16823
   16821   16822   16821   16824   16825   16827   16825   16826
   16825   16828   16829   16831   16829   16830   16829   16832
   16833   16835   16833   16834   16833   16836   16837   16839
   16837   16838   16837   16840   16841   16843   16841   16842
   16841   16844   16845   16847   16845   16846   16845   16848
   16849   16851   16849   16850   16849   16852   16853   16855
   16853   16854   16853   16856   16857   16859   16857   16858
   16857   16860   16861   16863   16861   16862   16861   16864
   16865   16867   16865   16866   16865   16868   16869   16871
   16869   16870   16869   16872   16873   16875   16873   16874
   16873   16876   16877   16879   16877   16878   16877   16880
   16881   16883   16881   16882   16881   16884   16885   16887
   16885   16886   16885   16888   16889   16891   16889   16890
   16889   16892   16893   16895   16893   16894   16893   16896
   16897   16899   16897   16898   16897   16900   16901   16903
   16901   16902   16901   16904   16905   16907   16905   16906
   16905   16908   16909   16911   16909   16910   16909   16912
   16913   16915   16913   16914   16913   16916   16917   16919
   16917   16918   16917   16920   16921   16923   16921   16922
   16921   16924   16925   16927   16925   16926   16925   16928
   16929   16931   16929   16930   16929   16932   16933   16935
   16933   16934   16933   16936   16937   16939   16937   16938
   16937   16940   16941   16943   16941   16942   16941   16944
   16945   16947   16945   16946   16945   16948   16949   16951
   16949   16950   16949   16952   16953   16955   16953   16954
   16953   16956   16957   16959   16957   16958   16957   16960
   16961   16963   16961   16962   16961   16964   16965   16967
   16965   16966   16965   16968   16969   16971   16969   16970
   16969   16972   16973   16975   16973   16974   16973   16976
   16977   16979   16977   16978   16977   16980   16981   16983
   16981   16982   16981   16984   16985   16987   16985   16986
   16985   16988   16989   16991   16989   16990   16989   16992
   16993   16995   16993   16994   16993   16996   16997   16999
   16997   16998   16997   17000   17001   17003   17001   17002
   17001   17004   17005   17007   17005   17006   17005   17008
   17009   17011   17009   17010   17009   17012   17013   17015
   17013   17014   17013   17016   17017   17019   17017   17018
   17017   17020   17021   17023   17021   17022   17021   17024
   17025   17027   17025   17026   17025   17028   17029   17031
   17029   17030   17029   17032   17033   17035   17033   17034
   17033   17036   17037   17039   17037   17038   17037   17040
   17041   17043   17041   17042   17041   17044   17045   17047
   17045   17046   17045   17048   17049   17051   17049   17050
   17049   17052   17053   17055   17053   17054   17053   17056
   17057   17059   17057   17058   17057   17060   17061   17063
   17061   17062   17061   17064   17065   17067   17065   17066
   17065   17068   17069   17071   17069   17070   17069   17072
   17073   17075   17073   17074   17073   17076   17077   17079
   17077   17078   17077   17080   17081   17083   17081   17082
   17081   17084   17085   17087   17085   17086   17085   17088
   17089   17091   17089   17090   17089   17092   17093   17095
   17093   17094   17093   17096   17097   17099   17097   17098
   17097   17100   17101   17103   17101   17102   17101   17104
   17105   17107   17105   17106   17105   17108   17109   17111
   17109   17110   17109   17112   17113   17115   17113   17114
   17113   17116   17117   17119   17117   17118   17117   17120
   17121   17123   17121   17122   17121   17124   17125   17127
   17125   17126   17125   17128   17129   17131   17129   17130
   17129   17132   17133   17135   17133   17134   17133   17136
   17137   17139   17137   17138   17137   17140   17141   17143
   17141   17142   17141   17144   17145   17147   17145   17146
   17145   17148   17149   17151   17149   17150   17149   17152
   17153   17155   17153   17154   17153   17156   17157   17159
   17157   17158   17157   17160   17161   17163   17161   17162
   17161   17164   17165   17167   17165   17166   17165   17168
   17169   17171   17169   17170   17169   17172   17173   17175
   17173   17174   17173   17176   17177   17179   17177   17178
   17177   17180   17181   17183   17181   17182   17181   17184
   17185   17187   17185   17186   17185   17188   17189   17191
   17189   17190   17189   17192   17193   17195   17193   17194
   17193   17196   17197   17199   17197   17198   17197   17200
   17201   17203   17201   17202   17201   17204   17205   17207
   17205   17206   17205   17208   17209   17211   17209   17210
   17209   17212   17213   17215   17213   17214   17213   17216
   17217   17219   17217   17218   17217   17220   17221   17223
   17221   17222   17221   17224   17225   17227   17225   17226
   17225   17228   17229   17231   17229   17230   17229   17232
   17233   17235   17233   17234   17233   17236   17237   17239
   17237   17238   17237   17240   17241   17243   17241   17242
   17241   17244   17245   17247   17245   17246   17245   17248
   17249   17251   17249   17250   17249   17252   17253   17255
   17253   17254   17253   17256   17257   17259   17257   17258
   17257   17260   17261   17263   17261   17262   17261   17264
   17265   17267   17265   17266   17265   17268   17269   17271
   17269   17270   17269   17272   17273   17275   17273   17274
   17273   17276   17277   17279   17277   17278   17277   17280
   17281   17283   17281   17282   17281   17284   17285   17287
   17285   17286   17285   17288   17289   17291   17289   17290
   17289   17292   17293   17295   17293   17294   17293   17296
   17297   17299   17297   17298   17297   17300   17301   17303
   17301   17302   17301   17304   17305   17307   17305   17306
   17305   17308   17309   17311   17309   17310   17309   17312
   17313   17315   17313   17314   17313   17316   17317   17319
   17317   17318   17317   17320   17321   17323   17321   17322
   17321   17324   17325   17327   17325   17326   17325   17328
   17329   17331   17329   17330   17329   17332   17333   17335
   17333   17334   17333   17336   17337   17339   17337   17338
   17337   17340   17341   17343   17341   17342   17341   17344
   17345   17347   17345   17346   17345   17348   17349   17351
   17349   17350   17349   17352   17353   17355   17353   17354
   17353   17356   17357   17359   17357   17358   17357   17360
   17361   17363   17361   17362   17361   17364   17365   17367
   17365   17366   17365   17368   17369   17371   17369   17370
   17369   17372   17373   17375   17373   17374   17373   17376
   17377   17379   17377   17378   17377   17380   17381   17383
   17381   17382   17381   17384   17385   17387   17385   17386
   17385   17388   17389   17391   17389   17390   17389   17392
   17393   17395   17393   17394   17393   17396   17397   17399
   17397   17398   17397   17400   17401   17403   17401   17402
   17401   17404   17405   17407   17405   17406   17405   17408
   17409   17411   17409   17410   17409   17412   17413   17415
   17413   17414   17413   17416   17417   17419   17417   17418
   17417   17420   17421   17423   17421   17422   17421   17424
   17425   17427   17425   17426   17425   17428   17429   17431
   17429   17430   17429   17432   17433   17435   17433   17434
   17433   17436   17437   17439   17437   17438   17437   17440
   17441   17443   17441   17442   17441   17444   17445   17447
   17445   17446   17445   17448   17449   17451   17449   17450
   17449   17452   17453   17455   17453   17454   17453   17456
   17457   17459   17457   17458   17457   17460   17461   17463
   17461   17462   17461   17464   17465   17467   17465   17466
   17465   17468   17469   17471   17469   17470   17469   17472
   17473   17475   17473   17474   17473   17476   17477   17479
   17477   17478   17477   17480   17481   17483   17481   17482
   17481   17484   17485   17487   17485   17486   17485   17488
   17489   17491   17489   17490   17489   17492   17493   17495
   17493   17494   17493   17496   17497   17499   17497   17498
   17497   17500   17501   17503   17501   17502   17501   17504
   17505   17507   17505   17506   17505   17508   17509   17511
   17509   17510   17509   17512   17513   17515   17513   17514
   17513   17516   17517   17519   17517   17518   17517   17520
   17521   17523   17521   17522   17521   17524   17525   17527
   17525   17526   17525   17528   17529   17531   17529   17530
   17529   17532   17533   17535   17533   17534   17533   17536
   17537   17539   17537   17538   17537   17540   17541   17543
   17541   17542   17541   17544   17545   17547   17545   17546
   17545   17548   17549   17551   17549   17550   17549   17552
   17553   17555   17553   17554   17553   17556   17557   17559
   17557   17558   17557   17560   17561   17563   17561   17562
   17561   17564   17565   17567   17565   17566   17565   17568
   17569   17571   17569   17570   17569   17572   17573   17575
   17573   17574   17573   17576   17577   17579   17577   17578
   17577   17580   17581   17583   17581   17582   17581   17584
   17585   17587   17585   17586   17585   17588   17589   17591
   17589   17590   17589   17592   17593   17595   17593   17594
   17593   17596   17597   17599   17597   17598   17597   17600
   17601   17603   17601   17602   17601   17604   17605   17607
   17605   17606   17605   17608   17609   17611   17609   17610
   17609   17612   17613   17615   17613   17614   17613   17616
   17617   17619   17617   17618   17617   17620   17621   17623
   17621   17622   17621   17624   17625   17627   17625   17626
   17625   17628   17629   17631   17629   17630   17629   17632
   17633   17635   17633   17634   17633   17636   17637   17639
   17637   17638   17637   17640   17641   17643   17641   17642
   17641   17644   17645   17647   17645   17646   17645   17648
   17649   17651   17649   17650   17649   17652   17653   17655
   17653   17654   17653   17656   17657   17659   17657   17658
   17657   17660   17661   17663   17661   17662   17661   17664
   17665   17667   17665   17666   17665   17668   17669   17671
   17669   17670   17669   17672   17673   17675   17673   17674
   17673   17676   17677   17679   17677   17678   17677   17680
   17681   17683   17681   17682   17681   17684   17685   17687
   17685   17686   17685   17688   17689   17691   17689   17690
   17689   17692   17693   17695   17693   17694   17693   17696
   17697   17699   17697   17698   17697   17700   17701   17703
   17701   17702   17701   17704   17705   17707   17705   17706
   17705   17708   17709   17711   17709   17710   17709   17712
   17713   17715   17713   17714   17713   17716   17717   17719
   17717   17718   17717   17720   17721   17723   17721   17722
   17721   17724   17725   17727   17725   17726   17725   17728
   17729   17731   17729   17730   17729   17732   17733   17735
   17733   17734   17733   17736   17737   17739   17737   17738
   17737   17740   17741   17743   17741   17742   17741   17744
   17745   17747   17745   17746   17745   17748   17749   17751
   17749   17750   17749   17752   17753   17755   17753   17754
   17753   17756   17757   17759   17757   17758   17757   17760
   17761   17763   17761   17762   17761   17764   17765   17767
   17765   17766   17765   17768   17769   17771   17769   17770
   17769   17772   17773   17775   17773   17774   17773   17776
   17777   17779   17777   17778   17777   17780   17781   17783
   17781   17782   17781   17784   17785   17787   17785   17786
   17785   17788   17789   17791   17789   17790   17789   17792
   17793   17795   17793   17794   17793   17796   17797   17799
   17797   17798   17797   17800   17801   17803   17801   17802
   17801   17804   17805   17807   17805   17806   17805   17808
   17809   17811   17809   17810   17809   17812   17813   17815
   17813   17814   17813   17816   17817   17819   17817   17818
   17817   17820   17821   17823   17821   17822   17821   17824
   17825   17827   17825   17826   17825   17828   17829   17831
   17829   17830   17829   17832   17833   17835   17833   17834
   17833   17836   17837   17839   17837   17838   17837   17840
   17841   17843   17841   17842   17841   17844   17845   17847
   17845   17846   17845   17848   17849   17851   17849   17850
   17849   17852   17853   17855   17853   17854   17853   17856
   17857   17859   17857   17858   17857   17860   17861   17863
   17861   17862   17861   17864   17865   17867   17865   17866
   17865   17868   17869   17871   17869   17870   17869   17872
   17873   17875   17873   17874   17873   17876   17877   17879
   17877   17878   17877   17880   17881   17883   17881   17882
   17881   17884   17885   17887   17885   17886   17885   17888
   17889   17891   17889   17890   17889   17892   17893   17895
   17893   17894   17893   17896   17897   17899   17897   17898
   17897   17900   17901   17903   17901   17902   17901   17904
   17905   17907   17905   17906   17905   17908   17909   17911
   17909   17910   17909   17912   17913   17915   17913   17914
   17913   17916   17917   17919   17917   17918   17917   17920
   17921   17923   17921   17922   17921   17924   17925   17927
   17925   17926   17925   17928   17929   17931   17929   17930
   17929   17932   17933   17935   17933   17934   17933   17936
   17937   17939   17937   17938   17937   17940   17941   17943
   17941   17942   17941   17944   17945   17947   17945   17946
   17945   17948   17949   17951   17949   17950   17949   17952
   17953   17955   17953   17954   17953   17956   17957   17959
   17957   17958   17957   17960   17961   17963   17961   17962
   17961   17964   17965   17967   17965   17966   17965   17968
   17969   17971   17969   17970   17969   17972   17973   17975
   17973   17974   17973   17976   17977   17979   17977   17978
   17977   17980   17981   17983   17981   17982   17981   17984
   17985   17987   17985   17986   17985   17988   17989   17991
   17989   17990   17989   17992   17993   17995   17993   17994
   17993   17996   17997   17999   17997   17998   17997   18000
   18001   18003   18001   18002   18001   18004   18005   18007
   18005   18006   18005   18008   18009   18011   18009   18010
   18009   18012   18013   18015   18013   18014   18013   18016
   18017   18019   18017   18018   18017   18020   18021   18023
   18021   18022   18021   18024   18025   18027   18025   18026
   18025   18028   18029   18031   18029   18030   18029   18032
   18033   18035   18033   18034   18033   18036   18037   18039
   18037   18038   18037   18040   18041   18043   18041   18042
   18041   18044   18045   18047   18045   18046   18045   18048
   18049   18051   18049   18050   18049   18052   18053   18055
   18053   18054   18053   18056   18057   18059   18057   18058
   18057   18060   18061   18063   18061   18062   18061   18064
   18065   18067   18065   18066   18065   18068   18069   18071
   18069   18070   18069   18072   18073   18075   18073   18074
   18073   18076   18077   18079   18077   18078   18077   18080
   18081   18083   18081   18082   18081   18084   18085   18087
   18085   18086   18085   18088   18089   18091   18089   18090
   18089   18092   18093   18095   18093   18094   18093   18096
   18097   18099   18097   18098   18097   18100   18101   18103
   18101   18102   18101   18104   18105   18107   18105   18106
   18105   18108   18109   18111   18109   18110   18109   18112
   18113   18115   18113   18114   18113   18116   18117   18119
   18117   18118   18117   18120   18121   18123   18121   18122
   18121   18124   18125   18127   18125   18126   18125   18128
   18129   18131   18129   18130   18129   18132   18133   18135
   18133   18134   18133   18136   18137   18139   18137   18138
   18137   18140   18141   18143   18141   18142   18141   18144
   18145   18147   18145   18146   18145   18148   18149   18151
   18149   18150   18149   18152   18153   18155   18153   18154
   18153   18156   18157   18159   18157   18158   18157   18160
   18161   18163   18161   18162   18161   18164   18165   18167
   18165   18166   18165   18168   18169   18171   18169   18170
   18169   18172   18173   18175   18173   18174   18173   18176
   18177   18179   18177   18178   18177   18180   18181   18183
   18181   18182   18181   18184   18185   18187   18185   18186
   18185   18188   18189   18191   18189   18190   18189   18192
   18193   18195   18193   18194   18193   18196   18197   18199
   18197   18198   18197   18200   18201   18203   18201   18202
   18201   18204   18205   18207   18205   18206   18205   18208
   18209   18211   18209   18210   18209   18212   18213   18215
   18213   18214   18213   18216   18217   18219   18217   18218
   18217   18220   18221   18223   18221   18222   18221   18224
   18225   18227   18225   18226   18225   18228   18229   18231
   18229   18230   18229   18232   18233   18235   18233   18234
   18233   18236   18237   18239   18237   18238   18237   18240
   18241   18243   18241   18242   18241   18244   18245   18247
   18245   18246   18245   18248   18249   18251   18249   18250
   18249   18252   18253   18255   18253   18254   18253   18256
   18257   18259   18257   18258   18257   18260   18261   18263
   18261   18262   18261   18264   18265   18267   18265   18266
   18265   18268   18269   18271   18269   18270   18269   18272
   18273   18275   18273   18274   18273   18276   18277   18279
   18277   18278   18277   18280   18281   18283   18281   18282
   18281   18284   18285   18287   18285   18286   18285   18288
   18289   18291   18289   18290   18289   18292   18293   18295
   18293   18294   18293   18296   18297   18299   18297   18298
   18297   18300   18301   18303   18301   18302   18301   18304
   18305   18307   18305   18306   18305   18308   18309   18311
   18309   18310   18309   18312   18313   18315   18313   18314
   18313   18316   18317   18319   18317   18318   18317   18320
   18321   18323   18321   18322   18321   18324   18325   18327
   18325   18326   18325   18328   18329   18331   18329   18330
   18329   18332   18333   18335   18333   18334   18333   18336
   18337   18339   18337   18338   18337   18340   18341   18343
   18341   18342   18341   18344   18345   18347   18345   18346
   18345   18348   18349   18351   18349   18350   18349   18352
   18353   18355   18353   18354   18353   18356   18357   18359
   18357   18358   18357   18360   18361   18363   18361   18362
   18361   18364   18365   18367   18365   18366   18365   18368
   18369   18371   18369   18370   18369   18372   18373   18375
   18373   18374   18373   18376   18377   18379   18377   18378
   18377   18380   18381   18383   18381   18382   18381   18384
   18385   18387   18385   18386   18385   18388   18389   18391
   18389   18390   18389   18392   18393   18395   18393   18394
   18393   18396   18397   18399   18397   18398   18397   18400
   18401   18403   18401   18402   18401   18404   18405   18407
   18405   18406   18405   18408   18409   18411   18409   18410
   18409   18412   18413   18415   18413   18414   18413   18416
   18417   18419   18417   18418   18417   18420   18421   18423
   18421   18422   18421   18424   18425   18427   18425   18426
   18425   18428   18429   18431   18429   18430   18429   18432
   18433   18435   18433   18434   18433   18436   18437   18439
   18437   18438   18437   18440   18441   18443   18441   18442
   18441   18444   18445   18447   18445   18446   18445   18448
   18449   18451   18449   18450   18449   18452   18453   18455
   18453   18454   18453   18456   18457   18459   18457   18458
   18457   18460   18461   18463   18461   18462   18461   18464
   18465   18467   18465   18466   18465   18468   18469   18471
   18469   18470   18469   18472   18473   18475   18473   18474
   18473   18476   18477   18479   18477   18478   18477   18480
   18481   18483   18481   18482   18481   18484   18485   18487
   18485   18486   18485   18488   18489   18491   18489   18490
   18489   18492   18493   18495   18493   18494   18493   18496
   18497   18499   18497   18498   18497   18500   18501   18503
   18501   18502   18501   18504   18505   18507   18505   18506
   18505   18508   18509   18511   18509   18510   18509   18512
   18513   18515   18513   18514   18513   18516   18517   18519
   18517   18518   18517   18520   18521   18523   18521   18522
   18521   18524   18525   18527   18525   18526   18525   18528
   18529   18531   18529   18530   18529   18532   18533   18535
   18533   18534   18533   18536   18537   18539   18537   18538
   18537   18540   18541   18543   18541   18542   18541   18544
   18545   18547   18545   18546   18545   18548   18549   18551
   18549   18550   18549   18552   18553   18555   18553   18554
   18553   18556   18557   18559   18557   18558   18557   18560
   18561   18563   18561   18562   18561   18564   18565   18567
   18565   18566   18565   18568   18569   18571   18569   18570
   18569   18572   18573   18575   18573   18574   18573   18576
   18577   18579   18577   18578   18577   18580   18581   18583
   18581   18582   18581   18584   18585   18587   18585   18586
   18585   18588   18589   18591   18589   18590   18589   18592
   18593   18595   18593   18594   18593   18596   18597   18599
   18597   18598   18597   18600   18601   18603   18601   18602
   18601   18604   18605   18607   18605   18606   18605   18608
   18609   18611   18609   18610   18609   18612   18613   18615
   18613   18614   18613   18616   18617   18619   18617   18618
   18617   18620   18621   18623   18621   18622   18621   18624
   18625   18627   18625   18626   18625   18628   18629   18631
   18629   18630   18629   18632   18633   18635   18633   18634
   18633   18636   18637   18639   18637   18638   18637   18640
   18641   18643   18641   18642   18641   18644   18645   18647
   18645   18646   18645   18648   18649   18651   18649   18650
   18649   18652   18653   18655   18653   18654   18653   18656
   18657   18659   18657   18658   18657   18660   18661   18663
   18661   18662   18661   18664   18665   18667   18665   18666
   18665   18668   18669   18671   18669   18670   18669   18672
   18673   18675   18673   18674   18673   18676   18677   18679
   18677   18678   18677   18680   18681   18683   18681   18682
   18681   18684   18685   18687   18685   18686   18685   18688
   18689   18691   18689   18690   18689   18692   18693   18695
   18693   18694   18693   18696   18697   18699   18697   18698
   18697   18700   18701   18703   18701   18702   18701   18704
   18705   18707   18705   18706   18705   18708   18709   18711
   18709   18710   18709   18712   18713   18715   18713   18714
   18713   18716   18717   18719   18717   18718   18717   18720
   18721   18723   18721   18722   18721   18724   18725   18727
   18725   18726   18725   18728   18729   18731   18729   18730
   18729   18732   18733   18735   18733   18734   18733   18736
   18737   18739   18737   18738   18737   18740   18741   18743
   18741   18742   18741   18744   18745   18747   18745   18746
   18745   18748   18749   18751   18749   18750   18749   18752
   18753   18755   18753   18754   18753   18756   18757   18759
   18757   18758   18757   18760   18761   18763   18761   18762
   18761   18764   18765   18767   18765   18766   18765   18768
   18769   18771   18769   18770   18769   18772   18773   18775
   18773   18774   18773   18776   18777   18779   18777   18778
   18777   18780   18781   18783   18781   18782   18781   18784
   18785   18787   18785   18786   18785   18788   18789   18791
   18789   18790   18789   18792   18793   18795   18793   18794
   18793   18796   18797   18799   18797   18798   18797   18800
   18801   18803   18801   18802   18801   18804   18805   18807
   18805   18806   18805   18808   18809   18811   18809   18810
   18809   18812   18813   18815   18813   18814   18813   18816
   18817   18819   18817   18818   18817   18820   18821   18823
   18821   18822   18821   18824   18825   18827   18825   18826
   18825   18828   18829   18831   18829   18830   18829   18832
   18833   18835   18833   18834   18833   18836   18837   18839
   18837   18838   18837   18840   18841   18843   18841   18842
   18841   18844   18845   18847   18845   18846   18845   18848
   18849   18851   18849   18850   18849   18852   18853   18855
   18853   18854   18853   18856   18857   18859   18857   18858
   18857   18860   18861   18863   18861   18862   18861   18864
   18865   18867   18865   18866   18865   18868   18869   18871
   18869   18870   18869   18872   18873   18875   18873   18874
   18873   18876   18877   18879   18877   18878   18877   18880
   18881   18883   18881   18882   18881   18884   18885   18887
   18885   18886   18885   18888   18889   18891   18889   18890
   18889   18892   18893   18895   18893   18894   18893   18896
   18897   18899   18897   18898   18897   18900   18901   18903
   18901   18902   18901   18904   18905   18907   18905   18906
   18905   18908   18909   18911   18909   18910   18909   18912
   18913   18915   18913   18914   18913   18916   18917   18919
   18917   18918   18917   18920   18921   18923   18921   18922
   18921   18924   18925   18927   18925   18926   18925   18928
   18929   18931   18929   18930   18929   18932   18933   18935
   18933   18934   18933   18936   18937   18939   18937   18938
   18937   18940   18941   18943   18941   18942   18941   18944
   18945   18947   18945   18946   18945   18948   18949   18951
   18949   18950   18949   18952   18953   18955   18953   18954
   18953   18956   18957   18959   18957   18958   18957   18960
   18961   18963   18961   18962   18961   18964   18965   18967
   18965   18966   18965   18968   18969   18971   18969   18970
   18969   18972   18973   18975   18973   18974   18973   18976
   18977   18979   18977   18978   18977   18980   18981   18983
   18981   18982   18981   18984   18985   18987   18985   18986
   18985   18988   18989   18991   18989   18990   18989   18992
   18993   18995   18993   18994   18993   18996   18997   18999
   18997   18998   18997   19000   19001   19003   19001   19002
   19001   19004   19005   19007   19005   19006   19005   19008
   19009   19011   19009   19010   19009   19012   19013   19015
   19013   19014   19013   19016   19017   19019   19017   19018
   19017   19020   19021   19023   19021   19022   19021   19024
   19025   19027   19025   19026   19025   19028   19029   19031
   19029   19030   19029   19032   19033   19035   19033   19034
   19033   19036   19037   19039   19037   19038   19037   19040
   19041   19043   19041   19042   19041   19044   19045   19047
   19045   19046   19045   19048   19049   19051   19049   19050
   19049   19052   19053   19055   19053   19054   19053   19056
   19057   19059   19057   19058   19057   19060   19061   19063
   19061   19062   19061   19064   19065   19067   19065   19066
   19065   19068   19069   19071   19069   19070   19069   19072
   19073   19075   19073   19074   19073   19076   19077   19079
   19077   19078   19077   19080   19081   19083   19081   19082
   19081   19084   19085   19087   19085   19086   19085   19088
   19089   19091   19089   19090   19089   19092   19093   19095
   19093   19094   19093   19096   19097   19099   19097   19098
   19097   19100   19101   19103   19101   19102   19101   19104
   19105   19107   19105   19106   19105   19108   19109   19111
   19109   19110   19109   19112   19113   19115   19113   19114
   19113   19116   19117   19119   19117   19118   19117   19120
   19121   19123   19121   19122   19121   19124   19125   19127
   19125   19126   19125   19128   19129   19131   19129   19130
   19129   19132   19133   19135   19133   19134   19133   19136
   19137   19139   19137   19138   19137   19140   19141   19143
   19141   19142   19141   19144   19145   19147   19145   19146
   19145   19148   19149   19151   19149   19150   19149   19152
   19153   19155   19153   19154   19153   19156   19157   19159
   19157   19158   19157   19160   19161   19163   19161   19162
   19161   19164   19165   19167   19165   19166   19165   19168
   19169   19171   19169   19170   19169   19172   19173   19175
   19173   19174   19173   19176   19177   19179   19177   19178
   19177   19180   19181   19183   19181   19182   19181   19184
   19185   19187   19185   19186   19185   19188   19189   19191
   19189   19190   19189   19192   19193   19195   19193   19194
   19193   19196   19197   19199   19197   19198   19197   19200
   19201   19203   19201   19202   19201   19204   19205   19207
   19205   19206   19205   19208   19209   19211   19209   19210
   19209   19212   19213   19215   19213   19214   19213   19216
   19217   19219   19217   19218   19217   19220   19221   19223
   19221   19222   19221   19224   19225   19227   19225   19226
   19225   19228   19229   19231   19229   19230   19229   19232
   19233   19235   19233   19234   19233   19236   19237   19239
   19237   19238   19237   19240   19241   19243   19241   19242
   19241   19244   19245   19247   19245   19246   19245   19248
   19249   19251   19249   19250   19249   19252   19253   19255
   19253   19254   19253   19256   19257   19259   19257   19258
   19257   19260   19261   19263   19261   19262   19261   19264
   19265   19267   19265   19266   19265   19268   19269   19271
   19269   19270   19269   19272   19273   19275   19273   19274
   19273   19276   19277   19279   19277   19278   19277   19280
   19281   19283   19281   19282   19281   19284   19285   19287
   19285   19286   19285   19288   19289   19291   19289   19290
   19289   19292   19293   19295   19293   19294   19293   19296
   19297   19299   19297   19298   19297   19300   19301   19303
   19301   19302   19301   19304   19305   19307   19305   19306
   19305   19308   19309   19311   19309   19310   19309   19312
   19313   19315   19313   19314   19313   19316   19317   19319
   19317   19318   19317   19320   19321   19323   19321   19322
   19321   19324   19325   19327   19325   19326   19325   19328
   19329   19331   19329   19330   19329   19332   19333   19335
   19333   19334   19333   19336   19337   19339   19337   19338
   19337   19340   19341   19343   19341   19342   19341   19344
   19345   19347   19345   19346   19345   19348   19349   19351
   19349   19350   19349   19352   19353   19355   19353   19354
   19353   19356   19357   19359   19357   19358   19357   19360
   19361   19363   19361   19362   19361   19364   19365   19367
   19365   19366   19365   19368   19369   19371   19369   19370
   19369   19372   19373   19375   19373   19374   19373   19376
   19377   19379   19377   19378   19377   19380   19381   19383
   19381   19382   19381   19384   19385   19387   19385   19386
   19385   19388   19389   19391   19389   19390   19389   19392
   19393   19395   19393   19394   19393   19396   19397   19399
   19397   19398   19397   19400   19401   19403   19401   19402
   19401   19404   19405   19407   19405   19406   19405   19408
   19409   19411   19409   19410   19409   19412   19413   19415
   19413   19414   19413   19416   19417   19419   19417   19418
   19417   19420   19421   19423   19421   19422   19421   19424
   19425   19427   19425   19426   19425   19428   19429   19431
   19429   19430   19429   19432   19433   19435   19433   19434
   19433   19436   19437   19439   19437   19438   19437   19440
   19441   19443   19441   19442   19441   19444   19445   19447
   19445   19446   19445   19448   19449   19451   19449   19450
   19449   19452   19453   19455   19453   19454   19453   19456
   19457   19459   19457   19458   19457   19460   19461   19463
   19461   19462   19461   19464   19465   19467   19465   19466
   19465   19468   19469   19471   19469   19470   19469   19472
   19473   19475   19473   19474   19473   19476   19477   19479
   19477   19478   19477   19480   19481   19483   19481   19482
   19481   19484   19485   19487   19485   19486   19485   19488
   19489   19491   19489   19490   19489   19492   19493   19495
   19493   19494   19493   19496   19497   19499   19497   19498
   19497   19500   19501   19503   19501   19502   19501   19504
   19505   19507   19505   19506   19505   19508   19509   19511
   19509   19510   19509   19512   19513   19515   19513   19514
   19513   19516   19517   19519   19517   19518   19517   19520
   19521   19523   19521   19522   19521   19524   19525   19527
   19525   19526   19525   19528   19529   19531   19529   19530
   19529   19532   19533   19535   19533   19534   19533   19536
   19537   19539   19537   19538   19537   19540   19541   19543
   19541   19542   19541   19544   19545   19547   19545   19546
   19545   19548   19549   19551   19549   19550   19549   19552
   19553   19555   19553   19554   19553   19556   19557   19559
   19557   19558   19557   19560   19561   19563   19561   19562
   19561   19564   19565   19567   19565   19566   19565   19568
   19569   19571   19569   19570   19569   19572   19573   19575
   19573   19574   19573   19576   19577   19579   19577   19578
   19577   19580   19581   19583   19581   19582   19581   19584
   19585   19587   19585   19586   19585   19588   19589   19591
   19589   19590   19589   19592   19593   19595   19593   19594
   19593   19596   19597   19599   19597   19598   19597   19600
   19601   19603   19601   19602   19601   19604   19605   19607
   19605   19606   19605   19608   19609   19611   19609   19610
   19609   19612   19613   19615   19613   19614   19613   19616
   19617   19619   19617   19618   19617   19620   19621   19623
   19621   19622   19621   19624   19625   19627   19625   19626
   19625   19628   19629   19631   19629   19630   19629   19632
   19633   19635   19633   19634   19633   19636   19637   19639
   19637   19638   19637   19640   19641   19643   19641   19642
   19641   19644   19645   19647   19645   19646   19645   19648
   19649   19651   19649   19650   19649   19652   19653   19655
   19653   19654   19653   19656   19657   19659   19657   19658
   19657   19660   19661   19663   19661   19662   19661   19664
   19665   19667   19665   19666   19665   19668   19669   19671
   19669   19670   19669   19672   19673   19675   19673   19674
   19673   19676   19677   19679   19677   19678   19677   19680
   19681   19683   19681   19682   19681   19684   19685   19687
   19685   19686   19685   19688   19689   19691   19689   19690
   19689   19692   19693   19695   19693   19694   19693   19696
   19697   19699   19697   19698   19697   19700   19701   19703
   19701   19702   19701   19704   19705   19707   19705   19706
   19705   19708   19709   19711   19709   19710   19709   19712
   19713   19715   19713   19714   19713   19716   19717   19719
   19717   19718   19717   19720   19721   19723   19721   19722
   19721   19724   19725   19727   19725   19726   19725   19728
   19729   19731   19729   19730   19729   19732   19733   19735
   19733   19734   19733   19736   19737   19739   19737   19738
   19737   19740   19741   19743   19741   19742   19741   19744
   19745   19747   19745   19746   19745   19748   19749   19751
   19749   19750   19749   19752   19753   19755   19753   19754
   19753   19756   19757   19759   19757   19758   19757   19760
   19761   19763   19761   19762   19761   19764   19765   19767
   19765   19766   19765   19768   19769   19771   19769   19770
   19769   19772   19773   19775   19773   19774   19773   19776
   19777   19779   19777   19778   19777   19780   19781   19783
   19781   19782   19781   19784   19785   19787   19785   19786
   19785   19788   19789   19791   19789   19790   19789   19792
   19793   19795   19793   19794   19793   19796   19797   19799
   19797   19798   19797   19800   19801   19803   19801   19802
   19801   19804   19805   19807   19805   19806   19805   19808
   19809   19811   19809   19810   19809   19812   19813   19815
   19813   19814   19813   19816   19817   19819   19817   19818
   19817   19820   19821   19823   19821   19822   19821   19824
   19825   19827   19825   19826   19825   19828   19829   19831
   19829   19830   19829   19832   19833   19835   19833   19834
   19833   19836   19837   19839   19837   19838   19837   19840
   19841   19843   19841   19842   19841   19844   19845   19847
   19845   19846   19845   19848   19849   19851   19849   19850
   19849   19852   19853   19855   19853   19854   19853   19856
   19857   19859   19857   19858   19857   19860   19861   19863
   19861   19862   19861   19864   19865   19867   19865   19866
   19865   19868   19869   19871   19869   19870   19869   19872
   19873   19875   19873   19874   19873   19876   19877   19879
   19877   19878   19877   19880   19881   19883   19881   19882
   19881   19884   19885   19887   19885   19886   19885   19888
   19889   19891   19889   19890   19889   19892   19893   19895
   19893   19894   19893   19896   19897   19899   19897   19898
   19897   19900   19901   19903   19901   19902   19901   19904
   19905   19907   19905   19906   19905   19908   19909   19911
   19909   19910   19909   19912   19913   19915   19913   19914
   19913   19916   19917   19919   19917   19918   19917   19920
   19921   19923   19921   19922   19921   19924   19925   19927
   19925   19926   19925   19928   19929   19931   19929   19930
   19929   19932   19933   19935   19933   19934   19933   19936
   19937   19939   19937   19938   19937   19940   19941   19943
   19941   19942   19941   19944   19945   19947   19945   19946
   19945   19948   19949   19951   19949   19950   19949   19952
   19953   19955   19953   19954   19953   19956   19957   19959
   19957   19958   19957   19960   19961   19963   19961   19962
   19961   19964   19965   19967   19965   19966   19965   19968
   19969   19971   19969   19970   19969   19972   19973   19975
   19973   19974   19973   19976   19977   19979   19977   19978
   19977   19980   19981   19983   19981   19982   19981   19984
   19985   19987   19985   19986   19985   19988   19989   19991
   19989   19990   19989   19992   19993   19995   19993   19994
   19993   19996   19997   19999   19997   19998   19997   20000
   20001   20003   20001   20002   20001   20004   20005   20007
   20005   20006   20005   20008   20009   20011   20009   20010
   20009   20012   20013   20015   20013   20014   20013   20016
   20017   20019   20017   20018   20017   20020   20021   20023
   20021   20022   20021   20024   20025   20027   20025   20026
   20025   20028   20029   20031   20029   20030   20029   20032
   20033   20035   20033   20034   20033   20036   20037   20039
   20037   20038   20037   20040   20041   20043   20041   20042
   20041   20044   20045   20047   20045   20046   20045   20048
   20049   20051   20049   20050   20049   20052   20053   20055
   20053   20054   20053   20056   20057   20059   20057   20058
   20057   20060   20061   20063   20061   20062   20061   20064
   20065   20067   20065   20066   20065   20068   20069   20071
   20069   20070   20069   20072   20073   20075   20073   20074
   20073   20076   20077   20079   20077   20078   20077   20080
   20081   20083   20081   20082   20081   20084   20085   20087
   20085   20086   20085   20088   20089   20091   20089   20090
   20089   20092   20093   20095   20093   20094   20093   20096
   20097   20099   20097   20098   20097   20100   20101   20103
   20101   20102   20101   20104   20105   20107   20105   20106
   20105   20108   20109   20111   20109   20110   20109   20112
   20113   20115   20113   20114   20113   20116   20117   20119
   20117   20118   20117   20120   20121   20123   20121   20122
   20121   20124   20125   20127   20125   20126   20125   20128
   20129   20131   20129   20130   20129   20132   20133   20135
   20133   20134   20133   20136   20137   20139   20137   20138
   20137   20140   20141   20143   20141   20142   20141   20144
   20145   20147   20145   20146   20145   20148   20149   20151
   20149   20150   20149   20152   20153   20155   20153   20154
   20153   20156   20157   20159   20157   20158   20157   20160
   20161   20163   20161   20162   20161   20164   20165   20167
   20165   20166   20165   20168   20169   20171   20169   20170
   20169   20172   20173   20175   20173   20174   20173   20176
   20177   20179   20177   20178   20177   20180   20181   20183
   20181   20182   20181   20184   20185   20187   20185   20186
   20185   20188   20189   20191   20189   20190   20189   20192
   20193   20195   20193   20194   20193   20196   20197   20199
   20197   20198   20197   20200   20201   20203   20201   20202
   20201   20204   20205   20207   20205   20206   20205   20208
   20209   20211   20209   20210   20209   20212   20213   20215
   20213   20214   20213   20216   20217   20219   20217   20218
   20217   20220   20221   20223   20221   20222   20221   20224
   20225   20227   20225   20226   20225   20228   20229   20231
   20229   20230   20229   20232   20233   20235   20233   20234
   20233   20236   20237   20239   20237   20238   20237   20240
   20241   20243   20241   20242   20241   20244   20245   20247
   20245   20246   20245   20248   20249   20251   20249   20250
   20249   20252   20253   20255   20253   20254   20253   20256
   20257   20259   20257   20258   20257   20260   20261   20263
   20261   20262   20261   20264   20265   20267   20265   20266
   20265   20268   20269   20271   20269   20270   20269   20272
   20273   20275   20273   20274   20273   20276   20277   20279
   20277   20278   20277   20280   20281   20283   20281   20282
   20281   20284   20285   20287   20285   20286   20285   20288
   20289   20291   20289   20290   20289   20292   20293   20295
   20293   20294   20293   20296   20297   20299   20297   20298
   20297   20300   20301   20303   20301   20302   20301   20304
   20305   20307   20305   20306   20305   20308   20309   20311
   20309   20310   20309   20312   20313   20315   20313   20314
   20313   20316   20317   20319   20317   20318   20317   20320
   20321   20323   20321   20322   20321   20324   20325   20327
   20325   20326   20325   20328   20329   20331   20329   20330
   20329   20332   20333   20335   20333   20334   20333   20336
   20337   20339   20337   20338   20337   20340   20341   20343
   20341   20342   20341   20344   20345   20347   20345   20346
   20345   20348   20349   20351   20349   20350   20349   20352
   20353   20355   20353   20354   20353   20356   20357   20359
   20357   20358   20357   20360   20361   20363   20361   20362
   20361   20364   20365   20367   20365   20366   20365   20368
   20369   20371   20369   20370   20369   20372   20373   20375
   20373   20374   20373   20376   20377   20379   20377   20378
   20377   20380   20381   20383   20381   20382   20381   20384
   20385   20387   20385   20386   20385   20388   20389   20391
   20389   20390   20389   20392   20393   20395   20393   20394
   20393   20396   20397   20399   20397   20398   20397   20400
   20401   20403   20401   20402   20401   20404   20405   20407
   20405   20406   20405   20408   20409   20411   20409   20410
   20409   20412   20413   20415   20413   20414   20413   20416
   20417   20419   20417   20418   20417   20420   20421   20423
   20421   20422   20421   20424   20425   20427   20425   20426
   20425   20428   20429   20431   20429   20430   20429   20432
   20433   20435   20433   20434   20433   20436   20437   20439
   20437   20438   20437   20440   20441   20443   20441   20442
   20441   20444   20445   20447   20445   20446   20445   20448
   20449   20451   20449   20450   20449   20452   20453   20455
   20453   20454   20453   20456   20457   20459   20457   20458
   20457   20460   20461   20463   20461   20462   20461   20464
   20465   20467   20465   20466   20465   20468   20469   20471
   20469   20470   20469   20472   20473   20475   20473   20474
   20473   20476   20477   20479   20477   20478   20477   20480
   20481   20483   20481   20482   20481   20484   20485   20487
   20485   20486   20485   20488   20489   20491   20489   20490
   20489   20492   20493   20495   20493   20494   20493   20496
   20497   20499   20497   20498   20497   20500   20501   20503
   20501   20502   20501   20504   20505   20507   20505   20506
   20505   20508   20509   20511   20509   20510   20509   20512
   20513   20515   20513   20514   20513   20516   20517   20519
   20517   20518   20517   20520   20521   20523   20521   20522
   20521   20524   20525   20527   20525   20526   20525   20528
   20529   20531   20529   20530   20529   20532   20533   20535
   20533   20534   20533   20536   20537   20539   20537   20538
   20537   20540   20541   20543   20541   20542   20541   20544
   20545   20547   20545   20546   20545   20548   20549   20551
   20549   20550   20549   20552   20553   20555   20553   20554
   20553   20556   20557   20559   20557   20558   20557   20560
   20561   20563   20561   20562   20561   20564   20565   20567
   20565   20566   20565   20568   20569   20571   20569   20570
   20569   20572   20573   20575   20573   20574   20573   20576
   20577   20579   20577   20578   20577   20580   20581   20583
   20581   20582   20581   20584   20585   20587   20585   20586
   20585   20588   20589   20591   20589   20590   20589   20592
   20593   20595   20593   20594   20593   20596   20597   20599
   20597   20598   20597   20600   20601   20603   20601   20602
   20601   20604   20605   20607   20605   20606   20605   20608
   20609   20611   20609   20610   20609   20612   20613   20615
   20613   20614   20613   20616   20617   20619   20617   20618
   20617   20620   20621   20623   20621   20622   20621   20624
   20625   20627   20625   20626   20625   20628   20629   20631
   20629   20630   20629   20632   20633   20635   20633   20634
   20633   20636   20637   20639   20637   20638   20637   20640
   20641   20643   20641   20642   20641   20644   20645   20647
   20645   20646   20645   20648   20649   20651   20649   20650
   20649   20652   20653   20655   20653   20654   20653   20656
   20657   20659   20657   20658   20657   20660   20661   20663
   20661   20662   20661   20664   20665   20667   20665   20666
   20665   20668   20669   20671   20669   20670   20669   20672
   20673   20675   20673   20674   20673   20676   20677   20679
   20677   20678   20677   20680   20681   20683   20681   20682
   20681   20684   20685   20687   20685   20686   20685   20688
   20689   20691   20689   20690   20689   20692   20693   20695
   20693   20694   20693   20696   20697   20699   20697   20698
   20697   20700   20701   20703   20701   20702   20701   20704
   20705   20707   20705   20706   20705   20708   20709   20711
   20709   20710   20709   20712   20713   20715   20713   20714
   20713   20716   20717   20719   20717   20718   20717   20720
   20721   20723   20721   20722   20721   20724   20725   20727
   20725   20726   20725   20728   20729   20731   20729   20730
   20729   20732   20733   20735   20733   20734   20733   20736
   20737   20739   20737   20738   20737   20740   20741   20743
   20741   20742   20741   20744   20745   20747   20745   20746
   20745   20748   20749   20751   20749   20750   20749   20752
   20753   20755   20753   20754   20753   20756   20757   20759
   20757   20758   20757   20760   20761   20763   20761   20762
   20761   20764   20765   20767   20765   20766   20765   20768
   20769   20771   20769   20770   20769   20772   20773   20775
   20773   20774   20773   20776   20777   20779   20777   20778
   20777   20780   20781   20783   20781   20782   20781   20784
   20785   20787   20785   20786   20785   20788   20789   20791
   20789   20790   20789   20792   20793   20795   20793   20794
   20793   20796   20797   20799   20797   20798   20797   20800
   20801   20803   20801   20802   20801   20804   20805   20807
   20805   20806   20805   20808   20809   20811   20809   20810
   20809   20812   20813   20815   20813   20814   20813   20816
   20817   20819   20817   20818   20817   20820   20821   20823
   20821   20822   20821   20824   20825   20827   20825   20826
   20825   20828   20829   20831   20829   20830   20829   20832
   20833   20835   20833   20834   20833   20836   20837   20839
   20837   20838   20837   20840   20841   20843   20841   20842
   20841   20844   20845   20847   20845   20846   20845   20848
   20849   20851   20849   20850   20849   20852   20853   20855
   20853   20854   20853   20856   20857   20859   20857   20858
   20857   20860   20861   20863   20861   20862   20861   20864
   20865   20867   20865   20866   20865   20868   20869   20871
   20869   20870   20869   20872   20873   20875   20873   20874
   20873   20876   20877   20879   20877   20878   20877   20880
   20881   20883   20881   20882   20881   20884   20885   20887
   20885   20886   20885   20888   20889   20891   20889   20890
   20889   20892   20893   20895   20893   20894   20893   20896
   20897   20899   20897   20898   20897   20900   20901   20903
   20901   20902   20901   20904   20905   20907   20905   20906
   20905   20908   20909   20911   20909   20910   20909   20912
   20913   20915   20913   20914   20913   20916   20917   20919
   20917   20918   20917   20920   20921   20923   20921   20922
   20921   20924   20925   20927   20925   20926   20925   20928
   20929   20931   20929   20930   20929   20932   20933   20935
   20933   20934   20933   20936   20937   20939   20937   20938
   20937   20940   20941   20943   20941   20942   20941   20944
   20945   20947   20945   20946   20945   20948   20949   20951
   20949   20950   20949   20952   20953   20955   20953   20954
   20953   20956   20957   20959   20957   20958   20957   20960
   20961   20963   20961   20962   20961   20964   20965   20967
   20965   20966   20965   20968   20969   20971   20969   20970
   20969   20972   20973   20975   20973   20974   20973   20976
   20977   20979   20977   20978   20977   20980   20981   20983
   20981   20982   20981   20984   20985   20987   20985   20986
   20985   20988   20989   20991   20989   20990   20989   20992
   20993   20995   20993   20994   20993   20996   20997   20999
   20997   20998   20997   21000   21001   21003   21001   21002
   21001   21004   21005   21007   21005   21006   21005   21008
   21009   21011   21009   21010   21009   21012   21013   21015
   21013   21014   21013   21016   21017   21019   21017   21018
   21017   21020   21021   21023   21021   21022   21021   21024
   21025   21027   21025   21026   21025   21028   21029   21031
   21029   21030   21029   21032   21033   21035   21033   21034
   21033   21036   21037   21039   21037   21038   21037   21040
   21041   21043   21041   21042   21041   21044   21045   21047
   21045   21046   21045   21048   21049   21051   21049   21050
   21049   21052   21053   21055   21053   21054   21053   21056
   21057   21059   21057   21058   21057   21060   21061   21063
   21061   21062   21061   21064   21065   21067   21065   21066
   21065   21068   21069   21071   21069   21070   21069   21072
   21073   21075   21073   21074   21073   21076   21077   21079
   21077   21078   21077   21080   21081   21083   21081   21082
   21081   21084   21085   21087   21085   21086   21085   21088
   21089   21091   21089   21090   21089   21092   21093   21095
   21093   21094   21093   21096   21097   21099   21097   21098
   21097   21100   21101   21103   21101   21102   21101   21104
   21105   21107   21105   21106   21105   21108   21109   21111
   21109   21110   21109   21112   21113   21115   21113   21114
   21113   21116   21117   21119   21117   21118   21117   21120
   21121   21123   21121   21122   21121   21124   21125   21127
   21125   21126   21125   21128   21129   21131   21129   21130
   21129   21132   21133   21135   21133   21134   21133   21136
   21137   21139   21137   21138   21137   21140   21141   21143
   21141   21142   21141   21144   21145   21147   21145   21146
   21145   21148   21149   21151   21149   21150   21149   21152
   21153   21155   21153   21154   21153   21156   21157   21159
   21157   21158   21157   21160   21161   21163   21161   21162
   21161   21164   21165   21167   21165   21166   21165   21168
   21169   21171   21169   21170   21169   21172   21173   21175
   21173   21174   21173   21176   21177   21179   21177   21178
   21177   21180   21181   21183   21181   21182   21181   21184
   21185   21187   21185   21186   21185   21188   21189   21191
   21189   21190   21189   21192   21193   21195   21193   21194
   21193   21196   21197   21199   21197   21198   21197   21200
   21201   21203   21201   21202   21201   21204   21205   21207
   21205   21206   21205   21208   21209   21211   21209   21210
   21209   21212   21213   21215   21213   21214   21213   21216
   21217   21219   21217   21218   21217   21220   21221   21223
   21221   21222   21221   21224   21225   21227   21225   21226
   21225   21228   21229   21231   21229   21230   21229   21232
   21233   21235   21233   21234   21233   21236   21237   21239
   21237   21238   21237   21240   21241   21243   21241   21242
   21241   21244   21245   21247   21245   21246   21245   21248
   21249   21251   21249   21250   21249   21252   21253   21255
   21253   21254   21253   21256   21257   21259   21257   21258
   21257   21260   21261   21263   21261   21262   21261   21264
   21265   21267   21265   21266   21265   21268   21269   21271
   21269   21270   21269   21272   21273   21275   21273   21274
   21273   21276   21277   21279   21277   21278   21277   21280
   21281   21283   21281   21282   21281   21284   21285   21287
   21285   21286   21285   21288   21289   21291   21289   21290
   21289   21292   21293   21295   21293   21294   21293   21296
   21297   21299   21297   21298   21297   21300   21301   21303
   21301   21302   21301   21304   21305   21307   21305   21306
   21305   21308   21309   21311   21309   21310   21309   21312
   21313   21315   21313   21314   21313   21316   21317   21319
   21317   21318   21317   21320   21321   21323   21321   21322
   21321   21324   21325   21327   21325   21326   21325   21328
   21329   21331   21329   21330   21329   21332   21333   21335
   21333   21334   21333   21336   21337   21339   21337   21338
   21337   21340   21341   21343   21341   21342   21341   21344
   21345   21347   21345   21346   21345   21348   21349   21351
   21349   21350   21349   21352   21353   21355   21353   21354
   21353   21356   21357   21359   21357   21358   21357   21360
   21361   21363   21361   21362   21361   21364   21365   21367
   21365   21366   21365   21368   21369   21371   21369   21370
   21369   21372   21373   21375   21373   21374   21373   21376
   21377   21379   21377   21378   21377   21380   21381   21383
   21381   21382   21381   21384   21385   21387   21385   21386
   21385   21388   21389   21391   21389   21390   21389   21392
   21393   21395   21393   21394   21393   21396   21397   21399
   21397   21398   21397   21400   21401   21403   21401   21402
   21401   21404   21405   21407   21405   21406   21405   21408
   21409   21411   21409   21410   21409   21412   21413   21415
   21413   21414   21413   21416   21417   21419   21417   21418
   21417   21420   21421   21423   21421   21422   21421   21424
   21425   21427   21425   21426   21425   21428   21429   21431
   21429   21430   21429   21432   21433   21435   21433   21434
   21433   21436   21437   21439   21437   21438   21437   21440
   21441   21443   21441   21442   21441   21444   21445   21447
   21445   21446   21445   21448   21449   21451   21449   21450
   21449   21452   21453   21455   21453   21454   21453   21456
   21457   21459   21457   21458   21457   21460   21461   21463
   21461   21462   21461   21464   21465   21467   21465   21466
   21465   21468   21469   21471   21469   21470   21469   21472
   21473   21475   21473   21474   21473   21476   21477   21479
   21477   21478   21477   21480   21481   21483   21481   21482
   21481   21484   21485   21487   21485   21486   21485   21488
   21489   21491   21489   21490   21489   21492   21493   21495
   21493   21494   21493   21496   21497   21499   21497   21498
   21497   21500   21501   21503   21501   21502   21501   21504
   21505   21507   21505   21506   21505   21508   21509   21511
   21509   21510   21509   21512   21513   21515   21513   21514
   21513   21516   21517   21519   21517   21518   21517   21520
   21521   21523   21521   21522   21521   21524   21525   21527
   21525   21526   21525   21528   21529   21531   21529   21530
   21529   21532   21533   21535   21533   21534   21533   21536
   21537   21539   21537   21538   21537   21540   21541   21543
   21541   21542   21541   21544   21545   21547   21545   21546
   21545   21548   21549   21551   21549   21550   21549   21552
   21553   21555   21553   21554   21553   21556   21557   21559
   21557   21558   21557   21560   21561   21563   21561   21562
   21561   21564   21565   21567   21565   21566   21565   21568
   21569   21571   21569   21570   21569   21572   21573   21575
   21573   21574   21573   21576   21577   21579   21577   21578
   21577   21580   21581   21583   21581   21582   21581   21584
   21585   21587   21585   21586   21585   21588   21589   21591
   21589   21590   21589   21592   21593   21595   21593   21594
   21593   21596   21597   21599   21597   21598   21597   21600
   21601   21603   21601   21602   21601   21604   21605   21607
   21605   21606   21605   21608   21609   21611   21609   21610
   21609   21612   21613   21615   21613   21614   21613   21616
   21617   21619   21617   21618   21617   21620   21621   21623
   21621   21622   21621   21624   21625   21627   21625   21626
   21625   21628   21629   21631   21629   21630   21629   21632
   21633   21635   21633   21634   21633   21636   21637   21639
   21637   21638   21637   21640   21641   21643   21641   21642
   21641   21644   21645   21647   21645   21646   21645   21648
   21649   21651   21649   21650   21649   21652   21653   21655
   21653   21654   21653   21656   21657   21659   21657   21658
   21657   21660   21661   21663   21661   21662   21661   21664
   21665   21667   21665   21666   21665   21668   21669   21671
   21669   21670   21669   21672   21673   21675   21673   21674
   21673   21676   21677   21679   21677   21678   21677   21680
   21681   21683   21681   21682   21681   21684   21685   21687
   21685   21686   21685   21688   21689   21691   21689   21690
   21689   21692   21693   21695   21693   21694   21693   21696
   21697   21699   21697   21698   21697   21700   21701   21703
   21701   21702   21701   21704   21705   21707   21705   21706
   21705   21708   21709   21711   21709   21710   21709   21712
   21713   21715   21713   21714   21713   21716   21717   21719
   21717   21718   21717   21720   21721   21723   21721   21722
   21721   21724   21725   21727   21725   21726   21725   21728
   21729   21731   21729   21730   21729   21732   21733   21735
   21733   21734   21733   21736   21737   21739   21737   21738
   21737   21740   21741   21743   21741   21742   21741   21744
   21745   21747   21745   21746   21745   21748   21749   21751
   21749   21750   21749   21752   21753   21755   21753   21754
   21753   21756   21757   21759   21757   21758   21757   21760
   21761   21763   21761   21762   21761   21764   21765   21767
   21765   21766   21765   21768   21769   21771   21769   21770
   21769   21772   21773   21775   21773   21774   21773   21776
   21777   21779   21777   21778   21777   21780   21781   21783
   21781   21782   21781   21784   21785   21787   21785   21786
   21785   21788   21789   21791   21789   21790   21789   21792
   21793   21795   21793   21794   21793   21796   21797   21799
   21797   21798   21797   21800   21801   21803   21801   21802
   21801   21804   21805   21807   21805   21806   21805   21808
   21809   21811   21809   21810   21809   21812   21813   21815
   21813   21814   21813   21816   21817   21819   21817   21818
   21817   21820   21821   21823   21821   21822   21821   21824
   21825   21827   21825   21826   21825   21828   21829   21831
   21829   21830   21829   21832   21833   21835   21833   21834
   21833   21836   21837   21839   21837   21838   21837   21840
   21841   21843   21841   21842   21841   21844   21845   21847
   21845   21846   21845   21848   21849   21851   21849   21850
   21849   21852   21853   21855   21853   21854   21853   21856
   21857   21859   21857   21858   21857   21860   21861   21863
   21861   21862   21861   21864   21865   21867   21865   21866
   21865   21868   21869   21871   21869   21870   21869   21872
   21873   21875   21873   21874   21873   21876   21877   21879
   21877   21878   21877   21880   21881   21883   21881   21882
   21881   21884   21885   21887   21885   21886   21885   21888
   21889   21891   21889   21890   21889   21892   21893   21895
   21893   21894   21893   21896   21897   21899   21897   21898
   21897   21900   21901   21903   21901   21902   21901   21904
   21905   21907   21905   21906   21905   21908   21909   21911
   21909   21910   21909   21912   21913   21915   21913   21914
   21913   21916   21917   21919   21917   21918   21917   21920
   21921   21923   21921   21922   21921   21924   21925   21927
   21925   21926   21925   21928   21929   21931   21929   21930
   21929   21932   21933   21935   21933   21934   21933   21936
   21937   21939   21937   21938   21937   21940   21941   21943
   21941   21942   21941   21944   21945   21947   21945   21946
   21945   21948   21949   21951   21949   21950   21949   21952
   21953   21955   21953   21954   21953   21956   21957   21959
   21957   21958   21957   21960   21961   21963   21961   21962
   21961   21964   21965   21967   21965   21966   21965   21968
   21969   21971   21969   21970   21969   21972   21973   21975
   21973   21974   21973   21976   21977   21979   21977   21978
   21977   21980   21981   21983   21981   21982   21981   21984
   21985   21987   21985   21986   21985   21988   21989   21991
   21989   21990   21989   21992   21993   21995   21993   21994
   21993   21996   21997   21999   21997   21998   21997   22000
   22001   22003   22001   22002   22001   22004   22005   22007
   22005   22006   22005   22008   22009   22011   22009   22010
   22009   22012   22013   22015   22013   22014   22013   22016
   22017   22019   22017   22018   22017   22020   22021   22023
   22021   22022   22021   22024   22025   22027   22025   22026
   22025   22028   22029   22031   22029   22030   22029   22032
   22033   22035   22033   22034   22033   22036   22037   22039
   22037   22038   22037   22040   22041   22043   22041   22042
   22041   22044   22045   22047   22045   22046   22045   22048
   22049   22051   22049   22050   22049   22052   22053   22055
   22053   22054   22053   22056   22057   22059   22057   22058
   22057   22060   22061   22063   22061   22062   22061   22064
   22065   22067   22065   22066   22065   22068   22069   22071
   22069   22070   22069   22072   22073   22075   22073   22074
   22073   22076   22077   22079   22077   22078   22077   22080
   22081   22083   22081   22082   22081   22084   22085   22087
   22085   22086   22085   22088   22089   22091   22089   22090
   22089   22092   22093   22095   22093   22094   22093   22096
   22097   22099   22097   22098   22097   22100   22101   22103
   22101   22102   22101   22104   22105   22107   22105   22106
   22105   22108   22109   22111   22109   22110   22109   22112
   22113   22115   22113   22114   22113   22116   22117   22119
   22117   22118   22117   22120   22121   22123   22121   22122
   22121   22124   22125   22127   22125   22126   22125   22128
   22129   22131   22129   22130   22129   22132   22133   22135
   22133   22134   22133   22136   22137   22139   22137   22138
   22137   22140   22141   22143   22141   22142   22141   22144
   22145   22147   22145   22146   22145   22148   22149   22151
   22149   22150   22149   22152   22153   22155   22153   22154
   22153   22156   22157   22159   22157   22158   22157   22160
   22161   22163   22161   22162   22161   22164   22165   22167
   22165   22166   22165   22168   22169   22171   22169   22170
   22169   22172   22173   22175   22173   22174   22173   22176
   22177   22179   22177   22178   22177   22180   22181   22183
   22181   22182   22181   22184   22185   22187   22185   22186
   22185   22188   22189   22191   22189   22190   22189   22192
   22193   22195   22193   22194   22193   22196   22197   22199
   22197   22198   22197   22200   22201   22203   22201   22202
   22201   22204   22205   22207   22205   22206   22205   22208
   22209   22211   22209   22210   22209   22212   22213   22215
   22213   22214   22213   22216   22217   22219   22217   22218
   22217   22220   22221   22223   22221   22222   22221   22224
   22225   22227   22225   22226   22225   22228   22229   22231
   22229   22230   22229   22232   22233   22235   22233   22234
   22233   22236   22237   22239   22237   22238   22237   22240
   22241   22243   22241   22242   22241   22244   22245   22247
   22245   22246   22245   22248   22249   22251   22249   22250
   22249   22252   22253   22255   22253   22254   22253   22256
   22257   22259   22257   22258   22257   22260   22261   22263
   22261   22262   22261   22264   22265   22267   22265   22266
   22265   22268   22269   22271   22269   22270   22269   22272
   22273   22275   22273   22274   22273   22276   22277   22279
   22277   22278   22277   22280   22281   22283   22281   22282
   22281   22284   22285   22287   22285   22286   22285   22288
   22289   22291   22289   22290   22289   22292   22293   22295
   22293   22294   22293   22296   22297   22299   22297   22298
   22297   22300   22301   22303   22301   22302   22301   22304
   22305   22307   22305   22306   22305   22308   22309   22311
   22309   22310   22309   22312   22313   22315   22313   22314
   22313   22316   22317   22319   22317   22318   22317   22320
   22321   22323   22321   22322   22321   22324   22325   22327
   22325   22326   22325   22328   22329   22331   22329   22330
   22329   22332   22333   22335   22333   22334   22333   22336
   22337   22339   22337   22338   22337   22340   22341   22343
   22341   22342   22341   22344   22345   22347   22345   22346
   22345   22348   22349   22351   22349   22350   22349   22352
   22353   22355   22353   22354   22353   22356   22357   22359
   22357   22358   22357   22360   22361   22363   22361   22362
   22361   22364   22365   22367   22365   22366   22365   22368
   22369   22371   22369   22370   22369   22372   22373   22375
   22373   22374   22373   22376   22377   22379   22377   22378
   22377   22380   22381   22383   22381   22382   22381   22384
   22385   22387   22385   22386   22385   22388   22389   22391
   22389   22390   22389   22392   22393   22395   22393   22394
   22393   22396   22397   22399   22397   22398   22397   22400
   22401   22403   22401   22402   22401   22404   22405   22407
   22405   22406   22405   22408   22409   22411   22409   22410
   22409   22412   22413   22415   22413   22414   22413   22416
   22417   22419   22417   22418   22417   22420   22421   22423
   22421   22422   22421   22424   22425   22427   22425   22426
   22425   22428   22429   22431   22429   22430   22429   22432
   22433   22435   22433   22434   22433   22436   22437   22439
   22437   22438   22437   22440   22441   22443   22441   22442
   22441   22444   22445   22447   22445   22446   22445   22448
   22449   22451   22449   22450   22449   22452   22453   22455
   22453   22454   22453   22456   22457   22459   22457   22458
   22457   22460   22461   22463   22461   22462   22461   22464
   22465   22467   22465   22466   22465   22468   22469   22471
   22469   22470   22469   22472   22473   22475   22473   22474
   22473   22476   22477   22479   22477   22478   22477   22480
   22481   22483   22481   22482   22481   22484   22485   22487
   22485   22486   22485   22488   22489   22491   22489   22490
   22489   22492   22493   22495   22493   22494   22493   22496
   22497   22499   22497   22498   22497   22500   22501   22503
   22501   22502   22501   22504   22505   22507   22505   22506
   22505   22508   22509   22511   22509   22510   22509   22512
   22513   22515   22513   22514   22513   22516   22517   22519
   22517   22518   22517   22520   22521   22523   22521   22522
   22521   22524   22525   22527   22525   22526   22525   22528
   22529   22531   22529   22530   22529   22532   22533   22535
   22533   22534   22533   22536   22537   22539   22537   22538
   22537   22540   22541   22543   22541   22542   22541   22544
   22545   22547   22545   22546   22545   22548   22549   22551
   22549   22550   22549   22552   22553   22555   22553   22554
   22553   22556   22557   22559   22557   22558   22557   22560
   22561   22563   22561   22562   22561   22564   22565   22567
   22565   22566   22565   22568   22569   22571   22569   22570
   22569   22572   22573   22575   22573   22574   22573   22576
   22577   22579   22577   22578   22577   22580   22581   22583
   22581   22582   22581   22584   22585   22587   22585   22586
   22585   22588   22589   22591   22589   22590   22589   22592
   22593   22595   22593   22594   22593   22596   22597   22599
   22597   22598   22597   22600   22601   22603   22601   22602
   22601   22604   22605   22607   22605   22606   22605   22608
   22609   22611   22609   22610   22609   22612   22613   22615
   22613   22614   22613   22616   22617   22619   22617   22618
   22617   22620   22621   22623   22621   22622   22621   22624
   22625   22627   22625   22626   22625   22628   22629   22631
   22629   22630   22629   22632   22633   22635   22633   22634
   22633   22636   22637   22639   22637   22638   22637   22640
   22641   22643   22641   22642   22641   22644   22645   22647
   22645   22646   22645   22648   22649   22651   22649   22650
   22649   22652   22653   22655   22653   22654   22653   22656
   22657   22659   22657   22658   22657   22660   22661   22663
   22661   22662   22661   22664   22665   22667   22665   22666
   22665   22668   22669   22671   22669   22670   22669   22672
   22673   22675   22673   22674   22673   22676   22677   22679
   22677   22678   22677   22680   22681   22683   22681   22682
   22681   22684   22685   22687   22685   22686   22685   22688
   22689   22691   22689   22690   22689   22692   22693   22695
   22693   22694   22693   22696   22697   22699   22697   22698
   22697   22700   22701   22703   22701   22702   22701   22704
   22705   22707   22705   22706   22705   22708   22709   22711
   22709   22710   22709   22712   22713   22715   22713   22714
   22713   22716   22717   22719   22717   22718   22717   22720
   22721   22723   22721   22722   22721   22724   22725   22727
   22725   22726   22725   22728   22729   22731   22729   22730
   22729   22732   22733   22735   22733   22734   22733   22736
   22737   22739   22737   22738   22737   22740   22741   22743
   22741   22742   22741   22744   22745   22747   22745   22746
   22745   22748   22749   22751   22749   22750   22749   22752
   22753   22755   22753   22754   22753   22756   22757   22759
   22757   22758   22757   22760   22761   22763   22761   22762
   22761   22764   22765   22767   22765   22766   22765   22768
   22769   22771   22769   22770   22769   22772   22773   22775
   22773   22774   22773   22776   22777   22779   22777   22778
   22777   22780   22781   22783   22781   22782   22781   22784
   22785   22787   22785   22786   22785   22788   22789   22791
   22789   22790   22789   22792   22793   22795   22793   22794
   22793   22796   22797   22799   22797   22798   22797   22800
   22801   22803   22801   22802   22801   22804   22805   22807
   22805   22806   22805   22808   22809   22811   22809   22810
   22809   22812   22813   22815   22813   22814   22813   22816
   22817   22819   22817   22818   22817   22820   22821   22823
   22821   22822   22821   22824   22825   22827   22825   22826
   22825   22828   22829   22831   22829   22830   22829   22832
   22833   22835   22833   22834   22833   22836   22837   22839
   22837   22838   22837   22840   22841   22843   22841   22842
   22841   22844   22845   22847   22845   22846   22845   22848
   22849   22851   22849   22850   22849   22852   22853   22855
   22853   22854   22853   22856   22857   22859   22857   22858
   22857   22860   22861   22863   22861   22862   22861   22864
   22865   22867   22865   22866   22865   22868   22869   22871
   22869   22870   22869   22872   22873   22875   22873   22874
   22873   22876   22877   22879   22877   22878   22877   22880
   22881   22883   22881   22882   22881   22884   22885   22887
   22885   22886   22885   22888   22889   22891   22889   22890
   22889   22892   22893   22895   22893   22894   22893   22896
   22897   22899   22897   22898   22897   22900   22901   22903
   22901   22902   22901   22904   22905   22907   22905   22906
   22905   22908   22909   22911   22909   22910   22909   22912
   22913   22915   22913   22914   22913   22916   22917   22919
   22917   22918   22917   22920   22921   22923   22921   22922
   22921   22924   22925   22927   22925   22926   22925   22928
   22929   22931   22929   22930   22929   22932   22933   22935
   22933   22934   22933   22936   22937   22939   22937   22938
   22937   22940   22941   22943   22941   22942   22941   22944
   22945   22947   22945   22946   22945   22948   22949   22951
   22949   22950   22949   22952   22953   22955   22953   22954
   22953   22956   22957   22959   22957   22958   22957   22960
   22961   22963   22961   22962   22961   22964   22965   22967
   22965   22966   22965   22968   22969   22971   22969   22970
   22969   22972   22973   22975   22973   22974   22973   22976
   22977   22979   22977   22978   22977   22980   22981   22983
   22981   22982   22981   22984   22985   22987   22985   22986
   22985   22988   22989   22991   22989   22990   22989   22992
   22993   22995   22993   22994   22993   22996   22997   22999
   22997   22998   22997   23000   23001   23003   23001   23002
   23001   23004   23005   23007   23005   23006   23005   23008
   23009   23011   23009   23010   23009   23012   23013   23015
   23013   23014   23013   23016   23017   23019   23017   23018
   23017   23020   23021   23023   23021   23022   23021   23024
   23025   23027   23025   23026   23025   23028   23029   23031
   23029   23030   23029   23032   23033   23035   23033   23034
   23033   23036   23037   23039   23037   23038   23037   23040
   23041   23043   23041   23042   23041   23044   23045   23047
   23045   23046   23045   23048   23049   23051   23049   23050
   23049   23052   23053   23055   23053   23054   23053   23056
   23057   23059   23057   23058   23057   23060   23061   23063
   23061   23062   23061   23064   23065   23067   23065   23066
   23065   23068   23069   23071   23069   23070   23069   23072
   23073   23075   23073   23074   23073   23076   23077   23079
   23077   23078   23077   23080   23081   23083   23081   23082
   23081   23084   23085   23087   23085   23086   23085   23088
   23089   23091   23089   23090   23089   23092   23093   23095
   23093   23094   23093   23096   23097   23099   23097   23098
   23097   23100   23101   23103   23101   23102   23101   23104
   23105   23107   23105   23106   23105   23108   23109   23111
   23109   23110   23109   23112   23113   23115   23113   23114
   23113   23116   23117   23119   23117   23118   23117   23120
   23121   23123   23121   23122   23121   23124   23125   23127
   23125   23126   23125   23128   23129   23131   23129   23130
   23129   23132   23133   23135   23133   23134   23133   23136
   23137   23139   23137   23138   23137   23140   23141   23143
   23141   23142   23141   23144   23145   23147   23145   23146
   23145   23148   23149   23151   23149   23150   23149   23152
   23153   23155   23153   23154   23153   23156   23157   23159
   23157   23158   23157   23160   23161   23163   23161   23162
   23161   23164   23165   23167   23165   23166   23165   23168
   23169   23171   23169   23170   23169   23172   23173   23175
   23173   23174   23173   23176   23177   23179   23177   23178
   23177   23180   23181   23183   23181   23182   23181   23184
   23185   23187   23185   23186   23185   23188   23189   23191
   23189   23190   23189   23192   23193   23195   23193   23194
   23193   23196   23197   23199   23197   23198   23197   23200
   23201   23203   23201   23202   23201   23204   23205   23207
   23205   23206   23205   23208   23209   23211   23209   23210
   23209   23212   23213   23215   23213   23214   23213   23216
   23217   23219   23217   23218   23217   23220   23221   23223
   23221   23222   23221   23224   23225   23227   23225   23226
   23225   23228   23229   23231   23229   23230   23229   23232
   23233   23235   23233   23234   23233   23236   23237   23239
   23237   23238   23237   23240   23241   23243   23241   23242
   23241   23244   23245   23247   23245   23246   23245   23248
   23249   23251   23249   23250   23249   23252   23253   23255
   23253   23254   23253   23256   23257   23259   23257   23258
   23257   23260   23261   23263   23261   23262   23261   23264
   23265   23267   23265   23266   23265   23268   23269   23271
   23269   23270   23269   23272   23273   23275   23273   23274
   23273   23276   23277   23279   23277   23278   23277   23280
   23281   23283   23281   23282   23281   23284   23285   23287
   23285   23286   23285   23288   23289   23291   23289   23290
   23289   23292   23293   23295   23293   23294   23293   23296
   23297   23299   23297   23298   23297   23300   23301   23303
   23301   23302   23301   23304   23305   23307   23305   23306
   23305   23308   23309   23311   23309   23310   23309   23312
   23313   23315   23313   23314   23313   23316   23317   23319
   23317   23318   23317   23320   23321   23323   23321   23322
   23321   23324   23325   23327   23325   23326   23325   23328
   23329   23331   23329   23330   23329   23332   23333   23335
   23333   23334   23333   23336   23337   23339   23337   23338
   23337   23340   23341   23343   23341   23342   23341   23344
   23345   23347   23345   23346   23345   23348   23349   23351
   23349   23350   23349   23352   23353   23355   23353   23354
   23353   23356   23357   23359   23357   23358   23357   23360
   23361   23363   23361   23362   23361   23364   23365   23367
   23365   23366   23365   23368   23369   23371   23369   23370
   23369   23372   23373   23375   23373   23374   23373   23376
   23377   23379   23377   23378   23377   23380   23381   23383
   23381   23382   23381   23384   23385   23387   23385   23386
   23385   23388   23389   23391   23389   23390   23389   23392
   23393   23395   23393   23394   23393   23396   23397   23399
   23397   23398   23397   23400   23401   23403   23401   23402
   23401   23404   23405   23407   23405   23406   23405   23408
   23409   23411   23409   23410   23409   23412   23413   23415
   23413   23414   23413   23416   23417   23419   23417   23418
   23417   23420   23421   23423   23421   23422   23421   23424
   23425   23427   23425   23426   23425   23428   23429   23431
   23429   23430   23429   23432   23433   23435   23433   23434
   23433   23436   23437   23439   23437   23438   23437   23440
   23441   23443   23441   23442   23441   23444   23445   23447
   23445   23446   23445   23448   23449   23451   23449   23450
   23449   23452   23453   23455   23453   23454   23453   23456
   23457   23459   23457   23458   23457   23460   23461   23463
   23461   23462   23461   23464   23465   23467   23465   23466
   23465   23468   23469   23471   23469   23470   23469   23472
   23473   23475   23473   23474   23473   23476   23477   23479
   23477   23478   23477   23480   23481   23483   23481   23482
   23481   23484   23485   23487   23485   23486   23485   23488
   23489   23491   23489   23490   23489   23492   23493   23495
   23493   23494   23493   23496   23497   23499   23497   23498
   23497   23500   23501   23503   23501   23502   23501   23504
   23505   23507   23505   23506   23505   23508   23509   23511
   23509   23510   23509   23512   23513   23515   23513   23514
   23513   23516   23517   23519   23517   23518   23517   23520
   23521   23523   23521   23522   23521   23524   23525   23527
   23525   23526   23525   23528   23529   23531   23529   23530
   23529   23532   23533   23535   23533   23534   23533   23536
   23537   23539   23537   23538   23537   23540   23541   23543
   23541   23542   23541   23544   23545   23547   23545   23546
   23545   23548   23549   23551   23549   23550   23549   23552
   23553   23555   23553   23554   23553   23556   23557   23559
   23557   23558   23557   23560   23561   23563   23561   23562
   23561   23564   23565   23567   23565   23566   23565   23568
   23569   23571   23569   23570   23569   23572   23573   23575
   23573   23574   23573   23576   23577   23579   23577   23578
   23577   23580   23581   23583   23581   23582   23581   23584
   23585   23587   23585   23586   23585   23588   23589   23591
   23589   23590   23589   23592   23593   23595   23593   23594
   23593   23596   23597   23599   23597   23598   23597   23600
   23601   23603   23601   23602   23601   23604   23605   23607
   23605   23606   23605   23608   23609   23611   23609   23610
   23609   23612   23613   23615   23613   23614   23613   23616
   23617   23619   23617   23618   23617   23620   23621   23623
   23621   23622   23621   23624   23625   23627   23625   23626
   23625   23628   23629   23631   23629   23630   23629   23632
   23633   23635   23633   23634   23633   23636   23637   23639
   23637   23638   23637   23640   23641   23643   23641   23642
   23641   23644   23645   23647   23645   23646   23645   23648
   23649   23651   23649   23650   23649   23652   23653   23655
   23653   23654   23653   23656   23657   23659   23657   23658
   23657   23660   23661   23663   23661   23662   23661   23664
   23665   23667   23665   23666   23665   23668   23669   23671
   23669   23670   23669   23672   23673   23675   23673   23674
   23673   23676   23677   23679   23677   23678   23677   23680
   23681   23683   23681   23682   23681   23684   23685   23687
   23685   23686   23685   23688   23689   23691   23689   23690
   23689   23692   23693   23695   23693   23694   23693   23696
   23697   23699   23697   23698   23697   23700   23701   23703
   23701   23702   23701   23704   23705   23707   23705   23706
   23705   23708   23709   23711   23709   23710   23709   23712
   23713   23715   23713   23714   23713   23716   23717   23719
   23717   23718   23717   23720   23721   23723   23721   23722
   23721   23724   23725   23727   23725   23726   23725   23728
   23729   23731   23729   23730   23729   23732   23733   23735
   23733   23734   23733   23736   23737   23739   23737   23738
   23737   23740   23741   23743   23741   23742   23741   23744
   23745   23747   23745   23746   23745   23748   23749   23751
   23749   23750   23749   23752   23753   23755   23753   23754
   23753   23756   23757   23759   23757   23758   23757   23760
   23761   23763   23761   23762   23761   23764   23765   23767
   23765   23766   23765   23768   23769   23771   23769   23770
   23769   23772   23773   23775   23773   23774   23773   23776
   23777   23779   23777   23778   23777   23780   23781   23783
   23781   23782   23781   23784   23785   23787   23785   23786
   23785   23788   23789   23791   23789   23790   23789   23792
   23793   23795   23793   23794   23793   23796   23797   23799
   23797   23798   23797   23800   23801   23803   23801   23802
   23801   23804   23805   23807   23805   23806   23805   23808
   23809   23811   23809   23810   23809   23812   23813   23815
   23813   23814   23813   23816   23817   23819   23817   23818
   23817   23820   23821   23823   23821   23822   23821   23824
   23825   23827   23825   23826   23825   23828   23829   23831
   23829   23830   23829   23832   23833   23835   23833   23834
   23833   23836   23837   23839   23837   23838   23837   23840
   23841   23843   23841   23842   23841   23844   23845   23847
   23845   23846   23845   23848   23849   23851   23849   23850
   23849   23852   23853   23855   23853   23854   23853   23856
   23857   23859   23857   23858   23857   23860   23861   23863
   23861   23862   23861   23864   23865   23867   23865   23866
   23865   23868   23869   23871   23869   23870   23869   23872
   23873   23875   23873   23874   23873   23876   23877   23879
   23877   23878   23877   23880   23881   23883   23881   23882
   23881   23884   23885   23887   23885   23886   23885   23888
   23889   23891   23889   23890   23889   23892   23893   23895
   23893   23894   23893   23896   23897   23899   23897   23898
   23897   23900   23901   23903   23901   23902   23901   23904
   23905   23907   23905   23906   23905   23908   23909   23911
   23909   23910   23909   23912   23913   23915   23913   23914
   23913   23916   23917   23919   23917   23918   23917   23920
   23921   23923   23921   23922   23921   23924   23925   23927
   23925   23926   23925   23928   23929   23931   23929   23930
   23929   23932   23933   23935   23933   23934   23933   23936
   23937   23939   23937   23938   23937   23940   23941   23943
   23941   23942   23941   23944   23945   23947   23945   23946
   23945   23948   23949   23951   23949   23950   23949   23952
   23953   23955   23953   23954   23953   23956   23957   23959
   23957   23958   23957   23960   23961   23963   23961   23962
   23961   23964   23965   23967   23965   23966   23965   23968
   23969   23971   23969   23970   23969   23972   23973   23975
   23973   23974   23973   23976   23977   23979   23977   23978
   23977   23980   23981   23983   23981   23982   23981   23984
   23985   23987   23985   23986   23985   23988   23989   23991
   23989   23990   23989   23992   23993   23995   23993   23994
   23993   23996   23997   23999   23997   23998   23997   24000
   24001   24003   24001   24002   24001   24004   24005   24007
   24005   24006   24005   24008   24009   24011   24009   24010
   24009   24012   24013   24015   24013   24014   24013   24016
   24017   24019   24017   24018   24017   24020   24021   24023
   24021   24022   24021   24024   24025   24027   24025   24026
   24025   24028   24029   24031   24029   24030   24029   24032
   24033   24035   24033   24034   24033   24036   24037   24039
   24037   24038   24037   24040   24041   24043   24041   24042
   24041   24044   24045   24047   24045   24046   24045   24048
   24049   24051   24049   24050   24049   24052   24053   24055
   24053   24054   24053   24056   24057   24059   24057   24058
   24057   24060   24061   24063   24061   24062   24061   24064
   24065   24067   24065   24066   24065   24068   24069   24071
   24069   24070   24069   24072   24073   24075   24073   24074
   24073   24076   24077   24079   24077   24078   24077   24080
   24081   24083   24081   24082   24081   24084   24085   24087
   24085   24086   24085   24088   24089   24091   24089   24090
   24089   24092   24093   24095   24093   24094   24093   24096
   24097   24099   24097   24098   24097   24100   24101   24103
   24101   24102   24101   24104   24105   24107   24105   24106
   24105   24108   24109   24111   24109   24110   24109   24112
   24113   24115   24113   24114   24113   24116   24117   24119
   24117   24118   24117   24120   24121   24123   24121   24122
   24121   24124   24125   24127   24125   24126   24125   24128
   24129   24131   24129   24130   24129   24132   24133   24135
   24133   24134   24133   24136   24137   24139   24137   24138
   24137   24140   24141   24143   24141   24142   24141   24144
   24145   24147   24145   24146   24145   24148   24149   24151
   24149   24150   24149   24152   24153   24155   24153   24154
   24153   24156   24157   24159   24157   24158   24157   24160
   24161   24163   24161   24162   24161   24164   24165   24167
   24165   24166   24165   24168   24169   24171   24169   24170
   24169   24172   24173   24175   24173   24174   24173   24176
   24177   24179   24177   24178   24177   24180   24181   24183
   24181   24182   24181   24184   24185   24187   24185   24186
   24185   24188   24189   24191   24189   24190   24189   24192
   24193   24195   24193   24194   24193   24196   24197   24199
   24197   24198   24197   24200   24201   24203   24201   24202
   24201   24204   24205   24207   24205   24206   24205   24208
   24209   24211   24209   24210   24209   24212   24213   24215
   24213   24214   24213   24216   24217   24219   24217   24218
   24217   24220   24221   24223   24221   24222   24221   24224
   24225   24227   24225   24226   24225   24228   24229   24231
   24229   24230   24229   24232   24233   24235   24233   24234
   24233   24236   24237   24239   24237   24238   24237   24240
   24241   24243   24241   24242   24241   24244   24245   24247
   24245   24246   24245   24248   24249   24251   24249   24250
   24249   24252   24253   24255   24253   24254   24253   24256
   24257   24259   24257   24258   24257   24260   24261   24263
   24261   24262   24261   24264   24265   24267   24265   24266
   24265   24268   24269   24271   24269   24270   24269   24272
   24273   24275   24273   24274   24273   24276   24277   24279
   24277   24278   24277   24280   24281   24283   24281   24282
   24281   24284   24285   24287   24285   24286   24285   24288
   24289   24291   24289   24290   24289   24292   24293   24295
   24293   24294   24293   24296   24297   24299   24297   24298
   24297   24300   24301   24303   24301   24302   24301   24304
   24305   24307   24305   24306   24305   24308   24309   24311
   24309   24310   24309   24312   24313   24315   24313   24314
   24313   24316   24317   24319   24317   24318   24317   24320
   24321   24323   24321   24322   24321   24324   24325   24327
   24325   24326   24325   24328   24329   24331   24329   24330
   24329   24332   24333   24335   24333   24334   24333   24336
   24337   24339   24337   24338   24337   24340   24341   24343
   24341   24342   24341   24344   24345   24347   24345   24346
   24345   24348   24349   24351   24349   24350   24349   24352
   24353   24355   24353   24354   24353   24356   24357   24359
   24357   24358   24357   24360   24361   24363   24361   24362
   24361   24364   24365   24367   24365   24366   24365   24368
   24369   24371   24369   24370   24369   24372   24373   24375
   24373   24374   24373   24376   24377   24379   24377   24378
   24377   24380   24381   24383   24381   24382   24381   24384
   24385   24387   24385   24386   24385   24388   24389   24391
   24389   24390   24389   24392   24393   24395   24393   24394
   24393   24396   24397   24399   24397   24398   24397   24400
   24401   24403   24401   24402   24401   24404   24405   24407
   24405   24406   24405   24408   24409   24411   24409   24410
   24409   24412   24413   24415   24413   24414   24413   24416
   24417   24419   24417   24418   24417   24420   24421   24423
   24421   24422   24421   24424   24425   24427   24425   24426
   24425   24428   24429   24431   24429   24430   24429   24432
   24433   24435   24433   24434   24433   24436   24437   24439
   24437   24438   24437   24440   24441   24443   24441   24442
   24441   24444   24445   24447   24445   24446   24445   24448
   24449   24451   24449   24450   24449   24452   24453   24455
   24453   24454   24453   24456   24457   24459   24457   24458
   24457   24460   24461   24463   24461   24462   24461   24464
   24465   24467   24465   24466   24465   24468   24469   24471
   24469   24470   24469   24472   24473   24475   24473   24474
   24473   24476   24477   24479   24477   24478   24477   24480
   24481   24483   24481   24482   24481   24484   24485   24487
   24485   24486   24485   24488   24489   24491   24489   24490
   24489   24492   24493   24495   24493   24494   24493   24496
   24497   24499   24497   24498   24497   24500   24501   24503
   24501   24502   24501   24504   24505   24507   24505   24506
   24505   24508   24509   24511   24509   24510   24509   24512
   24513   24515   24513   24514   24513   24516   24517   24519
   24517   24518   24517   24520   24521   24523   24521   24522
   24521   24524   24525   24527   24525   24526   24525   24528
   24529   24531   24529   24530   24529   24532   24533   24535
   24533   24534   24533   24536   24537   24539   24537   24538
   24537   24540   24541   24543   24541   24542   24541   24544
   24545   24547   24545   24546   24545   24548   24549   24551
   24549   24550   24549   24552   24553   24555   24553   24554
   24553   24556   24557   24559   24557   24558   24557   24560
   24561   24563   24561   24562   24561   24564   24565   24567
   24565   24566   24565   24568   24569   24571   24569   24570
   24569   24572   24573   24575   24573   24574   24573   24576
   24577   24579   24577   24578   24577   24580   24581   24583
   24581   24582   24581   24584   24585   24587   24585   24586
   24585   24588   24589   24591   24589   24590   24589   24592
   24593   24595   24593   24594   24593   24596   24597   24599
   24597   24598   24597   24600   24601   24603   24601   24602
   24601   24604   24605   24607   24605   24606   24605   24608
   24609   24611   24609   24610   24609   24612   24613   24615
   24613   24614   24613   24616   24617   24619   24617   24618
   24617   24620   24621   24623   24621   24622   24621   24624
   24625   24627   24625   24626   24625   24628   24629   24631
   24629   24630   24629   24632   24633   24635   24633   24634
   24633   24636   24637   24639   24637   24638   24637   24640
   24641   24643   24641   24642   24641   24644   24645   24647
   24645   24646   24645   24648   24649   24651   24649   24650
   24649   24652   24653   24655   24653   24654   24653   24656
   24657   24659   24657   24658   24657   24660   24661   24663
   24661   24662   24661   24664   24665   24667   24665   24666
   24665   24668   24669   24671   24669   24670   24669   24672
   24673   24675   24673   24674   24673   24676   24677   24679
   24677   24678   24677   24680   24681   24683   24681   24682
   24681   24684   24685   24687   24685   24686   24685   24688
   24689   24691   24689   24690   24689   24692   24693   24695
   24693   24694   24693   24696   24697   24699   24697   24698
   24697   24700   24701   24703   24701   24702   24701   24704
   24705   24707   24705   24706   24705   24708   24709   24711
   24709   24710   24709   24712   24713   24715   24713   24714
   24713   24716   24717   24719   24717   24718   24717   24720
   24721   24723   24721   24722   24721   24724   24725   24727
   24725   24726   24725   24728   24729   24731   24729   24730
   24729   24732   24733   24735   24733   24734   24733   24736
   24737   24739   24737   24738   24737   24740   24741   24743
   24741   24742   24741   24744   24745   24747   24745   24746
   24745   24748   24749   24751   24749   24750   24749   24752
   24753   24755   24753   24754   24753   24756   24757   24759
   24757   24758   24757   24760   24761   24763   24761   24762
   24761   24764   24765   24767   24765   24766   24765   24768
   24769   24771   24769   24770   24769   24772   24773   24775
   24773   24774   24773   24776   24777   24779   24777   24778
   24777   24780   24781   24783   24781   24782   24781   24784
   24785   24787   24785   24786   24785   24788   24789   24791
   24789   24790   24789   24792   24793   24795   24793   24794
   24793   24796   24797   24799   24797   24798   24797   24800
   24801   24803   24801   24802   24801   24804   24805   24807
   24805   24806   24805   24808   24809   24811   24809   24810
   24809   24812   24813   24815   24813   24814   24813   24816
   24817   24819   24817   24818   24817   24820   24821   24823
   24821   24822   24821   24824   24825   24827   24825   24826
   24825   24828   24829   24831   24829   24830   24829   24832
   24833   24835   24833   24834   24833   24836   24837   24839
   24837   24838   24837   24840   24841   24843   24841   24842
   24841   24844   24845   24847   24845   24846   24845   24848
   24849   24851   24849   24850   24849   24852   24853   24855
   24853   24854   24853   24856   24857   24859   24857   24858
   24857   24860   24861   24863   24861   24862   24861   24864
   24865   24867   24865   24866   24865   24868   24869   24871
   24869   24870   24869   24872   24873   24875   24873   24874
   24873   24876   24877   24879   24877   24878   24877   24880
   24881   24883   24881   24882   24881   24884   24885   24887
   24885   24886   24885   24888   24889   24891   24889   24890
   24889   24892   24893   24895   24893   24894   24893   24896
   24897   24899   24897   24898   24897   24900   24901   24903
   24901   24902   24901   24904   24905   24907   24905   24906
   24905   24908   24909   24911   24909   24910   24909   24912
   24913   24915   24913   24914   24913   24916   24917   24919
   24917   24918   24917   24920   24921   24923   24921   24922
   24921   24924   24925   24927   24925   24926   24925   24928
   24929   24931   24929   24930   24929   24932   24933   24935
   24933   24934   24933   24936   24937   24939   24937   24938
   24937   24940   24941   24943   24941   24942   24941   24944
   24945   24947   24945   24946   24945   24948   24949   24951
   24949   24950   24949   24952   24953   24955   24953   24954
   24953   24956   24957   24959   24957   24958   24957   24960
   24961   24963   24961   24962   24961   24964   24965   24967
   24965   24966   24965   24968   24969   24971   24969   24970
   24969   24972   24973   24975   24973   24974   24973   24976
   24977   24979   24977   24978   24977   24980   24981   24983
   24981   24982   24981   24984   24985   24987   24985   24986
   24985   24988   24989   24991   24989   24990   24989   24992
   24993   24995   24993   24994   24993   24996   24997   24999
   24997   24998   24997   25000   25001   25003   25001   25002
   25001   25004   25005   25007   25005   25006   25005   25008
   25009   25011   25009   25010   25009   25012   25013   25015
   25013   25014   25013   25016   25017   25019   25017   25018
   25017   25020   25021   25023   25021   25022   25021   25024
   25025   25027   25025   25026   25025   25028   25029   25031
   25029   25030   25029   25032   25033   25035   25033   25034
   25033   25036   25037   25039   25037   25038   25037   25040
   25041   25043   25041   25042   25041   25044   25045   25047
   25045   25046   25045   25048   25049   25051   25049   25050
   25049   25052   25053   25055   25053   25054   25053   25056
   25057   25059   25057   25058   25057   25060   25061   25063
   25061   25062   25061   25064   25065   25067   25065   25066
   25065   25068   25069   25071   25069   25070   25069   25072
   25073   25075   25073   25074   25073   25076   25077   25079
   25077   25078   25077   25080   25081   25083   25081   25082
   25081   25084   25085   25087   25085   25086   25085   25088
   25089   25091   25089   25090   25089   25092   25093   25095
   25093   25094   25093   25096   25097   25099   25097   25098
   25097   25100   25101   25103   25101   25102   25101   25104
   25105   25107   25105   25106   25105   25108   25109   25111
   25109   25110   25109   25112   25113   25115   25113   25114
   25113   25116   25117   25119   25117   25118   25117   25120
   25121   25123   25121   25122   25121   25124   25125   25127
   25125   25126   25125   25128   25129   25131   25129   25130
   25129   25132   25133   25135   25133   25134   25133   25136
   25137   25139   25137   25138   25137   25140   25141   25143
   25141   25142   25141   25144   25145   25147   25145   25146
   25145   25148   25149   25151   25149   25150   25149   25152
   25153   25155   25153   25154   25153   25156   25157   25159
   25157   25158   25157   25160   25161   25163   25161   25162
   25161   25164   25165   25167   25165   25166   25165   25168
   25169   25171   25169   25170   25169   25172   25173   25175
   25173   25174   25173   25176   25177   25179   25177   25178
   25177   25180   25181   25183   25181   25182   25181   25184
   25185   25187   25185   25186   25185   25188   25189   25191
   25189   25190   25189   25192   25193   25195   25193   25194
   25193   25196   25197   25199   25197   25198   25197   25200
   25201   25203   25201   25202   25201   25204   25205   25207
   25205   25206   25205   25208   25209   25211   25209   25210
   25209   25212   25213   25215   25213   25214   25213   25216
   25217   25219   25217   25218   25217   25220   25221   25223
   25221   25222   25221   25224   25225   25227   25225   25226
   25225   25228   25229   25231   25229   25230   25229   25232
   25233   25235   25233   25234   25233   25236   25237   25239
   25237   25238   25237   25240   25241   25243   25241   25242
   25241   25244   25245   25247   25245   25246   25245   25248
   25249   25251   25249   25250   25249   25252   25253   25255
   25253   25254   25253   25256   25257   25259   25257   25258
   25257   25260   25261   25263   25261   25262   25261   25264
   25265   25267   25265   25266   25265   25268   25269   25271
   25269   25270   25269   25272   25273   25275   25273   25274
   25273   25276   25277   25279   25277   25278   25277   25280
   25281   25283   25281   25282   25281   25284   25285   25287
   25285   25286   25285   25288   25289   25291   25289   25290
   25289   25292   25293   25295   25293   25294   25293   25296
   25297   25299   25297   25298   25297   25300   25301   25303
   25301   25302   25301   25304   25305   25307   25305   25306
   25305   25308   25309   25311   25309   25310   25309   25312
   25313   25315   25313   25314   25313   25316   25317   25319
   25317   25318   25317   25320   25321   25323   25321   25322
   25321   25324   25325   25327   25325   25326   25325   25328
   25329   25331   25329   25330   25329   25332   25333   25335
   25333   25334   25333   25336   25337   25339   25337   25338
   25337   25340   25341   25343   25341   25342   25341   25344
   25345   25347   25345   25346   25345   25348   25349   25351
   25349   25350   25349   25352   25353   25355   25353   25354
   25353   25356   25357   25359   25357   25358   25357   25360
   25361   25363   25361   25362   25361   25364   25365   25367
   25365   25366   25365   25368   25369   25371   25369   25370
   25369   25372   25373   25375   25373   25374   25373   25376
   25377   25379   25377   25378   25377   25380   25381   25383
   25381   25382   25381   25384   25385   25387   25385   25386
   25385   25388   25389   25391   25389   25390   25389   25392
   25393   25395   25393   25394   25393   25396   25397   25399
   25397   25398   25397   25400   25401   25403   25401   25402
   25401   25404   25405   25407   25405   25406   25405   25408
   25409   25411   25409   25410   25409   25412   25413   25415
   25413   25414   25413   25416   25417   25419   25417   25418
   25417   25420   25421   25423   25421   25422   25421   25424
   25425   25427   25425   25426   25425   25428   25429   25431
   25429   25430   25429   25432   25433   25435   25433   25434
   25433   25436   25437   25439   25437   25438   25437   25440
   25441   25443   25441   25442   25441   25444   25445   25447
   25445   25446   25445   25448   25449   25451   25449   25450
   25449   25452   25453   25455   25453   25454   25453   25456
   25457   25459   25457   25458   25457   25460   25461   25463
   25461   25462   25461   25464   25465   25467   25465   25466
   25465   25468   25469   25471   25469   25470   25469   25472
   25473   25475   25473   25474   25473   25476   25477   25479
   25477   25478   25477   25480   25481   25483   25481   25482
   25481   25484   25485   25487   25485   25486   25485   25488
   25489   25491   25489   25490   25489   25492   25493   25495
   25493   25494   25493   25496   25497   25499   25497   25498
   25497   25500   25501   25503   25501   25502   25501   25504
   25505   25507   25505   25506   25505   25508   25509   25511
   25509   25510   25509   25512   25513   25515   25513   25514
   25513   25516   25517   25519   25517   25518   25517   25520
   25521   25523   25521   25522   25521   25524   25525   25527
   25525   25526   25525   25528   25529   25531   25529   25530
   25529   25532   25533   25535   25533   25534   25533   25536
   25537   25539   25537   25538   25537   25540   25541   25543
   25541   25542   25541   25544   25545   25547   25545   25546
   25545   25548   25549   25551   25549   25550   25549   25552
   25553   25555   25553   25554   25553   25556   25557   25559
   25557   25558   25557   25560   25561   25563   25561   25562
   25561   25564   25565   25567   25565   25566   25565   25568
   25569   25571   25569   25570   25569   25572   25573   25575
   25573   25574   25573   25576   25577   25579   25577   25578
   25577   25580   25581   25583   25581   25582   25581   25584
   25585   25587   25585   25586   25585   25588   25589   25591
   25589   25590   25589   25592   25593   25595   25593   25594
   25593   25596   25597   25599   25597   25598   25597   25600
   25601   25603   25601   25602   25601   25604   25605   25607
   25605   25606   25605   25608   25609   25611   25609   25610
   25609   25612   25613   25615   25613   25614   25613   25616
   25617   25619   25617   25618   25617   25620   25621   25623
   25621   25622   25621   25624   25625   25627   25625   25626
   25625   25628   25629   25631   25629   25630   25629   25632
   25633   25635   25633   25634   25633   25636   25637   25639
   25637   25638   25637   25640   25641   25643   25641   25642
   25641   25644   25645   25647   25645   25646   25645   25648
   25649   25651   25649   25650   25649   25652   25653   25655
   25653   25654   25653   25656   25657   25659   25657   25658
   25657   25660   25661   25663   25661   25662   25661   25664
   25665   25667   25665   25666   25665   25668   25669   25671
   25669   25670   25669   25672   25673   25675   25673   25674
   25673   25676   25677   25679   25677   25678   25677   25680
   25681   25683   25681   25682   25681   25684   25685   25687
   25685   25686   25685   25688   25689   25691   25689   25690
   25689   25692   25693   25695   25693   25694   25693   25696
   25697   25699   25697   25698   25697   25700   25701   25703
   25701   25702   25701   25704   25705   25707   25705   25706
   25705   25708   25709   25711   25709   25710   25709   25712
   25713   25715   25713   25714   25713   25716   25717   25719
   25717   25718   25717   25720   25721   25723   25721   25722
   25721   25724   25725   25727   25725   25726   25725   25728
   25729   25731   25729   25730   25729   25732   25733   25735
   25733   25734   25733   25736   25737   25739   25737   25738
   25737   25740   25741   25743   25741   25742   25741   25744
   25745   25747   25745   25746   25745   25748   25749   25751
   25749   25750   25749   25752   25753   25755   25753   25754
   25753   25756   25757   25759   25757   25758   25757   25760
   25761   25763   25761   25762   25761   25764   25765   25767
   25765   25766   25765   25768   25769   25771   25769   25770
   25769   25772   25773   25775   25773   25774   25773   25776
   25777   25779   25777   25778   25777   25780   25781   25783
   25781   25782   25781   25784   25785   25787   25785   25786
   25785   25788   25789   25791   25789   25790   25789   25792
   25793   25795   25793   25794   25793   25796   25797   25799
   25797   25798   25797   25800   25801   25803   25801   25802
   25801   25804   25805   25807   25805   25806   25805   25808
   25809   25811   25809   25810   25809   25812   25813   25815
   25813   25814   25813   25816   25817   25819   25817   25818
   25817   25820   25821   25823   25821   25822   25821   25824
   25825   25827   25825   25826   25825   25828   25829   25831
   25829   25830   25829   25832   25833   25835   25833   25834
   25833   25836   25837   25839   25837   25838   25837   25840
   25841   25843   25841   25842   25841   25844   25845   25847
   25845   25846   25845   25848   25849   25851   25849   25850
   25849   25852   25853   25855   25853   25854   25853   25856
   25857   25859   25857   25858   25857   25860   25861   25863
   25861   25862   25861   25864   25865   25867   25865   25866
   25865   25868   25869   25871   25869   25870   25869   25872
   25873   25875   25873   25874   25873   25876   25877   25879
   25877   25878   25877   25880   25881   25883   25881   25882
   25881   25884   25885   25887   25885   25886   25885   25888
   25889   25891   25889   25890   25889   25892   25893   25895
   25893   25894   25893   25896   25897   25899   25897   25898
   25897   25900   25901   25903   25901   25902   25901   25904
   25905   25907   25905   25906   25905   25908   25909   25911
   25909   25910   25909   25912   25913   25915   25913   25914
   25913   25916   25917   25919   25917   25918   25917   25920
   25921   25923   25921   25922   25921   25924   25925   25927
   25925   25926   25925   25928   25929   25931   25929   25930
   25929   25932   25933   25935   25933   25934   25933   25936
   25937   25939   25937   25938   25937   25940   25941   25943
   25941   25942   25941   25944   25945   25947   25945   25946
   25945   25948   25949   25951   25949   25950   25949   25952
   25953   25955   25953   25954   25953   25956   25957   25959
   25957   25958   25957   25960   25961   25963   25961   25962
   25961   25964   25965   25967   25965   25966   25965   25968
   25969   25971   25969   25970   25969   25972   25973   25975
   25973   25974   25973   25976   25977   25979   25977   25978
   25977   25980   25981   25983   25981   25982   25981   25984
   25985   25987   25985   25986   25985   25988   25989   25991
   25989   25990   25989   25992   25993   25995   25993   25994
   25993   25996   25997   25999   25997   25998   25997   26000
   26001   26003   26001   26002   26001   26004   26005   26007
   26005   26006   26005   26008   26009   26011   26009   26010
   26009   26012   26013   26015   26013   26014   26013   26016
   26017   26019   26017   26018   26017   26020   26021   26023
   26021   26022   26021   26024   26025   26027   26025   26026
   26025   26028   26029   26031   26029   26030   26029   26032
   26033   26035   26033   26034   26033   26036   26037   26039
   26037   26038   26037   26040   26041   26043   26041   26042
   26041   26044   26045   26047   26045   26046   26045   26048
   26049   26051   26049   26050   26049   26052   26053   26055
   26053   26054   26053   26056   26057   26059   26057   26058
   26057   26060   26061   26063   26061   26062   26061   26064
   26065   26067   26065   26066   26065   26068   26069   26071
   26069   26070   26069   26072   26073   26075   26073   26074
   26073   26076   26077   26079   26077   26078   26077   26080
   26081   26083   26081   26082   26081   26084   26085   26087
   26085   26086   26085   26088   26089   26091   26089   26090
   26089   26092   26093   26095   26093   26094   26093   26096
   26097   26099   26097   26098   26097   26100   26101   26103
   26101   26102   26101   26104   26105   26107   26105   26106
   26105   26108   26109   26111   26109   26110   26109   26112
   26113   26115   26113   26114   26113   26116   26117   26119
   26117   26118   26117   26120   26121   26123   26121   26122
   26121   26124   26125   26127   26125   26126   26125   26128
   26129   26131   26129   26130   26129   26132   26133   26135
   26133   26134   26133   26136   26137   26139   26137   26138
   26137   26140   26141   26143   26141   26142   26141   26144
   26145   26147   26145   26146   26145   26148   26149   26151
   26149   26150   26149   26152   26153   26155   26153   26154
   26153   26156   26157   26159   26157   26158   26157   26160
   26161   26163   26161   26162   26161   26164   26165   26167
   26165   26166   26165   26168   26169   26171   26169   26170
   26169   26172   26173   26175   26173   26174   26173   26176
   26177   26179   26177   26178   26177   26180   26181   26183
   26181   26182   26181   26184   26185   26187   26185   26186
   26185   26188   26189   26191   26189   26190   26189   26192
   26193   26195   26193   26194   26193   26196   26197   26199
   26197   26198   26197   26200   26201   26203   26201   26202
   26201   26204   26205   26207   26205   26206   26205   26208
   26209   26211   26209   26210   26209   26212   26213   26215
   26213   26214   26213   26216   26217   26219   26217   26218
   26217   26220   26221   26223   26221   26222   26221   26224
   26225   26227   26225   26226   26225   26228   26229   26231
   26229   26230   26229   26232   26233   26235   26233   26234
   26233   26236   26237   26239   26237   26238   26237   26240
   26241   26243   26241   26242   26241   26244   26245   26247
   26245   26246   26245   26248   26249   26251   26249   26250
   26249   26252   26253   26255   26253   26254   26253   26256
   26257   26259   26257   26258   26257   26260   26261   26263
   26261   26262   26261   26264   26265   26267   26265   26266
   26265   26268   26269   26271   26269   26270   26269   26272
   26273   26275   26273   26274   26273   26276   26277   26279
   26277   26278   26277   26280   26281   26283   26281   26282
   26281   26284   26285   26287   26285   26286   26285   26288
   26289   26291   26289   26290   26289   26292   26293   26295
   26293   26294   26293   26296   26297   26299   26297   26298
   26297   26300   26301   26303   26301   26302   26301   26304
   26305   26307   26305   26306   26305   26308   26309   26311
   26309   26310   26309   26312   26313   26315   26313   26314
   26313   26316   26317   26319   26317   26318   26317   26320
   26321   26323   26321   26322   26321   26324   26325   26327
   26325   26326   26325   26328   26329   26331   26329   26330
   26329   26332   26333   26335   26333   26334   26333   26336
   26337   26339   26337   26338   26337   26340   26341   26343
   26341   26342   26341   26344   26345   26347   26345   26346
   26345   26348   26349   26351   26349   26350   26349   26352
   26353   26355   26353   26354   26353   26356   26357   26359
   26357   26358   26357   26360   26361   26363   26361   26362
   26361   26364   26365   26367   26365   26366   26365   26368
   26369   26371   26369   26370   26369   26372   26373   26375
   26373   26374   26373   26376   26377   26379   26377   26378
   26377   26380   26381   26383   26381   26382   26381   26384
   26385   26387   26385   26386   26385   26388   26389   26391
   26389   26390   26389   26392   26393   26395   26393   26394
   26393   26396   26397   26399   26397   26398   26397   26400
   26401   26403   26401   26402   26401   26404   26405   26407
   26405   26406   26405   26408   26409   26411   26409   26410
   26409   26412   26413   26415   26413   26414   26413   26416
   26417   26419   26417   26418   26417   26420   26421   26423
   26421   26422   26421   26424   26425   26427   26425   26426
   26425   26428   26429   26431   26429   26430   26429   26432
   26433   26435   26433   26434   26433   26436   26437   26439
   26437   26438   26437   26440   26441   26443   26441   26442
   26441   26444   26445   26447   26445   26446   26445   26448
   26449   26451   26449   26450   26449   26452   26453   26455
   26453   26454   26453   26456   26457   26459   26457   26458
   26457   26460   26461   26463   26461   26462   26461   26464
   26465   26467   26465   26466   26465   26468   26469   26471
   26469   26470   26469   26472   26473   26475   26473   26474
   26473   26476   26477   26479   26477   26478   26477   26480
   26481   26483   26481   26482   26481   26484   26485   26487
   26485   26486   26485   26488   26489   26491   26489   26490
   26489   26492   26493   26495   26493   26494   26493   26496
   26497   26499   26497   26498   26497   26500   26501   26503
   26501   26502   26501   26504   26505   26507   26505   26506
   26505   26508   26509   26511   26509   26510   26509   26512
   26513   26515   26513   26514   26513   26516   26517   26519
   26517   26518   26517   26520   26521   26523   26521   26522
   26521   26524   26525   26527   26525   26526   26525   26528
   26529   26531   26529   26530   26529   26532   26533   26535
   26533   26534   26533   26536   26537   26539   26537   26538
   26537   26540   26541   26543   26541   26542   26541   26544
   26545   26547   26545   26546   26545   26548   26549   26551
   26549   26550   26549   26552   26553   26555   26553   26554
   26553   26556   26557   26559   26557   26558   26557   26560
   26561   26563   26561   26562   26561   26564   26565   26567
   26565   26566   26565   26568   26569   26571   26569   26570
   26569   26572   26573   26575   26573   26574   26573   26576
   26577   26579   26577   26578   26577   26580   26581   26583
   26581   26582   26581   26584   26585   26587   26585   26586
   26585   26588   26589   26591   26589   26590   26589   26592
   26593   26595   26593   26594   26593   26596   26597   26599
   26597   26598   26597   26600   26601   26603   26601   26602
   26601   26604   26605   26607   26605   26606   26605   26608
   26609   26611   26609   26610   26609   26612   26613   26615
   26613   26614   26613   26616   26617   26619   26617   26618
   26617   26620   26621   26623   26621   26622   26621   26624
   26625   26627   26625   26626   26625   26628   26629   26631
   26629   26630   26629   26632   26633   26635   26633   26634
   26633   26636   26637   26639   26637   26638   26637   26640
   26641   26643   26641   26642   26641   26644   26645   26647
   26645   26646   26645   26648   26649   26651   26649   26650
   26649   26652   26653   26655   26653   26654   26653   26656
   26657   26659   26657   26658   26657   26660   26661   26663
   26661   26662   26661   26664   26665   26667   26665   26666
   26665   26668   26669   26671   26669   26670   26669   26672
   26673   26675   26673   26674   26673   26676   26677   26679
   26677   26678   26677   26680   26681   26683   26681   26682
   26681   26684   26685   26687   26685   26686   26685   26688
   26689   26691   26689   26690   26689   26692   26693   26695
   26693   26694   26693   26696   26697   26699   26697   26698
   26697   26700   26701   26703   26701   26702   26701   26704
   26705   26707   26705   26706   26705   26708   26709   26711
   26709   26710   26709   26712   26713   26715   26713   26714
   26713   26716   26717   26719   26717   26718   26717   26720
   26721   26723   26721   26722   26721   26724   26725   26727
   26725   26726   26725   26728   26729   26731   26729   26730
   26729   26732   26733   26735   26733   26734   26733   26736
   26737   26739   26737   26738   26737   26740   26741   26743
   26741   26742   26741   26744   26745   26747   26745   26746
   26745   26748   26749   26751   26749   26750   26749   26752
   26753   26755   26753   26754   26753   26756   26757   26759
   26757   26758   26757   26760   26761   26763   26761   26762
   26761   26764   26765   26767   26765   26766   26765   26768
   26769   26771   26769   26770   26769   26772   26773   26775
   26773   26774   26773   26776   26777   26779   26777   26778
   26777   26780   26781   26783   26781   26782   26781   26784
   26785   26787   26785   26786   26785   26788   26789   26791
   26789   26790   26789   26792   26793   26795   26793   26794
   26793   26796   26797   26799   26797   26798   26797   26800
   26801   26803   26801   26802   26801   26804   26805   26807
   26805   26806   26805   26808   26809   26811   26809   26810
   26809   26812   26813   26815   26813   26814   26813   26816
   26817   26819   26817   26818   26817   26820   26821   26823
   26821   26822   26821   26824   26825   26827   26825   26826
   26825   26828   26829   26831   26829   26830   26829   26832
   26833   26835   26833   26834   26833   26836   26837   26839
   26837   26838   26837   26840   26841   26843   26841   26842
   26841   26844   26845   26847   26845   26846   26845   26848
   26849   26851   26849   26850   26849   26852   26853   26855
   26853   26854   26853   26856   26857   26859   26857   26858
   26857   26860   26861   26863   26861   26862   26861   26864
   26865   26867   26865   26866   26865   26868   26869   26871
   26869   26870   26869   26872   26873   26875   26873   26874
   26873   26876   26877   26879   26877   26878   26877   26880
   26881   26883   26881   26882   26881   26884   26885   26887
   26885   26886   26885   26888   26889   26891   26889   26890
   26889   26892   26893   26895   26893   26894   26893   26896
   26897   26899   26897   26898   26897   26900   26901   26903
   26901   26902   26901   26904   26905   26907   26905   26906
   26905   26908   26909   26911   26909   26910   26909   26912
   26913   26915   26913   26914   26913   26916   26917   26919
   26917   26918   26917   26920   26921   26923   26921   26922
   26921   26924   26925   26927   26925   26926   26925   26928
   26929   26931   26929   26930   26929   26932   26933   26935
   26933   26934   26933   26936   26937   26939   26937   26938
   26937   26940   26941   26943   26941   26942   26941   26944
   26945   26947   26945   26946   26945   26948   26949   26951
   26949   26950   26949   26952   26953   26955   26953   26954
   26953   26956   26957   26959   26957   26958   26957   26960
   26961   26963   26961   26962   26961   26964   26965   26967
   26965   26966   26965   26968   26969   26971   26969   26970
   26969   26972   26973   26975   26973   26974   26973   26976
   26977   26979   26977   26978   26977   26980   26981   26983
   26981   26982   26981   26984   26985   26987   26985   26986
   26985   26988   26989   26991   26989   26990   26989   26992
   26993   26995   26993   26994   26993   26996   26997   26999
   26997   26998   26997   27000   27001   27003   27001   27002
   27001   27004   27005   27007   27005   27006   27005   27008
   27009   27011   27009   27010   27009   27012   27013   27015
   27013   27014   27013   27016   27017   27019   27017   27018
   27017   27020   27021   27023   27021   27022   27021   27024
   27025   27027   27025   27026   27025   27028   27029   27031
   27029   27030   27029   27032   27033   27035   27033   27034
   27033   27036   27037   27039   27037   27038   27037   27040
   27041   27043   27041   27042   27041   27044   27045   27047
   27045   27046   27045   27048   27049   27051   27049   27050
   27049   27052   27053   27055   27053   27054   27053   27056
   27057   27059   27057   27058   27057   27060   27061   27063
   27061   27062   27061   27064   27065   27067   27065   27066
   27065   27068   27069   27071   27069   27070   27069   27072
   27073   27075   27073   27074   27073   27076   27077   27079
   27077   27078   27077   27080   27081   27083   27081   27082
   27081   27084   27085   27087   27085   27086   27085   27088
   27089   27091   27089   27090   27089   27092   27093   27095
   27093   27094   27093   27096   27097   27099   27097   27098
   27097   27100   27101   27103   27101   27102   27101   27104
   27105   27107   27105   27106   27105   27108   27109   27111
   27109   27110   27109   27112   27113   27115   27113   27114
   27113   27116   27117   27119   27117   27118   27117   27120
   27121   27123   27121   27122   27121   27124   27125   27127
   27125   27126   27125   27128   27129   27131   27129   27130
   27129   27132   27133   27135   27133   27134   27133   27136
   27137   27139   27137   27138   27137   27140   27141   27143
   27141   27142   27141   27144   27145   27147   27145   27146
   27145   27148   27149   27151   27149   27150   27149   27152
   27153   27155   27153   27154   27153   27156   27157   27159
   27157   27158   27157   27160   27161   27163   27161   27162
   27161   27164   27165   27167   27165   27166   27165   27168
   27169   27171   27169   27170   27169   27172   27173   27175
   27173   27174   27173   27176   27177   27179   27177   27178
   27177   27180   27181   27183   27181   27182   27181   27184
   27185   27187   27185   27186   27185   27188   27189   27191
   27189   27190   27189   27192   27193   27195   27193   27194
   27193   27196   27197   27199   27197   27198   27197   27200
   27201   27203   27201   27202   27201   27204   27205   27207
   27205   27206   27205   27208   27209   27211   27209   27210
   27209   27212   27213   27215   27213   27214   27213   27216
   27217   27219   27217   27218   27217   27220   27221   27223
   27221   27222   27221   27224   27225   27227   27225   27226
   27225   27228   27229   27231   27229   27230   27229   27232
   27233   27235   27233   27234   27233   27236   27237   27239
   27237   27238   27237   27240   27241   27243   27241   27242
   27241   27244   27245   27247   27245   27246   27245   27248
   27249   27251   27249   27250   27249   27252   27253   27255
   27253   27254   27253   27256   27257   27259   27257   27258
   27257   27260   27261   27263   27261   27262   27261   27264
   27265   27267   27265   27266   27265   27268   27269   27271
   27269   27270   27269   27272   27273   27275   27273   27274
   27273   27276   27277   27279   27277   27278   27277   27280
   27281   27283   27281   27282   27281   27284   27285   27287
   27285   27286   27285   27288   27289   27291   27289   27290
   27289   27292   27293   27295   27293   27294   27293   27296
   27297   27299   27297   27298   27297   27300   27301   27303
   27301   27302   27301   27304   27305   27307   27305   27306
   27305   27308   27309   27311   27309   27310   27309   27312
   27313   27315   27313   27314   27313   27316   27317   27319
   27317   27318   27317   27320   27321   27323   27321   27322
   27321   27324   27325   27327   27325   27326   27325   27328
   27329   27331   27329   27330   27329   27332   27333   27335
   27333   27334   27333   27336   27337   27339   27337   27338
   27337   27340   27341   27343   27341   27342   27341   27344
   27345   27347   27345   27346   27345   27348   27349   27351
   27349   27350   27349   27352   27353   27355   27353   27354
   27353   27356   27357   27359   27357   27358   27357   27360
   27361   27363   27361   27362   27361   27364   27365   27367
   27365   27366   27365   27368   27369   27371   27369   27370
   27369   27372   27373   27375   27373   27374   27373   27376
   27377   27379   27377   27378   27377   27380   27381   27383
   27381   27382   27381   27384   27385   27387   27385   27386
   27385   27388   27389   27391   27389   27390   27389   27392
   27393   27395   27393   27394   27393   27396   27397   27399
   27397   27398   27397   27400   27401   27403   27401   27402
   27401   27404   27405   27407   27405   27406   27405   27408
   27409   27411   27409   27410   27409   27412   27413   27415
   27413   27414   27413   27416   27417   27419   27417   27418
   27417   27420   27421   27423   27421   27422   27421   27424
   27425   27427   27425   27426   27425   27428   27429   27431
   27429   27430   27429   27432   27433   27435   27433   27434
   27433   27436   27437   27439   27437   27438   27437   27440
   27441   27443   27441   27442   27441   27444   27445   27447
   27445   27446   27445   27448   27449   27451   27449   27450
   27449   27452   27453   27455   27453   27454   27453   27456
   27457   27459   27457   27458   27457   27460   27461   27463
   27461   27462   27461   27464   27465   27467   27465   27466
   27465   27468   27469   27471   27469   27470   27469   27472
   27473   27475   27473   27474   27473   27476   27477   27479
   27477   27478   27477   27480   27481   27483   27481   27482
   27481   27484   27485   27487   27485   27486   27485   27488
   27489   27491   27489   27490   27489   27492   27493   27495
   27493   27494   27493   27496   27497   27499   27497   27498
   27497   27500   27501   27503   27501   27502   27501   27504
   27505   27507   27505   27506   27505   27508   27509   27511
   27509   27510   27509   27512   27513   27515   27513   27514
   27513   27516   27517   27519   27517   27518   27517   27520
   27521   27523   27521   27522   27521   27524   27525   27527
   27525   27526   27525   27528   27529   27531   27529   27530
   27529   27532   27533   27535   27533   27534   27533   27536
   27537   27539   27537   27538   27537   27540   27541   27543
   27541   27542   27541   27544   27545   27547   27545   27546
   27545   27548   27549   27551   27549   27550   27549   27552
   27553   27555   27553   27554   27553   27556   27557   27559
   27557   27558   27557   27560   27561   27563   27561   27562
   27561   27564   27565   27567   27565   27566   27565   27568
   27569   27571   27569   27570   27569   27572   27573   27575
   27573   27574   27573   27576   27577   27579   27577   27578
   27577   27580   27581   27583   27581   27582   27581   27584
   27585   27587   27585   27586   27585   27588   27589   27591
   27589   27590   27589   27592   27593   27595   27593   27594
   27593   27596   27597   27599   27597   27598   27597   27600
   27601   27603   27601   27602   27601   27604   27605   27607
   27605   27606   27605   27608   27609   27611   27609   27610
   27609   27612   27613   27615   27613   27614   27613   27616
   27617   27619   27617   27618   27617   27620   27621   27623
   27621   27622   27621   27624   27625   27627   27625   27626
   27625   27628   27629   27631   27629   27630   27629   27632
   27633   27635   27633   27634   27633   27636   27637   27639
   27637   27638   27637   27640   27641   27643   27641   27642
   27641   27644   27645   27647   27645   27646   27645   27648
   27649   27651   27649   27650   27649   27652   27653   27655
   27653   27654   27653   27656   27657   27659   27657   27658
   27657   27660   27661   27663   27661   27662   27661   27664
   27665   27667   27665   27666   27665   27668   27669   27671
   27669   27670   27669   27672   27673   27675   27673   27674
   27673   27676   27677   27679   27677   27678   27677   27680
   27681   27683   27681   27682   27681   27684   27685   27687
   27685   27686   27685   27688   27689   27691   27689   27690
   27689   27692   27693   27695   27693   27694   27693   27696
   27697   27699   27697   27698   27697   27700   27701   27703
   27701   27702   27701   27704   27705   27707   27705   27706
   27705   27708   27709   27711   27709   27710   27709   27712
   27713   27715   27713   27714   27713   27716   27717   27719
   27717   27718   27717   27720   27721   27723   27721   27722
   27721   27724   27725   27727   27725   27726   27725   27728
   27729   27731   27729   27730   27729   27732   27733   27735
   27733   27734   27733   27736   27737   27739   27737   27738
   27737   27740   27741   27743   27741   27742   27741   27744
   27745   27747   27745   27746   27745   27748   27749   27751
   27749   27750   27749   27752   27753   27755   27753   27754
   27753   27756   27757   27759   27757   27758   27757   27760
   27761   27763   27761   27762   27761   27764   27765   27767
   27765   27766   27765   27768   27769   27771   27769   27770
   27769   27772   27773   27775   27773   27774   27773   27776
   27777   27779   27777   27778   27777   27780   27781   27783
   27781   27782   27781   27784   27785   27787   27785   27786
   27785   27788   27789   27791   27789   27790   27789   27792
   27793   27795   27793   27794   27793   27796   27797   27799
   27797   27798   27797   27800   27801   27803   27801   27802
   27801   27804   27805   27807   27805   27806   27805   27808
   27809   27811   27809   27810   27809   27812   27813   27815
   27813   27814   27813   27816   27817   27819   27817   27818
   27817   27820   27821   27823   27821   27822   27821   27824
   27825   27827   27825   27826   27825   27828   27829   27831
   27829   27830   27829   27832   27833   27835   27833   27834
   27833   27836   27837   27839   27837   27838   27837   27840
   27841   27843   27841   27842   27841   27844   27845   27847
   27845   27846   27845   27848   27849   27851   27849   27850
   27849   27852   27853   27855   27853   27854   27853   27856
   27857   27859   27857   27858   27857   27860   27861   27863
   27861   27862   27861   27864   27865   27867   27865   27866
   27865   27868   27869   27871   27869   27870   27869   27872
   27873   27875   27873   27874   27873   27876   27877   27879
   27877   27878   27877   27880   27881   27883   27881   27882
   27881   27884   27885   27887   27885   27886   27885   27888
   27889   27891   27889   27890   27889   27892   27893   27895
   27893   27894   27893   27896   27897   27899   27897   27898
   27897   27900   27901   27903   27901   27902   27901   27904
   27905   27907   27905   27906   27905   27908   27909   27911
   27909   27910   27909   27912   27913   27915   27913   27914
   27913   27916   27917   27919   27917   27918   27917   27920
   27921   27923   27921   27922   27921   27924   27925   27927
   27925   27926   27925   27928   27929   27931   27929   27930
   27929   27932   27933   27935   27933   27934   27933   27936
   27937   27939   27937   27938   27937   27940   27941   27943
   27941   27942   27941   27944   27945   27947   27945   27946
   27945   27948   27949   27951   27949   27950   27949   27952
   27953   27955   27953   27954   27953   27956   27957   27959
   27957   27958   27957   27960   27961   27963   27961   27962
   27961   27964   27965   27967   27965   27966   27965   27968
   27969   27971   27969   27970   27969   27972   27973   27975
   27973   27974   27973   27976   27977   27979   27977   27978
   27977   27980   27981   27983   27981   27982   27981   27984
   27985   27987   27985   27986   27985   27988   27989   27991
   27989   27990   27989   27992   27993   27995   27993   27994
   27993   27996   27997   27999   27997   27998   27997   28000
   28001   28003   28001   28002   28001   28004   28005   28007
   28005   28006   28005   28008   28009   28011   28009   28010
   28009   28012   28013   28015   28013   28014   28013   28016
   28017   28019   28017   28018   28017   28020   28021   28023
   28021   28022   28021   28024   28025   28027   28025   28026
   28025   28028   28029   28031   28029   28030   28029   28032
   28033   28035   28033   28034   28033   28036   28037   28039
   28037   28038   28037   28040   28041   28043   28041   28042
   28041   28044   28045   28047   28045   28046   28045   28048
   28049   28051   28049   28050   28049   28052   28053   28055
   28053   28054   28053   28056   28057   28059   28057   28058
   28057   28060   28061   28063   28061   28062   28061   28064
   28065   28067   28065   28066   28065   28068   28069   28071
   28069   28070   28069   28072   28073   28075   28073   28074
   28073   28076   28077   28079   28077   28078   28077   28080
   28081   28083   28081   28082   28081   28084   28085   28087
   28085   28086   28085   28088   28089   28091   28089   28090
   28089   28092   28093   28095   28093   28094   28093   28096
   28097   28099   28097   28098   28097   28100   28101   28103
   28101   28102   28101   28104   28105   28107   28105   28106
   28105   28108   28109   28111   28109   28110   28109   28112
   28113   28115   28113   28114   28113   28116   28117   28119
   28117   28118   28117   28120   28121   28123   28121   28122
   28121   28124   28125   28127   28125   28126   28125   28128
   28129   28131   28129   28130   28129   28132   28133   28135
   28133   28134   28133   28136   28137   28139   28137   28138
   28137   28140   28141   28143   28141   28142   28141   28144
   28145   28147   28145   28146   28145   28148   28149   28151
   28149   28150   28149   28152   28153   28155   28153   28154
   28153   28156   28157   28159   28157   28158   28157   28160
   28161   28163   28161   28162   28161   28164   28165   28167
   28165   28166   28165   28168   28169   28171   28169   28170
   28169   28172   28173   28175   28173   28174   28173   28176
   28177   28179   28177   28178   28177   28180   28181   28183
   28181   28182   28181   28184   28185   28187   28185   28186
   28185   28188   28189   28191   28189   28190   28189   28192
   28193   28195   28193   28194   28193   28196   28197   28199
   28197   28198   28197   28200   28201   28203   28201   28202
   28201   28204   28205   28207   28205   28206   28205   28208
   28209   28211   28209   28210   28209   28212   28213   28215
   28213   28214   28213   28216   28217   28219   28217   28218
   28217   28220   28221   28223   28221   28222   28221   28224
   28225   28227   28225   28226   28225   28228   28229   28231
   28229   28230   28229   28232   28233   28235   28233   28234
   28233   28236   28237   28239   28237   28238   28237   28240
   28241   28243   28241   28242   28241   28244   28245   28247
   28245   28246   28245   28248   28249   28251   28249   28250
   28249   28252   28253   28255   28253   28254   28253   28256
   28257   28259   28257   28258   28257   28260   28261   28263
   28261   28262   28261   28264   28265   28267   28265   28266
   28265   28268   28269   28271   28269   28270   28269   28272
   28273   28275   28273   28274   28273   28276   28277   28279
   28277   28278   28277   28280   28281   28283   28281   28282
   28281   28284   28285   28287   28285   28286   28285   28288
   28289   28291   28289   28290   28289   28292   28293   28295
   28293   28294   28293   28296   28297   28299   28297   28298
   28297   28300   28301   28303   28301   28302   28301   28304
   28305   28307   28305   28306   28305   28308   28309   28311
   28309   28310   28309   28312   28313   28315   28313   28314
   28313   28316   28317   28319   28317   28318   28317   28320
   28321   28323   28321   28322   28321   28324   28325   28327
   28325   28326   28325   28328   28329   28331   28329   28330
   28329   28332   28333   28335   28333   28334   28333   28336
   28337   28339   28337   28338   28337   28340   28341   28343
   28341   28342   28341   28344   28345   28347   28345   28346
   28345   28348   28349   28351   28349   28350   28349   28352
   28353   28355   28353   28354   28353   28356   28357   28359
   28357   28358   28357   28360   28361   28363   28361   28362
   28361   28364   28365   28367   28365   28366   28365   28368
   28369   28371   28369   28370   28369   28372   28373   28375
   28373   28374   28373   28376   28377   28379   28377   28378
   28377   28380   28381   28383   28381   28382   28381   28384
   28385   28387   28385   28386   28385   28388   28389   28391
   28389   28390   28389   28392   28393   28395   28393   28394
   28393   28396   28397   28399   28397   28398   28397   28400
   28401   28403   28401   28402   28401   28404   28405   28407
   28405   28406   28405   28408   28409   28411   28409   28410
   28409   28412   28413   28415   28413   28414   28413   28416
   28417   28419   28417   28418   28417   28420   28421   28423
   28421   28422   28421   28424   28425   28427   28425   28426
   28425   28428   28429   28431   28429   28430   28429   28432
   28433   28435   28433   28434   28433   28436   28437   28439
   28437   28438   28437   28440   28441   28443   28441   28442
   28441   28444   28445   28447   28445   28446   28445   28448
   28449   28451   28449   28450   28449   28452   28453   28455
   28453   28454   28453   28456   28457   28459   28457   28458
   28457   28460   28461   28463   28461   28462   28461   28464
   28465   28467   28465   28466   28465   28468   28469   28471
   28469   28470   28469   28472   28473   28475   28473   28474
   28473   28476   28477   28479   28477   28478   28477   28480
   28481   28483   28481   28482   28481   28484   28485   28487
   28485   28486   28485   28488   28489   28491   28489   28490
   28489   28492   28493   28495   28493   28494   28493   28496
   28497   28499   28497   28498   28497   28500   28501   28503
   28501   28502   28501   28504   28505   28507   28505   28506
   28505   28508   28509   28511   28509   28510   28509   28512
   28513   28515   28513   28514   28513   28516   28517   28519
   28517   28518   28517   28520   28521   28523   28521   28522
   28521   28524   28525   28527   28525   28526   28525   28528
   28529   28531   28529   28530   28529   28532   28533   28535
   28533   28534   28533   28536   28537   28539   28537   28538
   28537   28540   28541   28543   28541   28542   28541   28544
   28545   28547   28545   28546   28545   28548   28549   28551
   28549   28550   28549   28552   28553   28555   28553   28554
   28553   28556   28557   28559   28557   28558   28557   28560
   28561   28563   28561   28562   28561   28564   28565   28567
   28565   28566   28565   28568   28569   28571   28569   28570
   28569   28572   28573   28575   28573   28574   28573   28576
   28577   28579   28577   28578   28577   28580   28581   28583
   28581   28582   28581   28584   28585   28587   28585   28586
   28585   28588   28589   28591   28589   28590   28589   28592
   28593   28595   28593   28594   28593   28596   28597   28599
   28597   28598   28597   28600   28601   28603   28601   28602
   28601   28604   28605   28607   28605   28606   28605   28608
   28609   28611   28609   28610   28609   28612   28613   28615
   28613   28614   28613   28616   28617   28619   28617   28618
   28617   28620   28621   28623   28621   28622   28621   28624
   28625   28627   28625   28626   28625   28628   28629   28631
   28629   28630   28629   28632   28633   28635   28633   28634
   28633   28636   28637   28639   28637   28638   28637   28640
   28641   28643   28641   28642   28641   28644   28645   28647
   28645   28646   28645   28648   28649   28651   28649   28650
   28649   28652   28653   28655   28653   28654   28653   28656
   28657   28659   28657   28658   28657   28660   28661   28663
   28661   28662   28661   28664   28665   28667   28665   28666
   28665   28668   28669   28671   28669   28670   28669   28672
   28673   28675   28673   28674   28673   28676   28677   28679
   28677   28678   28677   28680   28681   28683   28681   28682
   28681   28684   28685   28687   28685   28686   28685   28688
   28689   28691   28689   28690   28689   28692   28693   28695
   28693   28694   28693   28696   28697   28699   28697   28698
   28697   28700   28701   28703   28701   28702   28701   28704
   28705   28707   28705   28706   28705   28708   28709   28711
   28709   28710   28709   28712   28713   28715   28713   28714
   28713   28716   28717   28719   28717   28718   28717   28720
   28721   28723   28721   28722   28721   28724   28725   28727
   28725   28726   28725   28728   28729   28731   28729   28730
   28729   28732   28733   28735   28733   28734   28733   28736
   28737   28739   28737   28738   28737   28740   28741   28743
   28741   28742   28741   28744   28745   28747   28745   28746
   28745   28748   28749   28751   28749   28750   28749   28752
   28753   28755   28753   28754   28753   28756   28757   28759
   28757   28758   28757   28760   28761   28763   28761   28762
   28761   28764   28765   28767   28765   28766   28765   28768
   28769   28771   28769   28770   28769   28772   28773   28775
   28773   28774   28773   28776   28777   28779   28777   28778
   28777   28780   28781   28783   28781   28782   28781   28784
   28785   28787   28785   28786   28785   28788   28789   28791
   28789   28790   28789   28792   28793   28795   28793   28794
   28793   28796   28797   28799   28797   28798   28797   28800
   28801   28803   28801   28802   28801   28804   28805   28807
   28805   28806   28805   28808   28809   28811   28809   28810
   28809   28812   28813   28815   28813   28814   28813   28816
   28817   28819   28817   28818   28817   28820   28821   28823
   28821   28822   28821   28824   28825   28827   28825   28826
   28825   28828   28829   28831   28829   28830   28829   28832
   28833   28835   28833   28834   28833   28836   28837   28839
   28837   28838   28837   28840   28841   28843   28841   28842
   28841   28844   28845   28847   28845   28846   28845   28848
   28849   28851   28849   28850   28849   28852   28853   28855
   28853   28854   28853   28856   28857   28859   28857   28858
   28857   28860   28861   28863   28861   28862   28861   28864
   28865   28867   28865   28866   28865   28868   28869   28871
   28869   28870   28869   28872   28873   28875   28873   28874
   28873   28876   28877   28879   28877   28878   28877   28880
   28881   28883   28881   28882   28881   28884   28885   28887
   28885   28886   28885   28888   28889   28891   28889   28890
   28889   28892   28893   28895   28893   28894   28893   28896
   28897   28899   28897   28898   28897   28900   28901   28903
   28901   28902   28901   28904   28905   28907   28905   28906
   28905   28908   28909   28911   28909   28910   28909   28912
   28913   28915   28913   28914   28913   28916   28917   28919
   28917   28918   28917   28920   28921   28923   28921   28922
   28921   28924   28925   28927   28925   28926   28925   28928
   28929   28931   28929   28930   28929   28932   28933   28935
   28933   28934   28933   28936   28937   28939   28937   28938
   28937   28940   28941   28943   28941   28942   28941   28944
   28945   28947   28945   28946   28945   28948   28949   28951
   28949   28950   28949   28952   28953   28955   28953   28954
   28953   28956   28957   28959   28957   28958   28957   28960
   28961   28963   28961   28962   28961   28964   28965   28967
   28965   28966   28965   28968   28969   28971   28969   28970
   28969   28972   28973   28975   28973   28974   28973   28976
   28977   28979   28977   28978   28977   28980   28981   28983
   28981   28982   28981   28984   28985   28987   28985   28986
   28985   28988   28989   28991   28989   28990   28989   28992
   28993   28995   28993   28994   28993   28996   28997   28999
   28997   28998   28997   29000   29001   29003   29001   29002
   29001   29004   29005   29007   29005   29006   29005   29008
   29009   29011   29009   29010   29009   29012   29013   29015
   29013   29014   29013   29016   29017   29019   29017   29018
   29017   29020   29021   29023   29021   29022   29021   29024
   29025   29027   29025   29026   29025   29028   29029   29031
   29029   29030   29029   29032   29033   29035   29033   29034
   29033   29036   29037   29039   29037   29038   29037   29040
   29041   29043   29041   29042   29041   29044   29045   29047
   29045   29046   29045   29048   29049   29051   29049   29050
   29049   29052   29053   29055   29053   29054   29053   29056
   29057   29059   29057   29058   29057   29060   29061   29063
   29061   29062   29061   29064   29065   29067   29065   29066
   29065   29068   29069   29071   29069   29070   29069   29072
   29073   29075   29073   29074   29073   29076   29077   29079
   29077   29078   29077   29080   29081   29083   29081   29082
   29081   29084   29085   29087   29085   29086   29085   29088
   29089   29091   29089   29090   29089   29092   29093   29095
   29093   29094   29093   29096   29097   29099   29097   29098
   29097   29100   29101   29103   29101   29102   29101   29104
   29105   29107   29105   29106   29105   29108   29109   29111
   29109   29110   29109   29112   29113   29115   29113   29114
   29113   29116   29117   29119   29117   29118   29117   29120
   29121   29123   29121   29122   29121   29124   29125   29127
   29125   29126   29125   29128   29129   29131   29129   29130
   29129   29132   29133   29135   29133   29134   29133   29136
   29137   29139   29137   29138   29137   29140   29141   29143
   29141   29142   29141   29144   29145   29147   29145   29146
   29145   29148   29149   29151   29149   29150   29149   29152
   29153   29155   29153   29154   29153   29156   29157   29159
   29157   29158   29157   29160   29161   29163   29161   29162
   29161   29164   29165   29167   29165   29166   29165   29168
   29169   29171   29169   29170   29169   29172   29173   29175
   29173   29174   29173   29176   29177   29179   29177   29178
   29177   29180   29181   29183   29181   29182   29181   29184
   29185   29187   29185   29186   29185   29188   29189   29191
   29189   29190   29189   29192   29193   29195   29193   29194
   29193   29196   29197   29199   29197   29198   29197   29200
   29201   29203   29201   29202   29201   29204   29205   29207
   29205   29206   29205   29208   29209   29211   29209   29210
   29209   29212   29213   29215   29213   29214   29213   29216
   29217   29219   29217   29218   29217   29220   29221   29223
   29221   29222   29221   29224   29225   29227   29225   29226
   29225   29228   29229   29231   29229   29230   29229   29232
   29233   29235   29233   29234   29233   29236   29237   29239
   29237   29238   29237   29240   29241   29243   29241   29242
   29241   29244   29245   29247   29245   29246   29245   29248
   29249   29251   29249   29250   29249   29252   29253   29255
   29253   29254   29253   29256   29257   29259   29257   29258
   29257   29260   29261   29263   29261   29262   29261   29264
   29265   29267   29265   29266   29265   29268   29269   29271
   29269   29270   29269   29272   29273   29275   29273   29274
   29273   29276   29277   29279   29277   29278   29277   29280
   29281   29283   29281   29282   29281   29284   29285   29287
   29285   29286   29285   29288   29289   29291   29289   29290
   29289   29292   29293   29295   29293   29294   29293   29296
   29297   29299   29297   29298   29297   29300   29301   29303
   29301   29302   29301   29304   29305   29307   29305   29306
   29305   29308   29309   29311   29309   29310   29309   29312
   29313   29315   29313   29314   29313   29316   29317   29319
   29317   29318   29317   29320   29321   29323   29321   29322
   29321   29324   29325   29327   29325   29326   29325   29328
   29329   29331   29329   29330   29329   29332   29333   29335
   29333   29334   29333   29336   29337   29339   29337   29338
   29337   29340   29341   29343   29341   29342   29341   29344
   29345   29347   29345   29346   29345   29348   29349   29351
   29349   29350   29349   29352   29353   29355   29353   29354
   29353   29356   29357   29359   29357   29358   29357   29360
   29361   29363   29361   29362   29361   29364   29365   29367
   29365   29366   29365   29368   29369   29371   29369   29370
   29369   29372   29373   29375   29373   29374   29373   29376
   29377   29379   29377   29378   29377   29380   29381   29383
   29381   29382   29381   29384   29385   29387   29385   29386
   29385   29388   29389   29391   29389   29390   29389   29392
   29393   29395   29393   29394   29393   29396   29397   29399
   29397   29398   29397   29400   29401   29403   29401   29402
   29401   29404   29405   29407   29405   29406   29405   29408
   29409   29411   29409   29410   29409   29412   29413   29415
   29413   29414   29413   29416   29417   29419   29417   29418
   29417   29420   29421   29423   29421   29422   29421   29424
   29425   29427   29425   29426   29425   29428   29429   29431
   29429   29430   29429   29432   29433   29435   29433   29434
   29433   29436   29437   29439   29437   29438   29437   29440
   29441   29443   29441   29442   29441   29444   29445   29447
   29445   29446   29445   29448   29449   29451   29449   29450
   29449   29452   29453   29455   29453   29454   29453   29456
   29457   29459   29457   29458   29457   29460   29461   29463
   29461   29462   29461   29464   29465   29467   29465   29466
   29465   29468   29469   29471   29469   29470   29469   29472
   29473   29475   29473   29474   29473   29476   29477   29479
   29477   29478   29477   29480   29481   29483   29481   29482
   29481   29484   29485   29487   29485   29486   29485   29488
   29489   29491   29489   29490   29489   29492   29493   29495
   29493   29494   29493   29496   29497   29499   29497   29498
   29497   29500   29501   29503   29501   29502   29501   29504
   29505   29507   29505   29506   29505   29508   29509   29511
   29509   29510   29509   29512   29513   29515   29513   29514
   29513   29516   29517   29519   29517   29518   29517   29520
   29521   29523   29521   29522   29521   29524   29525   29527
   29525   29526   29525   29528   29529   29531   29529   29530
   29529   29532   29533   29535   29533   29534   29533   29536
   29537   29539   29537   29538   29537   29540   29541   29543
   29541   29542   29541   29544   29545   29547   29545   29546
   29545   29548   29549   29551   29549   29550   29549   29552
   29553   29555   29553   29554   29553   29556   29557   29559
   29557   29558   29557   29560   29561   29563   29561   29562
   29561   29564   29565   29567   29565   29566   29565   29568
   29569   29571   29569   29570   29569   29572   29573   29575
   29573   29574   29573   29576   29577   29579   29577   29578
   29577   29580   29581   29583   29581   29582   29581   29584
   29585   29587   29585   29586   29585   29588   29589   29591
   29589   29590   29589   29592   29593   29595   29593   29594
   29593   29596   29597   29599   29597   29598   29597   29600
   29601   29603   29601   29602   29601   29604   29605   29607
   29605   29606   29605   29608   29609   29611   29609   29610
   29609   29612   29613   29615   29613   29614   29613   29616
   29617   29619   29617   29618   29617   29620   29621   29623
   29621   29622   29621   29624   29625   29627   29625   29626
   29625   29628   29629   29631   29629   29630   29629   29632
   29633   29635   29633   29634   29633   29636   29637   29639
   29637   29638   29637   29640   29641   29643   29641   29642
   29641   29644   29645   29647   29645   29646   29645   29648
   29649   29651   29649   29650   29649   29652   29653   29655
   29653   29654   29653   29656   29657   29659   29657   29658
   29657   29660   29661   29663   29661   29662   29661   29664
   29665   29667   29665   29666   29665   29668   29669   29671
   29669   29670   29669   29672   29673   29675   29673   29674
   29673   29676   29677   29679   29677   29678   29677   29680
   29681   29683   29681   29682   29681   29684   29685   29687
   29685   29686   29685   29688   29689   29691   29689   29690
   29689   29692   29693   29695   29693   29694   29693   29696
   29697   29699   29697   29698   29697   29700   29701   29703
   29701   29702   29701   29704   29705   29707   29705   29706
   29705   29708   29709   29711   29709   29710   29709   29712
   29713   29715   29713   29714   29713   29716   29717   29719
   29717   29718   29717   29720   29721   29723   29721   29722
   29721   29724   29725   29727   29725   29726   29725   29728
   29729   29731   29729   29730   29729   29732   29733   29735
   29733   29734   29733   29736   29737   29739   29737   29738
   29737   29740   29741   29743   29741   29742   29741   29744
   29745   29747   29745   29746   29745   29748   29749   29751
   29749   29750   29749   29752   29753   29755   29753   29754
   29753   29756   29757   29759   29757   29758   29757   29760
   29761   29763   29761   29762   29761   29764   29765   29767
   29765   29766   29765   29768   29769   29771   29769   29770
   29769   29772   29773   29775   29773   29774   29773   29776
   29777   29779   29777   29778   29777   29780   29781   29783
   29781   29782   29781   29784   29785   29787   29785   29786
   29785   29788   29789   29791   29789   29790   29789   29792
   29793   29795   29793   29794   29793   29796   29797   29799
   29797   29798   29797   29800   29801   29803   29801   29802
   29801   29804   29805   29807   29805   29806   29805   29808
   29809   29811   29809   29810   29809   29812   29813   29815
   29813   29814   29813   29816   29817   29819   29817   29818
   29817   29820   29821   29823   29821   29822   29821   29824
   29825   29827   29825   29826   29825   29828   29829   29831
   29829   29830   29829   29832   29833   29835   29833   29834
   29833   29836   29837   29839   29837   29838   29837   29840
   29841   29843   29841   29842   29841   29844   29845   29847
   29845   29846   29845   29848   29849   29851   29849   29850
   29849   29852   29853   29855   29853   29854   29853   29856
   29857   29859   29857   29858   29857   29860   29861   29863
   29861   29862   29861   29864   29865   29867   29865   29866
   29865   29868   29869   29871   29869   29870   29869   29872
   29873   29875   29873   29874   29873   29876   29877   29879
   29877   29878   29877   29880   29881   29883   29881   29882
   29881   29884   29885   29887   29885   29886   29885   29888
   29889   29891   29889   29890   29889   29892   29893   29895
   29893   29894   29893   29896   29897   29899   29897   29898
   29897   29900   29901   29903   29901   29902   29901   29904
   29905   29907   29905   29906   29905   29908   29909   29911
   29909   29910   29909   29912   29913   29915   29913   29914
   29913   29916   29917   29919   29917   29918   29917   29920
   29921   29923   29921   29922   29921   29924   29925   29927
   29925   29926   29925   29928   29929   29931   29929   29930
   29929   29932   29933   29935   29933   29934   29933   29936
   29937   29939   29937   29938   29937   29940   29941   29943
   29941   29942   29941   29944   29945   29947   29945   29946
   29945   29948   29949   29951   29949   29950   29949   29952
   29953   29955   29953   29954   29953   29956   29957   29959
   29957   29958   29957   29960   29961   29963   29961   29962
   29961   29964   29965   29967   29965   29966   29965   29968
   29969   29971   29969   29970   29969   29972   29973   29975
   29973   29974   29973   29976   29977   29979   29977   29978
   29977   29980   29981   29983   29981   29982   29981   29984
   29985   29987   29985   29986   29985   29988   29989   29991
   29989   29990   29989   29992   29993   29995   29993   29994
   29993   29996   29997   29999   29997   29998   29997   30000
   30001   30003   30001   30002   30001   30004   30005   30007
   30005   30006   30005   30008   30009   30011   30009   30010
   30009   30012   30013   30015   30013   30014   30013   30016
   30017   30019   30017   30018   30017   30020   30021   30023
   30021   30022   30021   30024   30025   30027   30025   30026
   30025   30028   30029   30031   30029   30030   30029   30032
   30033   30035   30033   30034   30033   30036   30037   30039
   30037   30038   30037   30040   30041   30043   30041   30042
   30041   30044   30045   30047   30045   30046   30045   30048
   30049   30051   30049   30050   30049   30052   30053   30055
   30053   30054   30053   30056   30057   30059   30057   30058
   30057   30060   30061   30063   30061   30062   30061   30064
   30065   30067   30065   30066   30065   30068   30069   30071
   30069   30070   30069   30072   30073   30075   30073   30074
   30073   30076   30077   30079   30077   30078   30077   30080
   30081   30083   30081   30082   30081   30084   30085   30087
   30085   30086   30085   30088   30089   30091   30089   30090
   30089   30092   30093   30095   30093   30094   30093   30096
   30097   30099   30097   30098   30097   30100   30101   30103
   30101   30102   30101   30104   30105   30107   30105   30106
   30105   30108   30109   30111   30109   30110   30109   30112
   30113   30115   30113   30114   30113   30116   30117   30119
   30117   30118   30117   30120   30121   30123   30121   30122
   30121   30124   30125   30127   30125   30126   30125   30128
   30129   30131   30129   30130   30129   30132   30133   30135
   30133   30134   30133   30136   30137   30139   30137   30138
   30137   30140   30141   30143   30141   30142   30141   30144
   30145   30147   30145   30146   30145   30148   30149   30151
   30149   30150   30149   30152   30153   30155   30153   30154
   30153   30156   30157   30159   30157   30158   30157   30160
   30161   30163   30161   30162   30161   30164   30165   30167
   30165   30166   30165   30168   30169   30171   30169   30170
   30169   30172   30173   30175   30173   30174   30173   30176
   30177   30179   30177   30178   30177   30180   30181   30183
   30181   30182   30181   30184   30185   30187   30185   30186
   30185   30188   30189   30191   30189   30190   30189   30192
   30193   30195   30193   30194   30193   30196   30197   30199
   30197   30198   30197   30200   30201   30203   30201   30202
   30201   30204   30205   30207   30205   30206   30205   30208
   30209   30211   30209   30210   30209   30212   30213   30215
   30213   30214   30213   30216   30217   30219   30217   30218
   30217   30220   30221   30223   30221   30222   30221   30224
   30225   30227   30225   30226   30225   30228   30229   30231
   30229   30230   30229   30232   30233   30235   30233   30234
   30233   30236   30237   30239   30237   30238   30237   30240
   30241   30243   30241   30242   30241   30244   30245   30247
   30245   30246   30245   30248   30249   30251   30249   30250
   30249   30252   30253   30255   30253   30254   30253   30256
   30257   30259   30257   30258   30257   30260   30261   30263
   30261   30262   30261   30264   30265   30267   30265   30266
   30265   30268   30269   30271   30269   30270   30269   30272
   30273   30275   30273   30274   30273   30276   30277   30279
   30277   30278   30277   30280   30281   30283   30281   30282
   30281   30284   30285   30287   30285   30286   30285   30288
   30289   30291   30289   30290   30289   30292   30293   30295
   30293   30294   30293   30296   30297   30299   30297   30298
   30297   30300   30301   30303   30301   30302   30301   30304
   30305   30307   30305   30306   30305   30308   30309   30311
   30309   30310   30309   30312   30313   30315   30313   30314
   30313   30316   30317   30319   30317   30318   30317   30320
   30321   30323   30321   30322   30321   30324   30325   30327
   30325   30326   30325   30328   30329   30331   30329   30330
   30329   30332   30333   30335   30333   30334   30333   30336
   30337   30339   30337   30338   30337   30340   30341   30343
   30341   30342   30341   30344   30345   30347   30345   30346
   30345   30348   30349   30351   30349   30350   30349   30352
   30353   30355   30353   30354   30353   30356   30357   30359
   30357   30358   30357   30360   30361   30363   30361   30362
   30361   30364   30365   30367   30365   30366   30365   30368
   30369   30371   30369   30370   30369   30372   30373   30375
   30373   30374   30373   30376   30377   30379   30377   30378
   30377   30380   30381   30383   30381   30382   30381   30384
   30385   30387   30385   30386   30385   30388   30389   30391
   30389   30390   30389   30392   30393   30395   30393   30394
   30393   30396   30397   30399   30397   30398   30397   30400
   30401   30403   30401   30402   30401   30404   30405   30407
   30405   30406   30405   30408   30409   30411   30409   30410
   30409   30412   30413   30415   30413   30414   30413   30416
   30417   30419   30417   30418   30417   30420   30421   30423
   30421   30422   30421   30424   30425   30427   30425   30426
   30425   30428   30429   30431   30429   30430   30429   30432
   30433   30435   30433   30434   30433   30436   30437   30439
   30437   30438   30437   30440   30441   30443   30441   30442
   30441   30444   30445   30447   30445   30446   30445   30448
   30449   30451   30449   30450   30449   30452   30453   30455
   30453   30454   30453   30456   30457   30459   30457   30458
   30457   30460   30461   30463   30461   30462   30461   30464
   30465   30467   30465   30466   30465   30468   30469   30471
   30469   30470   30469   30472   30473   30475   30473   30474
   30473   30476   30477   30479   30477   30478   30477   30480
   30481   30483   30481   30482   30481   30484   30485   30487
   30485   30486   30485   30488   30489   30491   30489   30490
   30489   30492   30493   30495   30493   30494   30493   30496
   30497   30499   30497   30498   30497   30500   30501   30503
   30501   30502   30501   30504   30505   30507   30505   30506
   30505   30508   30509   30511   30509   30510   30509   30512
   30513   30515   30513   30514   30513   30516   30517   30519
   30517   30518   30517   30520   30521   30523   30521   30522
   30521   30524   30525   30527   30525   30526   30525   30528
   30529   30531   30529   30530   30529   30532   30533   30535
   30533   30534   30533   30536   30537   30539   30537   30538
   30537   30540   30541   30543   30541   30542   30541   30544
   30545   30547   30545   30546   30545   30548   30549   30551
   30549   30550   30549   30552   30553   30555   30553   30554
   30553   30556   30557   30559   30557   30558   30557   30560
   30561   30563   30561   30562   30561   30564   30565   30567
   30565   30566   30565   30568   30569   30571   30569   30570
   30569   30572   30573   30575   30573   30574   30573   30576
   30577   30579   30577   30578   30577   30580   30581   30583
   30581   30582   30581   30584   30585   30587   30585   30586
   30585   30588   30589   30591   30589   30590   30589   30592
   30593   30595   30593   30594   30593   30596   30597   30599
   30597   30598   30597   30600   30601   30603   30601   30602
   30601   30604   30605   30607   30605   30606   30605   30608
   30609   30611   30609   30610   30609   30612   30613   30615
   30613   30614   30613   30616   30617   30619   30617   30618
   30617   30620   30621   30623   30621   30622   30621   30624
   30625   30627   30625   30626   30625   30628   30629   30631
   30629   30630   30629   30632   30633   30635   30633   30634
   30633   30636   30637   30639   30637   30638   30637   30640
   30641   30643   30641   30642   30641   30644   30645   30647
   30645   30646   30645   30648   30649   30651   30649   30650
   30649   30652   30653   30655   30653   30654   30653   30656
   30657   30659   30657   30658   30657   30660   30661   30663
   30661   30662   30661   30664   30665   30667   30665   30666
   30665   30668   30669   30671   30669   30670   30669   30672
   30673   30675   30673   30674   30673   30676   30677   30679
   30677   30678   30677   30680   30681   30683   30681   30682
   30681   30684   30685   30687   30685   30686   30685   30688
   30689   30691   30689   30690   30689   30692   30693   30695
   30693   30694   30693   30696   30697   30699   30697   30698
   30697   30700   30701   30703   30701   30702   30701   30704
   30705   30707   30705   30706   30705   30708   30709   30711
   30709   30710   30709   30712   30713   30715   30713   30714
   30713   30716   30717   30719   30717   30718   30717   30720
   30721   30723   30721   30722   30721   30724   30725   30727
   30725   30726   30725   30728   30729   30731   30729   30730
   30729   30732   30733   30735   30733   30734   30733   30736
   30737   30739   30737   30738   30737   30740   30741   30743
   30741   30742   30741   30744   30745   30747   30745   30746
   30745   30748   30749   30751   30749   30750   30749   30752
   30753   30755   30753   30754   30753   30756   30757   30759
   30757   30758   30757   30760   30761   30763   30761   30762
   30761   30764   30765   30767   30765   30766   30765   30768
   30769   30771   30769   30770   30769   30772   30773   30775
   30773   30774   30773   30776   30777   30779   30777   30778
   30777   30780   30781   30783   30781   30782   30781   30784
   30785   30787   30785   30786   30785   30788   30789   30791
   30789   30790   30789   30792   30793   30795   30793   30794
   30793   30796   30797   30799   30797   30798   30797   30800
   30801   30803   30801   30802   30801   30804   30805   30807
   30805   30806   30805   30808   30809   30811   30809   30810
   30809   30812   30813   30815   30813   30814   30813   30816
   30817   30819   30817   30818   30817   30820   30821   30823
   30821   30822   30821   30824   30825   30827   30825   30826
   30825   30828   30829   30831   30829   30830   30829   30832
   30833   30835   30833   30834   30833   30836   30837   30839
   30837   30838   30837   30840   30841   30843   30841   30842
   30841   30844   30845   30847   30845   30846   30845   30848
   30849   30851   30849   30850   30849   30852   30853   30855
   30853   30854   30853   30856   30857   30859   30857   30858
   30857   30860   30861   30863   30861   30862   30861   30864
   30865   30867   30865   30866   30865   30868   30869   30871
   30869   30870   30869   30872   30873   30875   30873   30874
   30873   30876   30877   30879   30877   30878   30877   30880
   30881   30883   30881   30882   30881   30884   30885   30887
   30885   30886   30885   30888   30889   30891   30889   30890
   30889   30892   30893   30895   30893   30894   30893   30896
   30897   30899   30897   30898   30897   30900   30901   30903
   30901   30902   30901   30904   30905   30907   30905   30906
   30905   30908   30909   30911   30909   30910   30909   30912
   30913   30915   30913   30914   30913   30916   30917   30919
   30917   30918   30917   30920   30921   30923   30921   30922
   30921   30924   30925   30927   30925   30926   30925   30928
   30929   30931   30929   30930   30929   30932   30933   30935
   30933   30934   30933   30936   30937   30939   30937   30938
   30937   30940   30941   30943   30941   30942   30941   30944
   30945   30947   30945   30946   30945   30948   30949   30951
   30949   30950   30949   30952   30953   30955   30953   30954
   30953   30956   30957   30959   30957   30958   30957   30960
   30961   30963   30961   30962   30961   30964   30965   30967
   30965   30966   30965   30968   30969   30971   30969   30970
   30969   30972   30973   30975   30973   30974   30973   30976
   30977   30979   30977   30978   30977   30980   30981   30983
   30981   30982   30981   30984   30985   30987   30985   30986
   30985   30988   30989   30991   30989   30990   30989   30992
   30993   30995   30993   30994   30993   30996   30997   30999
   30997   30998   30997   31000   31001   31003   31001   31002
   31001   31004   31005   31007   31005   31006   31005   31008
   31009   31011   31009   31010   31009   31012   31013   31015
   31013   31014   31013   31016   31017   31019   31017   31018
   31017   31020   31021   31023   31021   31022   31021   31024
   31025   31027   31025   31026   31025   31028   31029   31031
   31029   31030   31029   31032   31033   31035   31033   31034
   31033   31036   31037   31039   31037   31038   31037   31040
   31041   31043   31041   31042   31041   31044   31045   31047
   31045   31046   31045   31048   31049   31051   31049   31050
   31049   31052   31053   31055   31053   31054   31053   31056
   31057   31059   31057   31058   31057   31060   31061   31063
   31061   31062   31061   31064   31065   31067   31065   31066
   31065   31068   31069   31071   31069   31070   31069   31072
   31073   31075   31073   31074   31073   31076   31077   31079
   31077   31078   31077   31080   31081   31083   31081   31082
   31081   31084   31085   31087   31085   31086   31085   31088
   31089   31091   31089   31090   31089   31092   31093   31095
   31093   31094   31093   31096   31097   31099   31097   31098
   31097   31100   31101   31103   31101   31102   31101   31104
   31105   31107   31105   31106   31105   31108   31109   31111
   31109   31110   31109   31112   31113   31115   31113   31114
   31113   31116   31117   31119   31117   31118   31117   31120
   31121   31123   31121   31122   31121   31124   31125   31127
   31125   31126   31125   31128   31129   31131   31129   31130
   31129   31132   31133   31135   31133   31134   31133   31136
   31137   31139   31137   31138   31137   31140   31141   31143
   31141   31142   31141   31144   31145   31147   31145   31146
   31145   31148   31149   31151   31149   31150   31149   31152
   31153   31155   31153   31154   31153   31156   31157   31159
   31157   31158   31157   31160   31161   31163   31161   31162
   31161   31164   31165   31167   31165   31166   31165   31168
   31169   31171   31169   31170   31169   31172   31173   31175
   31173   31174   31173   31176   31177   31179   31177   31178
   31177   31180   31181   31183   31181   31182   31181   31184
   31185   31187   31185   31186   31185   31188   31189   31191
   31189   31190   31189   31192   31193   31195   31193   31194
   31193   31196   31197   31199   31197   31198   31197   31200
   31201   31203   31201   31202   31201   31204   31205   31207
   31205   31206   31205   31208   31209   31211   31209   31210
   31209   31212   31213   31215   31213   31214   31213   31216
   31217   31219   31217   31218   31217   31220   31221   31223
   31221   31222   31221   31224   31225   31227   31225   31226
   31225   31228   31229   31231   31229   31230   31229   31232
   31233   31235   31233   31234   31233   31236   31237   31239
   31237   31238   31237   31240   31241   31243   31241   31242
   31241   31244   31245   31247   31245   31246   31245   31248
   31249   31251   31249   31250   31249   31252   31253   31255
   31253   31254   31253   31256   31257   31259   31257   31258
   31257   31260   31261   31263   31261   31262   31261   31264
   31265   31267   31265   31266   31265   31268   31269   31271
   31269   31270   31269   31272   31273   31275   31273   31274
   31273   31276   31277   31279   31277   31278   31277   31280
   31281   31283   31281   31282   31281   31284   31285   31287
   31285   31286   31285   31288   31289   31291   31289   31290
   31289   31292   31293   31295   31293   31294   31293   31296
   31297   31299   31297   31298   31297   31300   31301   31303
   31301   31302   31301   31304   31305   31307   31305   31306
   31305   31308   31309   31311   31309   31310   31309   31312
   31313   31315   31313   31314   31313   31316   31317   31319
   31317   31318   31317   31320   31321   31323   31321   31322
   31321   31324   31325   31327   31325   31326   31325   31328
   31329   31331   31329   31330   31329   31332   31333   31335
   31333   31334   31333   31336   31337   31339   31337   31338
   31337   31340   31341   31343   31341   31342   31341   31344
   31345   31347   31345   31346   31345   31348   31349   31351
   31349   31350   31349   31352   31353   31355   31353   31354
   31353   31356   31357   31359   31357   31358   31357   31360
   31361   31363   31361   31362   31361   31364   31365   31367
   31365   31366   31365   31368   31369   31371   31369   31370
   31369   31372   31373   31375   31373   31374   31373   31376
   31377   31379   31377   31378   31377   31380   31381   31383
   31381   31382   31381   31384   31385   31387   31385   31386
   31385   31388   31389   31391   31389   31390   31389   31392
   31393   31395   31393   31394   31393   31396   31397   31399
   31397   31398   31397   31400   31401   31403   31401   31402
   31401   31404   31405   31407   31405   31406   31405   31408
   31409   31411   31409   31410   31409   31412   31413   31415
   31413   31414   31413   31416   31417   31419   31417   31418
   31417   31420   31421   31423   31421   31422   31421   31424
   31425   31427   31425   31426   31425   31428   31429   31431
   31429   31430   31429   31432   31433   31435   31433   31434
   31433   31436   31437   31439   31437   31438   31437   31440
   31441   31443   31441   31442   31441   31444   31445   31447
   31445   31446   31445   31448   31449   31451   31449   31450
   31449   31452   31453   31455   31453   31454   31453   31456
   31457   31459   31457   31458   31457   31460   31461   31463
   31461   31462   31461   31464   31465   31467   31465   31466
   31465   31468   31469   31471   31469   31470   31469   31472
   31473   31475   31473   31474   31473   31476   31477   31479
   31477   31478   31477   31480   31481   31483   31481   31482
   31481   31484   31485   31487   31485   31486   31485   31488
   31489   31491   31489   31490   31489   31492   31493   31495
   31493   31494   31493   31496   31497   31499   31497   31498
   31497   31500   31501   31503   31501   31502   31501   31504
   31505   31507   31505   31506   31505   31508   31509   31511
   31509   31510   31509   31512   31513   31515   31513   31514
   31513   31516   31517   31519   31517   31518   31517   31520
   31521   31523   31521   31522   31521   31524   31525   31527
   31525   31526   31525   31528   31529   31531   31529   31530
   31529   31532   31533   31535   31533   31534   31533   31536
   31537   31539   31537   31538   31537   31540   31541   31543
   31541   31542   31541   31544   31545   31547   31545   31546
   31545   31548   31549   31551   31549   31550   31549   31552
   31553   31555   31553   31554   31553   31556   31557   31559
   31557   31558   31557   31560   31561   31563   31561   31562
   31561   31564   31565   31567   31565   31566   31565   31568
   31569   31571   31569   31570   31569   31572   31573   31575
   31573   31574   31573   31576   31577   31579   31577   31578
   31577   31580   31581   31583   31581   31582   31581   31584
   31585   31587   31585   31586   31585   31588   31589   31591
   31589   31590   31589   31592   31593   31595   31593   31594
   31593   31596   31597   31599   31597   31598   31597   31600
   31601   31603   31601   31602   31601   31604   31605   31607
   31605   31606   31605   31608   31609   31611   31609   31610
   31609   31612   31613   31615   31613   31614   31613   31616
   31617   31619   31617   31618   31617   31620   31621   31623
   31621   31622   31621   31624   31625   31627   31625   31626
   31625   31628   31629   31631   31629   31630   31629   31632
   31633   31635   31633   31634   31633   31636   31637   31639
   31637   31638   31637   31640   31641   31643   31641   31642
   31641   31644   31645   31647   31645   31646   31645   31648
   31649   31651   31649   31650   31649   31652   31653   31655
   31653   31654   31653   31656   31657   31659   31657   31658
   31657   31660   31661   31663   31661   31662   31661   31664
   31665   31667   31665   31666   31665   31668   31669   31671
   31669   31670   31669   31672   31673   31675   31673   31674
   31673   31676   31677   31679   31677   31678   31677   31680
   31681   31683   31681   31682   31681   31684   31685   31687
   31685   31686   31685   31688   31689   31691   31689   31690
   31689   31692   31693   31695   31693   31694   31693   31696
   31697   31699   31697   31698   31697   31700   31701   31703
   31701   31702   31701   31704   31705   31707   31705   31706
   31705   31708   31709   31711   31709   31710   31709   31712
   31713   31715   31713   31714   31713   31716   31717   31719
   31717   31718   31717   31720   31721   31723   31721   31722
   31721   31724   31725   31727   31725   31726   31725   31728
   31729   31731   31729   31730   31729   31732   31733   31735
   31733   31734   31733   31736   31737   31739   31737   31738
   31737   31740   31741   31743   31741   31742   31741   31744
   31745   31747   31745   31746   31745   31748   31749   31751
   31749   31750   31749   31752   31753   31755   31753   31754
   31753   31756   31757   31759   31757   31758   31757   31760
   31761   31763   31761   31762   31761   31764   31765   31767
   31765   31766   31765   31768   31769   31771   31769   31770
   31769   31772   31773   31775   31773   31774   31773   31776
   31777   31779   31777   31778   31777   31780   31781   31783
   31781   31782   31781   31784   31785   31787   31785   31786
   31785   31788   31789   31791   31789   31790   31789   31792
   31793   31795   31793   31794   31793   31796   31797   31799
   31797   31798   31797   31800   31801   31803   31801   31802
   31801   31804   31805   31807   31805   31806   31805   31808
   31809   31811   31809   31810   31809   31812   31813   31815
   31813   31814   31813   31816   31817   31819   31817   31818
   31817   31820   31821   31823   31821   31822   31821   31824
   31825   31827   31825   31826   31825   31828   31829   31831
   31829   31830   31829   31832   31833   31835   31833   31834
   31833   31836   31837   31839   31837   31838   31837   31840
   31841   31843   31841   31842   31841   31844   31845   31847
   31845   31846   31845   31848   31849   31851   31849   31850
   31849   31852   31853   31855   31853   31854   31853   31856
   31857   31859   31857   31858   31857   31860   31861   31863
   31861   31862   31861   31864   31865   31867   31865   31866
   31865   31868   31869   31871   31869   31870   31869   31872
   31873   31875   31873   31874   31873   31876   31877   31879
   31877   31878   31877   31880   31881   31883   31881   31882
   31881   31884   31885   31887   31885   31886   31885   31888
   31889   31891   31889   31890   31889   31892   31893   31895
   31893   31894   31893   31896   31897   31899   31897   31898
   31897   31900   31901   31903   31901   31902   31901   31904
   31905   31907   31905   31906   31905   31908   31909   31911
   31909   31910   31909   31912   31913   31915   31913   31914
   31913   31916   31917   31919   31917   31918   31917   31920
   31921   31923   31921   31922   31921   31924   31925   31927
   31925   31926   31925   31928   31929   31931   31929   31930
   31929   31932   31933   31935   31933   31934   31933   31936
   31937   31939   31937   31938   31937   31940   31941   31943
   31941   31942   31941   31944   31945   31947   31945   31946
   31945   31948   31949   31951   31949   31950   31949   31952
   31953   31955   31953   31954   31953   31956   31957   31959
   31957   31958   31957   31960   31961   31963   31961   31962
   31961   31964   31965   31967   31965   31966   31965   31968
   31969   31971   31969   31970   31969   31972   31973   31975
   31973   31974   31973   31976   31977   31979   31977   31978
   31977   31980   31981   31983   31981   31982   31981   31984
   31985   31987   31985   31986   31985   31988   31989   31991
   31989   31990   31989   31992   31993   31995   31993   31994
   31993   31996   31997   31999   31997   31998   31997   32000
   32001   32003   32001   32002   32001   32004   32005   32007
   32005   32006   32005   32008   32009   32011   32009   32010
   32009   32012   32013   32015   32013   32014   32013   32016
   32017   32019   32017   32018   32017   32020   32021   32023
   32021   32022   32021   32024   32025   32027   32025   32026
   32025   32028   32029   32031   32029   32030   32029   32032
   32033   32035   32033   32034   32033   32036   32037   32039
   32037   32038   32037   32040   32041   32043   32041   32042
   32041   32044   32045   32047   32045   32046   32045   32048
   32049   32051   32049   32050   32049   32052   32053   32055
   32053   32054   32053   32056   32057   32059   32057   32058
   32057   32060   32061   32063   32061   32062   32061   32064
   32065   32067   32065   32066   32065   32068   32069   32071
   32069   32070   32069   32072   32073   32075   32073   32074
   32073   32076   32077   32079   32077   32078   32077   32080
   32081   32083   32081   32082   32081   32084   32085   32087
   32085   32086   32085   32088   32089   32091   32089   32090
   32089   32092   32093   32095   32093   32094   32093   32096
   32097   32099   32097   32098   32097   32100   32101   32103
   32101   32102   32101   32104   32105   32107   32105   32106
   32105   32108   32109   32111   32109   32110   32109   32112
   32113   32115   32113   32114   32113   32116   32117   32119
   32117   32118   32117   32120   32121   32123   32121   32122
   32121   32124   32125   32127   32125   32126   32125   32128
   32129   32131   32129   32130   32129   32132   32133   32135
   32133   32134   32133   32136   32137   32139   32137   32138
   32137   32140   32141   32143   32141   32142   32141   32144
   32145   32147   32145   32146   32145   32148   32149   32151
   32149   32150   32149   32152   32153   32155   32153   32154
   32153   32156   32157   32159   32157   32158   32157   32160
   32161   32163   32161   32162   32161   32164   32165   32167
   32165   32166   32165   32168   32169   32171   32169   32170
   32169   32172   32173   32175   32173   32174   32173   32176
   32177   32179   32177   32178   32177   32180   32181   32183
   32181   32182   32181   32184   32185   32187   32185   32186
   32185   32188   32189   32191   32189   32190   32189   32192
   32193   32195   32193   32194   32193   32196   32197   32199
   32197   32198   32197   32200   32201   32203   32201   32202
   32201   32204   32205   32207   32205   32206   32205   32208
   32209   32211   32209   32210   32209   32212   32213   32215
   32213   32214   32213   32216   32217   32219   32217   32218
   32217   32220   32221   32223   32221   32222   32221   32224
   32225   32227   32225   32226   32225   32228   32229   32231
   32229   32230   32229   32232   32233   32235   32233   32234
   32233   32236   32237   32239   32237   32238   32237   32240
   32241   32243   32241   32242   32241   32244   32245   32247
   32245   32246   32245   32248   32249   32251   32249   32250
   32249   32252   32253   32255   32253   32254   32253   32256
   32257   32259   32257   32258   32257   32260   32261   32263
   32261   32262   32261   32264   32265   32267   32265   32266
   32265   32268   32269   32271   32269   32270   32269   32272
   32273   32275   32273   32274   32273   32276   32277   32279
   32277   32278   32277   32280   32281   32283   32281   32282
   32281   32284   32285   32287   32285   32286   32285   32288
   32289   32291   32289   32290   32289   32292   32293   32295
   32293   32294   32293   32296   32297   32299   32297   32298
   32297   32300   32301   32303   32301   32302   32301   32304
   32305   32307   32305   32306   32305   32308   32309   32311
   32309   32310   32309   32312   32313   32315   32313   32314
   32313   32316   32317   32319   32317   32318   32317   32320
   32321   32323   32321   32322   32321   32324   32325   32327
   32325   32326   32325   32328   32329   32331   32329   32330
   32329   32332   32333   32335   32333   32334   32333   32336
   32337   32339   32337   32338   32337   32340   32341   32343
   32341   32342   32341   32344   32345   32347   32345   32346
   32345   32348   32349   32351   32349   32350   32349   32352
   32353   32355   32353   32354   32353   32356   32357   32359
   32357   32358   32357   32360   32361   32363   32361   32362
   32361   32364   32365   32367   32365   32366   32365   32368
   32369   32371   32369   32370   32369   32372   32373   32375
   32373   32374   32373   32376   32377   32379   32377   32378
   32377   32380   32381   32383   32381   32382   32381   32384
   32385   32387   32385   32386   32385   32388   32389   32391
   32389   32390   32389   32392   32393   32395   32393   32394
   32393   32396   32397   32399   32397   32398   32397   32400
   32401   32403   32401   32402   32401   32404   32405   32407
   32405   32406   32405   32408   32409   32411   32409   32410
   32409   32412   32413   32415   32413   32414   32413   32416
   32417   32419   32417   32418   32417   32420   32421   32423
   32421   32422   32421   32424   32425   32427   32425   32426
   32425   32428   32429   32431   32429   32430   32429   32432
   32433   32435   32433   32434   32433   32436   32437   32439
   32437   32438   32437   32440   32441   32443   32441   32442
   32441   32444   32445   32447   32445   32446   32445   32448
   32449   32451   32449   32450   32449   32452   32453   32455
   32453   32454   32453   32456   32457   32459   32457   32458
   32457   32460   32461   32463   32461   32462   32461   32464
   32465   32467   32465   32466   32465   32468   32469   32471
   32469   32470   32469   32472   32473   32475   32473   32474
   32473   32476   32477   32479   32477   32478   32477   32480
   32481   32483   32481   32482   32481   32484   32485   32487
   32485   32486   32485   32488   32489   32491   32489   32490
   32489   32492   32493   32495   32493   32494   32493   32496
   32497   32499   32497   32498   32497   32500   32501   32503
   32501   32502   32501   32504   32505   32507   32505   32506
   32505   32508   32509   32511   32509   32510   32509   32512
   32513   32515   32513   32514   32513   32516   32517   32519
   32517   32518   32517   32520   32521   32523   32521   32522
   32521   32524   32525   32527   32525   32526   32525   32528
   32529   32531   32529   32530   32529   32532   32533   32535
   32533   32534   32533   32536   32537   32539   32537   32538
   32537   32540   32541   32543   32541   32542   32541   32544
   32545   32547   32545   32546   32545   32548   32549   32551
   32549   32550   32549   32552   32553   32555   32553   32554
   32553   32556   32557   32559   32557   32558   32557   32560
   32561   32563   32561   32562   32561   32564   32565   32567
   32565   32566   32565   32568   32569   32571   32569   32570
   32569   32572   32573   32575   32573   32574   32573   32576
   32577   32579   32577   32578   32577   32580   32581   32583
   32581   32582   32581   32584   32585   32587   32585   32586
   32585   32588   32589   32591   32589   32590   32589   32592
   32593   32595   32593   32594   32593   32596   32597   32599
   32597   32598   32597   32600   32601   32603   32601   32602
   32601   32604   32605   32607   32605   32606   32605   32608
   32609   32611   32609   32610   32609   32612   32613   32615
   32613   32614   32613   32616   32617   32619   32617   32618
   32617   32620   32621   32623   32621   32622   32621   32624
   32625   32627   32625   32626   32625   32628   32629   32631
   32629   32630   32629   32632   32633   32635   32633   32634
   32633   32636   32637   32639   32637   32638   32637   32640
   32641   32643   32641   32642   32641   32644   32645   32647
   32645   32646   32645   32648   32649   32651   32649   32650
   32649   32652   32653   32655   32653   32654   32653   32656
   32657   32659   32657   32658   32657   32660   32661   32663
   32661   32662   32661   32664   32665   32667   32665   32666
   32665   32668   32669   32671   32669   32670   32669   32672
   32673   32675   32673   32674   32673   32676   32677   32679
   32677   32678   32677   32680   32681   32683   32681   32682
   32681   32684   32685   32687   32685   32686   32685   32688
   32689   32691   32689   32690   32689   32692   32693   32695
   32693   32694   32693   32696   32697   32699   32697   32698
   32697   32700   32701   32703   32701   32702   32701   32704
   32705   32707   32705   32706   32705   32708   32709   32711
   32709   32710   32709   32712   32713   32715   32713   32714
   32713   32716   32717   32719   32717   32718   32717   32720
   32721   32723   32721   32722   32721   32724   32725   32727
   32725   32726   32725   32728   32729   32731   32729   32730
   32729   32732   32733   32735   32733   32734   32733   32736
   32737   32739   32737   32738   32737   32740   32741   32743
   32741   32742   32741   32744   32745   32747   32745   32746
   32745   32748   32749   32751   32749   32750   32749   32752
   32753   32755   32753   32754   32753   32756   32757   32759
   32757   32758   32757   32760   32761   32763   32761   32762
   32761   32764   32765   32767   32765   32766   32765   32768
   32769   32771   32769   32770   32769   32772   32773   32775
   32773   32774   32773   32776   32777   32779   32777   32778
   32777   32780   32781   32783   32781   32782   32781   32784
   32785   32787   32785   32786   32785   32788   32789   32791
   32789   32790   32789   32792   32793   32795   32793   32794
   32793   32796   32797   32799   32797   32798   32797   32800
   32801   32803   32801   32802   32801   32804   32805   32807
   32805   32806   32805   32808   32809   32811   32809   32810
   32809   32812   32813   32815   32813   32814   32813   32816
   32817   32819   32817   32818   32817   32820   32821   32823
   32821   32822   32821   32824   32825   32827   32825   32826
   32825   32828   32829   32831   32829   32830   32829   32832
   32833   32835   32833   32834   32833   32836   32837   32839
   32837   32838   32837   32840   32841   32843   32841   32842
   32841   32844   32845   32847   32845   32846   32845   32848
   32849   32851   32849   32850   32849   32852   32853   32855
   32853   32854   32853   32856   32857   32859   32857   32858
   32857   32860   32861   32863   32861   32862   32861   32864
   32865   32867   32865   32866   32865   32868   32869   32871
   32869   32870   32869   32872   32873   32875   32873   32874
   32873   32876   32877   32879   32877   32878   32877   32880
   32881   32883   32881   32882   32881   32884   32885   32887
   32885   32886   32885   32888   32889   32891   32889   32890
   32889   32892   32893   32895   32893   32894   32893   32896
   32897   32899   32897   32898   32897   32900   32901   32903
   32901   32902   32901   32904   32905   32907   32905   32906
   32905   32908   32909   32911   32909   32910   32909   32912
   32913   32915   32913   32914   32913   32916   32917   32919
   32917   32918   32917   32920   32921   32923   32921   32922
   32921   32924   32925   32927   32925   32926   32925   32928
   32929   32931   32929   32930   32929   32932   32933   32935
   32933   32934   32933   32936   32937   32939   32937   32938
   32937   32940   32941   32943   32941   32942   32941   32944
   32945   32947   32945   32946   32945   32948   32949   32951
   32949   32950   32949   32952   32953   32955   32953   32954
   32953   32956   32957   32959   32957   32958   32957   32960
   32961   32963   32961   32962   32961   32964   32965   32967
   32965   32966   32965   32968   32969   32971   32969   32970
   32969   32972   32973   32975   32973   32974   32973   32976
   32977   32979   32977   32978   32977   32980   32981   32983
   32981   32982   32981   32984   32985   32987   32985   32986
   32985   32988   32989   32991   32989   32990   32989   32992
   32993   32995   32993   32994   32993   32996   32997   32999
   32997   32998   32997   33000   33001   33003   33001   33002
   33001   33004   33005   33007   33005   33006   33005   33008
   33009   33011   33009   33010   33009   33012   33013   33015
   33013   33014   33013   33016   33017   33019   33017   33018
   33017   33020   33021   33023   33021   33022   33021   33024
   33025   33027   33025   33026   33025   33028   33029   33031
   33029   33030   33029   33032   33033   33035   33033   33034
   33033   33036   33037   33039   33037   33038   33037   33040
   33041   33043   33041   33042   33041   33044   33045   33047
   33045   33046   33045   33048   33049   33051   33049   33050
   33049   33052   33053   33055   33053   33054   33053   33056
   33057   33059   33057   33058   33057   33060   33061   33063
   33061   33062   33061   33064   33065   33067   33065   33066
   33065   33068   33069   33071   33069   33070   33069   33072
   33073   33075   33073   33074   33073   33076   33077   33079
   33077   33078   33077   33080   33081   33083   33081   33082
   33081   33084   33085   33087   33085   33086   33085   33088
   33089   33091   33089   33090   33089   33092   33093   33095
   33093   33094   33093   33096   33097   33099   33097   33098
   33097   33100   33101   33103   33101   33102   33101   33104
   33105   33107   33105   33106   33105   33108   33109   33111
   33109   33110   33109   33112   33113   33115   33113   33114
   33113   33116   33117   33119   33117   33118   33117   33120
   33121   33123   33121   33122   33121   33124   33125   33127
   33125   33126   33125   33128   33129   33131   33129   33130
   33129   33132   33133   33135   33133   33134   33133   33136
   33137   33139   33137   33138   33137   33140   33141   33143
   33141   33142   33141   33144   33145   33147   33145   33146
   33145   33148   33149   33151   33149   33150   33149   33152
   33153   33155   33153   33154   33153   33156   33157   33159
   33157   33158   33157   33160   33161   33163   33161   33162
   33161   33164   33165   33167   33165   33166   33165   33168
   33169   33171   33169   33170   33169   33172   33173   33175
   33173   33174   33173   33176   33177   33179   33177   33178
   33177   33180   33181   33183   33181   33182   33181   33184
   33185   33187   33185   33186   33185   33188   33189   33191
   33189   33190   33189   33192   33193   33195   33193   33194
   33193   33196   33197   33199   33197   33198   33197   33200
   33201   33203   33201   33202   33201   33204   33205   33207
   33205   33206   33205   33208   33209   33211   33209   33210
   33209   33212   33213   33215   33213   33214   33213   33216
   33217   33219   33217   33218   33217   33220   33221   33223
   33221   33222   33221   33224   33225   33227   33225   33226
   33225   33228   33229   33231   33229   33230   33229   33232
   33233   33235   33233   33234   33233   33236   33237   33239
   33237   33238   33237   33240   33241   33243   33241   33242
   33241   33244   33245   33247   33245   33246   33245   33248
   33249   33251   33249   33250   33249   33252   33253   33255
   33253   33254   33253   33256   33257   33259   33257   33258
   33257   33260   33261   33263   33261   33262   33261   33264
   33265   33267   33265   33266   33265   33268   33269   33271
   33269   33270   33269   33272   33273   33275   33273   33274
   33273   33276   33277   33279   33277   33278   33277   33280
   33281   33283   33281   33282   33281   33284   33285   33287
   33285   33286   33285   33288   33289   33291   33289   33290
   33289   33292   33293   33295   33293   33294   33293   33296
   33297   33299   33297   33298   33297   33300   33301   33303
   33301   33302   33301   33304   33305   33307   33305   33306
   33305   33308   33309   33311   33309   33310   33309   33312
   33313   33315   33313   33314   33313   33316   33317   33319
   33317   33318   33317   33320   33321   33323   33321   33322
   33321   33324   33325   33327   33325   33326   33325   33328
   33329   33331   33329   33330   33329   33332   33333   33335
   33333   33334   33333   33336   33337   33339   33337   33338
   33337   33340   33341   33343   33341   33342   33341   33344
   33345   33347   33345   33346   33345   33348   33349   33351
   33349   33350   33349   33352   33353   33355   33353   33354
   33353   33356   33357   33359   33357   33358   33357   33360
   33361   33363   33361   33362   33361   33364   33365   33367
   33365   33366   33365   33368   33369   33371   33369   33370
   33369   33372   33373   33375   33373   33374   33373   33376
   33377   33379   33377   33378   33377   33380   33381   33383
   33381   33382   33381   33384   33385   33387   33385   33386
   33385   33388   33389   33391   33389   33390   33389   33392
   33393   33395   33393   33394   33393   33396   33397   33399
   33397   33398   33397   33400   33401   33403   33401   33402
   33401   33404   33405   33407   33405   33406   33405   33408
   33409   33411   33409   33410   33409   33412   33413   33415
   33413   33414   33413   33416   33417   33419   33417   33418
   33417   33420   33421   33423   33421   33422   33421   33424
   33425   33427   33425   33426   33425   33428   33429   33431
   33429   33430   33429   33432   33433   33435   33433   33434
   33433   33436   33437   33439   33437   33438   33437   33440
   33441   33443   33441   33442   33441   33444   33445   33447
   33445   33446   33445   33448   33449   33451   33449   33450
   33449   33452   33453   33455   33453   33454   33453   33456
   33457   33459   33457   33458   33457   33460   33461   33463
   33461   33462   33461   33464   33465   33467   33465   33466
   33465   33468   33469   33471   33469   33470   33469   33472
   33473   33475   33473   33474   33473   33476   33477   33479
   33477   33478   33477   33480   33481   33483   33481   33482
   33481   33484   33485   33487   33485   33486   33485   33488
   33489   33491   33489   33490   33489   33492   33493   33495
   33493   33494   33493   33496   33497   33499   33497   33498
   33497   33500   33501   33503   33501   33502   33501   33504
   33505   33507   33505   33506   33505   33508   33509   33511
   33509   33510   33509   33512   33513   33515   33513   33514
   33513   33516   33517   33519   33517   33518   33517   33520
   33521   33523   33521   33522   33521   33524   33525   33527
   33525   33526   33525   33528   33529   33531   33529   33530
   33529   33532   33533   33535   33533   33534   33533   33536
   33537   33539   33537   33538   33537   33540   33541   33543
   33541   33542   33541   33544   33545   33547   33545   33546
   33545   33548   33549   33551   33549   33550   33549   33552
   33553   33555   33553   33554   33553   33556   33557   33559
   33557   33558   33557   33560   33561   33563   33561   33562
   33561   33564   33565   33567   33565   33566   33565   33568
   33569   33571   33569   33570   33569   33572   33573   33575
   33573   33574   33573   33576   33577   33579   33577   33578
   33577   33580   33581   33583   33581   33582   33581   33584
   33585   33587   33585   33586   33585   33588   33589   33591
   33589   33590   33589   33592   33593   33595   33593   33594
   33593   33596   33597   33599   33597   33598   33597   33600
   33601   33603   33601   33602   33601   33604   33605   33607
   33605   33606   33605   33608   33609   33611   33609   33610
   33609   33612   33613   33615   33613   33614   33613   33616
   33617   33619   33617   33618   33617   33620   33621   33623
   33621   33622   33621   33624   33625   33627   33625   33626
   33625   33628   33629   33631   33629   33630   33629   33632
   33633   33635   33633   33634   33633   33636   33637   33639
   33637   33638   33637   33640   33641   33643   33641   33642
   33641   33644   33645   33647   33645   33646   33645   33648
   33649   33651   33649   33650   33649   33652   33653   33655
   33653   33654   33653   33656   33657   33659   33657   33658
   33657   33660   33661   33663   33661   33662   33661   33664
   33665   33667   33665   33666   33665   33668   33669   33671
   33669   33670   33669   33672   33673   33675   33673   33674
   33673   33676   33677   33679   33677   33678   33677   33680
   33681   33683   33681   33682   33681   33684   33685   33687
   33685   33686   33685   33688   33689   33691   33689   33690
   33689   33692   33693   33695   33693   33694   33693   33696
   33697   33699   33697   33698   33697   33700   33701   33703
   33701   33702   33701   33704   33705   33707   33705   33706
   33705   33708   33709   33711   33709   33710   33709   33712
   33713   33715   33713   33714   33713   33716   33717   33719
   33717   33718   33717   33720   33721   33723   33721   33722
   33721   33724   33725   33727   33725   33726   33725   33728
   33729   33731   33729   33730   33729   33732   33733   33735
   33733   33734   33733   33736   33737   33739   33737   33738
   33737   33740   33741   33743   33741   33742   33741   33744
   33745   33747   33745   33746   33745   33748   33749   33751
   33749   33750   33749   33752   33753   33755   33753   33754
   33753   33756   33757   33759   33757   33758   33757   33760
   33761   33763   33761   33762   33761   33764   33765   33767
   33765   33766   33765   33768   33769   33771   33769   33770
   33769   33772   33773   33775   33773   33774   33773   33776
   33777   33779   33777   33778   33777   33780   33781   33783
   33781   33782   33781   33784   33785   33787   33785   33786
   33785   33788   33789   33791   33789   33790   33789   33792
   33793   33795   33793   33794   33793   33796   33797   33799
   33797   33798   33797   33800   33801   33803   33801   33802
   33801   33804   33805   33807   33805   33806   33805   33808
   33809   33811   33809   33810   33809   33812   33813   33815
   33813   33814   33813   33816   33817   33819   33817   33818
   33817   33820   33821   33823   33821   33822   33821   33824
   33825   33827   33825   33826   33825   33828   33829   33831
   33829   33830   33829   33832   33833   33835   33833   33834
   33833   33836   33837   33839   33837   33838   33837   33840
   33841   33843   33841   33842   33841   33844   33845   33847
   33845   33846   33845   33848   33849   33851   33849   33850
   33849   33852   33853   33855   33853   33854   33853   33856
   33857   33859   33857   33858   33857   33860   33861   33863
   33861   33862   33861   33864   33865   33867   33865   33866
   33865   33868   33869   33871   33869   33870   33869   33872
   33873   33875   33873   33874   33873   33876   33877   33879
   33877   33878   33877   33880   33881   33883   33881   33882
   33881   33884   33885   33887   33885   33886   33885   33888
   33889   33891   33889   33890   33889   33892   33893   33895
   33893   33894   33893   33896   33897   33899   33897   33898
   33897   33900   33901   33903   33901   33902   33901   33904
   33905   33907   33905   33906   33905   33908   33909   33911
   33909   33910   33909   33912   33913   33915   33913   33914
   33913   33916   33917   33919   33917   33918   33917   33920
   33921   33923   33921   33922   33921   33924   33925   33927
   33925   33926   33925   33928   33929   33931   33929   33930
   33929   33932   33933   33935   33933   33934   33933   33936
   33937   33939   33937   33938   33937   33940   33941   33943
   33941   33942   33941   33944   33945   33947   33945   33946
   33945   33948   33949   33951   33949   33950   33949   33952
   33953   33955   33953   33954   33953   33956   33957   33959
   33957   33958   33957   33960   33961   33963   33961   33962
   33961   33964   33965   33967   33965   33966   33965   33968
   33969   33971   33969   33970   33969   33972   33973   33975
   33973   33974   33973   33976   33977   33979   33977   33978
   33977   33980   33981   33983   33981   33982   33981   33984
   33985   33987   33985   33986   33985   33988   33989   33991
   33989   33990   33989   33992   33993   33995   33993   33994
   33993   33996   33997   33999   33997   33998   33997   34000
   34001   34003   34001   34002   34001   34004   34005   34007
   34005   34006   34005   34008   34009   34011   34009   34010
   34009   34012   34013   34015   34013   34014   34013   34016
   34017   34019   34017   34018   34017   34020   34021   34023
   34021   34022   34021   34024   34025   34027   34025   34026
   34025   34028   34029   34031   34029   34030   34029   34032
   34033   34035   34033   34034   34033   34036   34037   34039
   34037   34038   34037   34040   34041   34043   34041   34042
   34041   34044   34045   34047   34045   34046   34045   34048
   34049   34051   34049   34050   34049   34052   34053   34055
   34053   34054   34053   34056   34057   34059   34057   34058
   34057   34060   34061   34063   34061   34062   34061   34064
   34065   34067   34065   34066   34065   34068   34069   34071
   34069   34070   34069   34072   34073   34075   34073   34074
   34073   34076   34077   34079   34077   34078   34077   34080
   34081   34083   34081   34082   34081   34084   34085   34087
   34085   34086   34085   34088   34089   34091   34089   34090
   34089   34092   34093   34095   34093   34094   34093   34096
   34097   34099   34097   34098   34097   34100   34101   34103
   34101   34102   34101   34104   34105   34107   34105   34106
   34105   34108   34109   34111   34109   34110   34109   34112
   34113   34115   34113   34114   34113   34116   34117   34119
   34117   34118   34117   34120   34121   34123   34121   34122
   34121   34124   34125   34127   34125   34126   34125   34128
   34129   34131   34129   34130   34129   34132   34133   34135
   34133   34134   34133   34136   34137   34139   34137   34138
   34137   34140   34141   34143   34141   34142   34141   34144
   34145   34147   34145   34146   34145   34148   34149   34151
   34149   34150   34149   34152   34153   34155   34153   34154
   34153   34156   34157   34159   34157   34158   34157   34160
   34161   34163   34161   34162   34161   34164   34165   34167
   34165   34166   34165   34168   34169   34171   34169   34170
   34169   34172   34173   34175   34173   34174   34173   34176
   34177   34179   34177   34178   34177   34180   34181   34183
   34181   34182   34181   34184   34185   34187   34185   34186
   34185   34188   34189   34191   34189   34190   34189   34192
   34193   34195   34193   34194   34193   34196   34197   34199
   34197   34198   34197   34200   34201   34203   34201   34202
   34201   34204   34205   34207   34205   34206   34205   34208
   34209   34211   34209   34210   34209   34212   34213   34215
   34213   34214   34213   34216   34217   34219   34217   34218
   34217   34220   34221   34223   34221   34222   34221   34224
   34225   34227   34225   34226   34225   34228   34229   34231
   34229   34230   34229   34232   34233   34235   34233   34234
   34233   34236   34237   34239   34237   34238   34237   34240
   34241   34243   34241   34242   34241   34244   34245   34247
   34245   34246   34245   34248   34249   34251   34249   34250
   34249   34252   34253   34255   34253   34254   34253   34256
   34257   34259   34257   34258   34257   34260   34261   34263
   34261   34262   34261   34264   34265   34267   34265   34266
   34265   34268   34269   34271   34269   34270   34269   34272
   34273   34275   34273   34274   34273   34276   34277   34279
   34277   34278   34277   34280   34281   34283   34281   34282
   34281   34284   34285   34287   34285   34286   34285   34288
   34289   34291   34289   34290   34289   34292   34293   34295
   34293   34294   34293   34296   34297   34299   34297   34298
   34297   34300   34301   34303   34301   34302   34301   34304
   34305   34307   34305   34306   34305   34308   34309   34311
   34309   34310   34309   34312   34313   34315   34313   34314
   34313   34316   34317   34319   34317   34318   34317   34320
   34321   34323   34321   34322   34321   34324   34325   34327
   34325   34326   34325   34328   34329   34331   34329   34330
   34329   34332   34333   34335   34333   34334   34333   34336
   34337   34339   34337   34338   34337   34340   34341   34343
   34341   34342   34341   34344   34345   34347   34345   34346
   34345   34348   34349   34351   34349   34350   34349   34352
   34353   34355   34353   34354   34353   34356   34357   34359
   34357   34358   34357   34360   34361   34363   34361   34362
   34361   34364   34365   34367   34365   34366   34365   34368
   34369   34371   34369   34370   34369   34372   34373   34375
   34373   34374   34373   34376   34377   34379   34377   34378
   34377   34380   34381   34383   34381   34382   34381   34384
   34385   34387   34385   34386   34385   34388   34389   34391
   34389   34390   34389   34392   34393   34395   34393   34394
   34393   34396   34397   34399   34397   34398   34397   34400
   34401   34403   34401   34402   34401   34404   34405   34407
   34405   34406   34405   34408   34409   34411   34409   34410
   34409   34412   34413   34415   34413   34414   34413   34416
   34417   34419   34417   34418   34417   34420   34421   34423
   34421   34422   34421   34424   34425   34427   34425   34426
   34425   34428   34429   34431   34429   34430   34429   34432
   34433   34435   34433   34434   34433   34436   34437   34439
   34437   34438   34437   34440   34441   34443   34441   34442
   34441   34444   34445   34447   34445   34446   34445   34448
   34449   34451   34449   34450   34449   34452   34453   34455
   34453   34454   34453   34456   34457   34459   34457   34458
   34457   34460   34461   34463   34461   34462   34461   34464
   34465   34467   34465   34466   34465   34468   34469   34471
   34469   34470   34469   34472   34473   34475   34473   34474
   34473   34476   34477   34479   34477   34478   34477   34480
   34481   34483   34481   34482   34481   34484   34485   34487
   34485   34486   34485   34488   34489   34491   34489   34490
   34489   34492   34493   34495   34493   34494   34493   34496
   34497   34499   34497   34498   34497   34500   34501   34503
   34501   34502   34501   34504   34505   34507   34505   34506
   34505   34508   34509   34511   34509   34510   34509   34512
   34513   34515   34513   34514   34513   34516   34517   34519
   34517   34518   34517   34520   34521   34523   34521   34522
   34521   34524   34525   34527   34525   34526   34525   34528
   34529   34531   34529   34530   34529   34532   34533   34535
   34533   34534   34533   34536   34537   34539   34537   34538
   34537   34540   34541   34543   34541   34542   34541   34544
   34545   34547   34545   34546   34545   34548   34549   34551
   34549   34550   34549   34552   34553   34555   34553   34554
   34553   34556   34557   34559   34557   34558   34557   34560
   34561   34563   34561   34562   34561   34564   34565   34567
   34565   34566   34565   34568   34569   34571   34569   34570
   34569   34572   34573   34575   34573   34574   34573   34576
   34577   34579   34577   34578   34577   34580   34581   34583
   34581   34582   34581   34584   34585   34587   34585   34586
   34585   34588   34589   34591   34589   34590   34589   34592
   34593   34595   34593   34594   34593   34596   34597   34599
   34597   34598   34597   34600   34601   34603   34601   34602
   34601   34604   34605   34607   34605   34606   34605   34608
   34609   34611   34609   34610   34609   34612   34613   34615
   34613   34614   34613   34616   34617   34619   34617   34618
   34617   34620   34621   34623   34621   34622   34621   34624
   34625   34627   34625   34626   34625   34628   34629   34631
   34629   34630   34629   34632   34633   34635   34633   34634
   34633   34636   34637   34639   34637   34638   34637   34640
   34641   34643   34641   34642   34641   34644   34645   34647
   34645   34646   34645   34648   34649   34651   34649   34650
   34649   34652   34653   34655   34653   34654   34653   34656
   34657   34659   34657   34658   34657   34660   34661   34663
   34661   34662   34661   34664   34665   34667   34665   34666
   34665   34668   34669   34671   34669   34670   34669   34672
   34673   34675   34673   34674   34673   34676   34677   34679
   34677   34678   34677   34680   34681   34683   34681   34682
   34681   34684   34685   34687   34685   34686   34685   34688
   34689   34691   34689   34690   34689   34692   34693   34695
   34693   34694   34693   34696   34697   34699   34697   34698
   34697   34700   34701   34703   34701   34702   34701   34704
   34705   34707   34705   34706   34705   34708   34709   34711
   34709   34710   34709   34712   34713   34715   34713   34714
   34713   34716   34717   34719   34717   34718   34717   34720
   34721   34723   34721   34722   34721   34724   34725   34727
   34725   34726   34725   34728   34729   34731   34729   34730
   34729   34732   34733   34735   34733   34734   34733   34736
   34737   34739   34737   34738   34737   34740   34741   34743
   34741   34742   34741   34744   34745   34747   34745   34746
   34745   34748   34749   34751   34749   34750   34749   34752
   34753   34755   34753   34754   34753   34756   34757   34759
   34757   34758   34757   34760   34761   34763   34761   34762
   34761   34764   34765   34767   34765   34766   34765   34768
   34769   34771   34769   34770   34769   34772   34773   34775
   34773   34774   34773   34776   34777   34779   34777   34778
   34777   34780   34781   34783   34781   34782   34781   34784
   34785   34787   34785   34786   34785   34788   34789   34791
   34789   34790   34789   34792   34793   34795   34793   34794
   34793   34796   34797   34799   34797   34798   34797   34800
   34801   34803   34801   34802   34801   34804   34805   34807
   34805   34806   34805   34808   34809   34811   34809   34810
   34809   34812   34813   34815   34813   34814   34813   34816
   34817   34819   34817   34818   34817   34820   34821   34823
   34821   34822   34821   34824   34825   34827   34825   34826
   34825   34828   34829   34831   34829   34830   34829   34832
   34833   34835   34833   34834   34833   34836   34837   34839
   34837   34838   34837   34840   34841   34843   34841   34842
   34841   34844   34845   34847   34845   34846   34845   34848
   34849   34851   34849   34850   34849   34852   34853   34855
   34853   34854   34853   34856   34857   34859   34857   34858
   34857   34860   34861   34863   34861   34862   34861   34864
   34865   34867   34865   34866   34865   34868   34869   34871
   34869   34870   34869   34872   34873   34875   34873   34874
   34873   34876   34877   34879   34877   34878   34877   34880
   34881   34883   34881   34882   34881   34884   34885   34887
   34885   34886   34885   34888   34889   34891   34889   34890
   34889   34892   34893   34895   34893   34894   34893   34896
   34897   34899   34897   34898   34897   34900   34901   34903
   34901   34902   34901   34904   34905   34907   34905   34906
   34905   34908   34909   34911   34909   34910   34909   34912
   34913   34915   34913   34914   34913   34916   34917   34919
   34917   34918   34917   34920   34921   34923   34921   34922
   34921   34924   34925   34927   34925   34926   34925   34928
   34929   34931   34929   34930   34929   34932   34933   34935
   34933   34934   34933   34936   34937   34939   34937   34938
   34937   34940   34941   34943   34941   34942   34941   34944
   34945   34947   34945   34946   34945   34948   34949   34951
   34949   34950   34949   34952   34953   34955   34953   34954
   34953   34956   34957   34959   34957   34958   34957   34960
   34961   34963   34961   34962   34961   34964   34965   34967
   34965   34966   34965   34968   34969   34971   34969   34970
   34969   34972   34973   34975   34973   34974   34973   34976
   34977   34979   34977   34978   34977   34980   34981   34983
   34981   34982   34981   34984   34985   34987   34985   34986
   34985   34988   34989   34991   34989   34990   34989   34992
   34993   34995   34993   34994   34993   34996   34997   34999
   34997   34998   34997   35000   35001   35003   35001   35002
   35001   35004   35005   35007   35005   35006   35005   35008
   35009   35011   35009   35010   35009   35012   35013   35015
   35013   35014   35013   35016   35017   35019   35017   35018
   35017   35020   35021   35023   35021   35022   35021   35024
   35025   35027   35025   35026   35025   35028   35029   35031
   35029   35030   35029   35032   35033   35035   35033   35034
   35033   35036   35037   35039   35037   35038   35037   35040
   35041   35043   35041   35042   35041   35044   35045   35047
   35045   35046   35045   35048   35049   35051   35049   35050
   35049   35052   35053   35055   35053   35054   35053   35056
   35057   35059   35057   35058   35057   35060   35061   35063
   35061   35062   35061   35064   35065   35067   35065   35066
   35065   35068   35069   35071   35069   35070   35069   35072
   35073   35075   35073   35074   35073   35076   35077   35079
   35077   35078   35077   35080   35081   35083   35081   35082
   35081   35084   35085   35087   35085   35086   35085   35088
   35089   35091   35089   35090   35089   35092   35093   35095
   35093   35094   35093   35096   35097   35099   35097   35098
   35097   35100   35101   35103   35101   35102   35101   35104
   35105   35107   35105   35106   35105   35108   35109   35111
   35109   35110   35109   35112   35113   35115   35113   35114
   35113   35116   35117   35119   35117   35118   35117   35120
   35121   35123   35121   35122   35121   35124   35125   35127
   35125   35126   35125   35128   35129   35131   35129   35130
   35129   35132   35133   35135   35133   35134   35133   35136
   35137   35139   35137   35138   35137   35140   35141   35143
   35141   35142   35141   35144   35145   35147   35145   35146
   35145   35148   35149   35151   35149   35150   35149   35152
   35153   35155   35153   35154   35153   35156   35157   35159
   35157   35158   35157   35160   35161   35163   35161   35162
   35161   35164   35165   35167   35165   35166   35165   35168
   35169   35171   35169   35170   35169   35172   35173   35175
   35173   35174   35173   35176   35177   35179   35177   35178
   35177   35180   35181   35183   35181   35182   35181   35184
   35185   35187   35185   35186   35185   35188   35189   35191
   35189   35190   35189   35192   35193   35195   35193   35194
   35193   35196   35197   35199   35197   35198   35197   35200
   35201   35203   35201   35202   35201   35204   35205   35207
   35205   35206   35205   35208   35209   35211   35209   35210
   35209   35212   35213   35215   35213   35214   35213   35216
   35217   35219   35217   35218   35217   35220   35221   35223
   35221   35222   35221   35224   35225   35227   35225   35226
   35225   35228   35229   35231   35229   35230   35229   35232
   35233   35235   35233   35234   35233   35236   35237   35239
   35237   35238   35237   35240   35241   35243   35241   35242
   35241   35244   35245   35247   35245   35246   35245   35248
   35249   35251   35249   35250   35249   35252   35253   35255
   35253   35254   35253   35256   35257   35259   35257   35258
   35257   35260   35261   35263   35261   35262   35261   35264
   35265   35267   35265   35266   35265   35268   35269   35271
   35269   35270   35269   35272   35273   35275   35273   35274
   35273   35276   35277   35279   35277   35278   35277   35280
   35281   35283   35281   35282   35281   35284   35285   35287
   35285   35286   35285   35288   35289   35291   35289   35290
   35289   35292   35293   35295   35293   35294   35293   35296
   35297   35299   35297   35298   35297   35300   35301   35303
   35301   35302   35301   35304   35305   35307   35305   35306
   35305   35308   35309   35311   35309   35310   35309   35312
   35313   35315   35313   35314   35313   35316   35317   35319
   35317   35318   35317   35320   35321   35323   35321   35322
   35321   35324   35325   35327   35325   35326   35325   35328
   35329   35331   35329   35330   35329   35332   35333   35335
   35333   35334   35333   35336   35337   35339   35337   35338
   35337   35340   35341   35343   35341   35342   35341   35344
   35345   35347   35345   35346   35345   35348   35349   35351
   35349   35350   35349   35352   35353   35355   35353   35354
   35353   35356   35357   35359   35357   35358   35357   35360
   35361   35363   35361   35362   35361   35364   35365   35367
   35365   35366   35365   35368   35369   35371   35369   35370
   35369   35372   35373   35375   35373   35374   35373   35376
   35377   35379   35377   35378   35377   35380   35381   35383
   35381   35382   35381   35384   35385   35387   35385   35386
   35385   35388   35389   35391   35389   35390   35389   35392
   35393   35395   35393   35394   35393   35396   35397   35399
   35397   35398   35397   35400   35401   35403   35401   35402
   35401   35404   35405   35407   35405   35406   35405   35408
   35409   35411   35409   35410   35409   35412   35413   35415
   35413   35414   35413   35416   35417   35419   35417   35418
   35417   35420   35421   35423   35421   35422   35421   35424
   35425   35427   35425   35426   35425   35428   35429   35431
   35429   35430   35429   35432   35433   35435   35433   35434
   35433   35436   35437   35439   35437   35438   35437   35440
   35441   35443   35441   35442   35441   35444   35445   35447
   35445   35446   35445   35448   35449   35451   35449   35450
   35449   35452   35453   35455   35453   35454   35453   35456
   35457   35459   35457   35458   35457   35460   35461   35463
   35461   35462   35461   35464   35465   35467   35465   35466
   35465   35468   35469   35471   35469   35470   35469   35472
   35473   35475   35473   35474   35473   35476   35477   35479
   35477   35478   35477   35480   35481   35483   35481   35482
   35481   35484   35485   35487   35485   35486   35485   35488
   35489   35491   35489   35490   35489   35492   35493   35495
   35493   35494   35493   35496   35497   35499   35497   35498
   35497   35500   35501   35503   35501   35502   35501   35504
   35505   35507   35505   35506   35505   35508   35509   35511
   35509   35510   35509   35512   35513   35515   35513   35514
   35513   35516   35517   35519   35517   35518   35517   35520
   35521   35523   35521   35522   35521   35524   35525   35527
   35525   35526   35525   35528   35529   35531   35529   35530
   35529   35532   35533   35535   35533   35534   35533   35536
   35537   35539   35537   35538   35537   35540   35541   35543
   35541   35542   35541   35544   35545   35547   35545   35546
   35545   35548   35549   35551   35549   35550   35549   35552
   35553   35555   35553   35554   35553   35556   35557   35559
   35557   35558   35557   35560   35561   35563   35561   35562
   35561   35564   35565   35567   35565   35566   35565   35568
   35569   35571   35569   35570   35569   35572   35573   35575
   35573   35574   35573   35576   35577   35579   35577   35578
   35577   35580   35581   35583   35581   35582   35581   35584
   35585   35587   35585   35586   35585   35588   35589   35591
   35589   35590   35589   35592   35593   35595   35593   35594
   35593   35596   35597   35599   35597   35598   35597   35600
   35601   35603   35601   35602   35601   35604   35605   35607
   35605   35606   35605   35608   35609   35611   35609   35610
   35609   35612   35613   35615   35613   35614   35613   35616
   35617   35619   35617   35618   35617   35620   35621   35623
   35621   35622   35621   35624   35625   35627   35625   35626
   35625   35628   35629   35631   35629   35630   35629   35632
   35633   35635   35633   35634   35633   35636   35637   35639
   35637   35638   35637   35640   35641   35643   35641   35642
   35641   35644   35645   35647   35645   35646   35645   35648
   35649   35651   35649   35650   35649   35652   35653   35655
   35653   35654   35653   35656   35657   35659   35657   35658
   35657   35660   35661   35663   35661   35662   35661   35664
   35665   35667   35665   35666   35665   35668   35669   35671
   35669   35670   35669   35672   35673   35675   35673   35674
   35673   35676   35677   35679   35677   35678   35677   35680
   35681   35683   35681   35682   35681   35684   35685   35687
   35685   35686   35685   35688   35689   35691   35689   35690
   35689   35692   35693   35695   35693   35694   35693   35696
   35697   35699   35697   35698   35697   35700   35701   35703
   35701   35702   35701   35704   35705   35707   35705   35706
   35705   35708   35709   35711   35709   35710   35709   35712
   35713   35715   35713   35714   35713   35716   35717   35719
   35717   35718   35717   35720   35721   35723   35721   35722
   35721   35724   35725   35727   35725   35726   35725   35728
   35729   35731   35729   35730   35729   35732   35733   35735
   35733   35734   35733   35736   35737   35739   35737   35738
   35737   35740   35741   35743   35741   35742   35741   35744
   35745   35747   35745   35746   35745   35748   35749   35751
   35749   35750   35749   35752   35753   35755   35753   35754
   35753   35756   35757   35759   35757   35758   35757   35760
   35761   35763   35761   35762   35761   35764   35765   35767
   35765   35766   35765   35768   35769   35771   35769   35770
   35769   35772   35773   35775   35773   35774   35773   35776
   35777   35779   35777   35778   35777   35780   35781   35783
   35781   35782   35781   35784   35785   35787   35785   35786
   35785   35788   35789   35791   35789   35790   35789   35792
   35793   35795   35793   35794   35793   35796   35797   35799
   35797   35798   35797   35800   35801   35803   35801   35802
   35801   35804   35805   35807   35805   35806   35805   35808
   35809   35811   35809   35810   35809   35812   35813   35815
   35813   35814   35813   35816   35817   35819   35817   35818
   35817   35820   35821   35823   35821   35822   35821   35824
   35825   35827   35825   35826   35825   35828   35829   35831
   35829   35830   35829   35832   35833   35835   35833   35834
   35833   35836   35837   35839   35837   35838   35837   35840
   35841   35843   35841   35842   35841   35844   35845   35847
   35845   35846   35845   35848   35849   35851   35849   35850
   35849   35852   35853   35855   35853   35854   35853   35856
   35857   35859   35857   35858   35857   35860   35861   35863
   35861   35862   35861   35864   35865   35867   35865   35866
   35865   35868   35869   35871   35869   35870   35869   35872
   35873   35875   35873   35874   35873   35876   35877   35879
   35877   35878   35877   35880   35881   35883   35881   35882
   35881   35884   35885   35887   35885   35886   35885   35888
   35889   35891   35889   35890   35889   35892   35893   35895
   35893   35894   35893   35896   35897   35899   35897   35898
   35897   35900   35901   35903   35901   35902   35901   35904
   35905   35907   35905   35906   35905   35908   35909   35911
   35909   35910   35909   35912   35913   35915   35913   35914
   35913   35916   35917   35919   35917   35918   35917   35920
   35921   35923   35921   35922   35921   35924   35925   35927
   35925   35926   35925   35928   35929   35931   35929   35930
   35929   35932   35933   35935   35933   35934   35933   35936
   35937   35939   35937   35938   35937   35940   35941   35943
   35941   35942   35941   35944   35945   35947   35945   35946
   35945   35948   35949   35951   35949   35950   35949   35952
   35953   35955   35953   35954   35953   35956   35957   35959
   35957   35958   35957   35960   35961   35963   35961   35962
   35961   35964   35965   35967   35965   35966   35965   35968
   35969   35971   35969   35970   35969   35972   35973   35975
   35973   35974   35973   35976   35977   35979   35977   35978
   35977   35980   35981   35983   35981   35982   35981   35984
   35985   35987   35985   35986   35985   35988   35989   35991
   35989   35990   35989   35992   35993   35995   35993   35994
   35993   35996   35997   35999   35997   35998   35997   36000
   36001   36003   36001   36002   36001   36004   36005   36007
   36005   36006   36005   36008   36009   36011   36009   36010
   36009   36012   36013   36015   36013   36014   36013   36016
   36017   36019   36017   36018   36017   36020   36021   36023
   36021   36022   36021   36024   36025   36027   36025   36026
   36025   36028   36029   36031   36029   36030   36029   36032
   36033   36035   36033   36034   36033   36036   36037   36039
   36037   36038   36037   36040   36041   36043   36041   36042
   36041   36044   36045   36047   36045   36046   36045   36048
   36049   36051   36049   36050   36049   36052   36053   36055
   36053   36054   36053   36056   36057   36059   36057   36058
   36057   36060   36061   36063   36061   36062   36061   36064
   36065   36067   36065   36066   36065   36068   36069   36071
   36069   36070   36069   36072   36073   36075   36073   36074
   36073   36076   36077   36079   36077   36078   36077   36080
   36081   36083   36081   36082   36081   36084   36085   36087
   36085   36086   36085   36088   36089   36091   36089   36090
   36089   36092   36093   36095   36093   36094   36093   36096
   36097   36099   36097   36098   36097   36100   36101   36103
   36101   36102   36101   36104   36105   36107   36105   36106
   36105   36108   36109   36111   36109   36110   36109   36112
   36113   36115   36113   36114   36113   36116   36117   36119
   36117   36118   36117   36120   36121   36123   36121   36122
   36121   36124   36125   36127   36125   36126   36125   36128
   36129   36131   36129   36130   36129   36132   36133   36135
   36133   36134   36133   36136   36137   36139   36137   36138
   36137   36140   36141   36143   36141   36142   36141   36144
   36145   36147   36145   36146   36145   36148   36149   36151
   36149   36150   36149   36152   36153   36155   36153   36154
   36153   36156   36157   36159   36157   36158   36157   36160
   36161   36163   36161   36162   36161   36164   36165   36167
   36165   36166   36165   36168   36169   36171   36169   36170
   36169   36172   36173   36175   36173   36174   36173   36176
   36177   36179   36177   36178   36177   36180   36181   36183
   36181   36182   36181   36184   36185   36187   36185   36186
   36185   36188   36189   36191   36189   36190   36189   36192
   36193   36195   36193   36194   36193   36196   36197   36199
   36197   36198   36197   36200   36201   36203   36201   36202
   36201   36204   36205   36207   36205   36206   36205   36208
   36209   36211   36209   36210   36209   36212   36213   36215
   36213   36214   36213   36216   36217   36219   36217   36218
   36217   36220   36221   36223   36221   36222   36221   36224
   36225   36227   36225   36226   36225   36228   36229   36231
   36229   36230   36229   36232   36233   36235   36233   36234
   36233   36236   36237   36239   36237   36238   36237   36240
   36241   36243   36241   36242   36241   36244   36245   36247
   36245   36246   36245   36248   36249   36251   36249   36250
   36249   36252   36253   36255   36253   36254   36253   36256
   36257   36259   36257   36258   36257   36260   36261   36263
   36261   36262   36261   36264   36265   36267   36265   36266
   36265   36268   36269   36271   36269   36270   36269   36272
   36273   36275   36273   36274   36273   36276   36277   36279
   36277   36278   36277   36280   36281   36283   36281   36282
   36281   36284   36285   36287   36285   36286   36285   36288
   36289   36291   36289   36290   36289   36292   36293   36295
   36293   36294   36293   36296   36297   36299   36297   36298
   36297   36300   36301   36303   36301   36302   36301   36304
   36305   36307   36305   36306   36305   36308   36309   36311
   36309   36310   36309   36312   36313   36315   36313   36314
   36313   36316   36317   36319   36317   36318   36317   36320
   36321   36323   36321   36322   36321   36324   36325   36327
   36325   36326   36325   36328   36329   36331   36329   36330
   36329   36332   36333   36335   36333   36334   36333   36336
   36337   36339   36337   36338   36337   36340   36341   36343
   36341   36342   36341   36344   36345   36347   36345   36346
   36345   36348   36349   36351   36349   36350   36349   36352
   36353   36355   36353   36354   36353   36356   36357   36359
   36357   36358   36357   36360   36361   36363   36361   36362
   36361   36364   36365   36367   36365   36366   36365   36368
   36369   36371   36369   36370   36369   36372   36373   36375
   36373   36374   36373   36376   36377   36379   36377   36378
   36377   36380   36381   36383   36381   36382   36381   36384
   36385   36387   36385   36386   36385   36388   36389   36391
   36389   36390   36389   36392   36393   36395   36393   36394
   36393   36396   36397   36399   36397   36398   36397   36400
   36401   36403   36401   36402   36401   36404   36405   36407
   36405   36406   36405   36408   36409   36411   36409   36410
   36409   36412   36413   36415   36413   36414   36413   36416
   36417   36419   36417   36418   36417   36420   36421   36423
   36421   36422   36421   36424   36425   36427   36425   36426
   36425   36428   36429   36431   36429   36430   36429   36432
   36433   36435   36433   36434   36433   36436   36437   36439
   36437   36438   36437   36440   36441   36443   36441   36442
   36441   36444   36445   36447   36445   36446   36445   36448
   36449   36451   36449   36450   36449   36452   36453   36455
   36453   36454   36453   36456   36457   36459   36457   36458
   36457   36460   36461   36463   36461   36462   36461   36464
   36465   36467   36465   36466   36465   36468   36469   36471
   36469   36470   36469   36472   36473   36475   36473   36474
   36473   36476   36477   36479   36477   36478   36477   36480
   36481   36483   36481   36482   36481   36484   36485   36487
   36485   36486   36485   36488   36489   36491   36489   36490
   36489   36492   36493   36495   36493   36494   36493   36496
   36497   36499   36497   36498   36497   36500   36501   36503
   36501   36502   36501   36504   36505   36507   36505   36506
   36505   36508   36509   36511   36509   36510   36509   36512
   36513   36515   36513   36514   36513   36516   36517   36519
   36517   36518   36517   36520   36521   36523   36521   36522
   36521   36524   36525   36527   36525   36526   36525   36528
   36529   36531   36529   36530   36529   36532   36533   36535
   36533   36534   36533   36536   36537   36539   36537   36538
   36537   36540   36541   36543   36541   36542   36541   36544
   36545   36547   36545   36546   36545   36548   36549   36551
   36549   36550   36549   36552   36553   36555   36553   36554
   36553   36556   36557   36559   36557   36558   36557   36560
   36561   36563   36561   36562   36561   36564   36565   36567
   36565   36566   36565   36568   36569   36571   36569   36570
   36569   36572   36573   36575   36573   36574   36573   36576
   36577   36579   36577   36578   36577   36580   36581   36583
   36581   36582   36581   36584   36585   36587   36585   36586
   36585   36588   36589   36591   36589   36590   36589   36592
   36593   36595   36593   36594   36593   36596   36597   36599
   36597   36598   36597   36600   36601   36603   36601   36602
   36601   36604   36605   36607   36605   36606   36605   36608
   36609   36611   36609   36610   36609   36612   36613   36615
   36613   36614   36613   36616   36617   36619   36617   36618
   36617   36620   36621   36623   36621   36622   36621   36624
   36625   36627   36625   36626   36625   36628   36629   36631
   36629   36630   36629   36632   36633   36635   36633   36634
   36633   36636   36637   36639   36637   36638   36637   36640
   36641   36643   36641   36642   36641   36644   36645   36647
   36645   36646   36645   36648   36649   36651   36649   36650
   36649   36652   36653   36655   36653   36654   36653   36656
   36657   36659   36657   36658   36657   36660   36661   36663
   36661   36662   36661   36664   36665   36667   36665   36666
   36665   36668   36669   36671   36669   36670   36669   36672
   36673   36675   36673   36674   36673   36676   36677   36679
   36677   36678   36677   36680   36681   36683   36681   36682
   36681   36684   36685   36687   36685   36686   36685   36688
   36689   36691   36689   36690   36689   36692   36693   36695
   36693   36694   36693   36696   36697   36699   36697   36698
   36697   36700   36701   36703   36701   36702   36701   36704
   36705   36707   36705   36706   36705   36708   36709   36711
   36709   36710   36709   36712   36713   36715   36713   36714
   36713   36716   36717   36719   36717   36718   36717   36720
   36721   36723   36721   36722   36721   36724   36725   36727
   36725   36726   36725   36728   36729   36731   36729   36730
   36729   36732   36733   36735   36733   36734   36733   36736
   36737   36739   36737   36738   36737   36740   36741   36743
   36741   36742   36741   36744   36745   36747   36745   36746
   36745   36748   36749   36751   36749   36750   36749   36752
   36753   36755   36753   36754   36753   36756   36757   36759
   36757   36758   36757   36760   36761   36763   36761   36762
   36761   36764   36765   36767   36765   36766   36765   36768
   36769   36771   36769   36770   36769   36772   36773   36775
   36773   36774   36773   36776   36777   36779   36777   36778
   36777   36780   36781   36783   36781   36782   36781   36784
   36785   36787   36785   36786   36785   36788   36789   36791
   36789   36790   36789   36792   36793   36795   36793   36794
   36793   36796   36797   36799   36797   36798   36797   36800
   36801   36803   36801   36802   36801   36804   36805   36807
   36805   36806   36805   36808   36809   36811   36809   36810
   36809   36812   36813   36815   36813   36814   36813   36816
   36817   36819   36817   36818   36817   36820   36821   36823
   36821   36822   36821   36824   36825   36827   36825   36826
   36825   36828   36829   36831   36829   36830   36829   36832
   36833   36835   36833   36834   36833   36836   36837   36839
   36837   36838   36837   36840   36841   36843   36841   36842
   36841   36844   36845   36847   36845   36846   36845   36848
   36849   36851   36849   36850   36849   36852   36853   36855
   36853   36854   36853   36856   36857   36859   36857   36858
   36857   36860   36861   36863   36861   36862   36861   36864
   36865   36867   36865   36866   36865   36868   36869   36871
   36869   36870   36869   36872   36873   36875   36873   36874
   36873   36876   36877   36879   36877   36878   36877   36880
   36881   36883   36881   36882   36881   36884   36885   36887
   36885   36886   36885   36888   36889   36891   36889   36890
   36889   36892   36893   36895   36893   36894   36893   36896
   36897   36899   36897   36898   36897   36900   36901   36903
   36901   36902   36901   36904   36905   36907   36905   36906
   36905   36908   36909   36911   36909   36910   36909   36912
   36913   36915   36913   36914   36913   36916   36917   36919
   36917   36918   36917   36920   36921   36923   36921   36922
   36921   36924   36925   36927   36925   36926   36925   36928
   36929   36931   36929   36930   36929   36932   36933   36935
   36933   36934   36933   36936   36937   36939   36937   36938
   36937   36940   36941   36943   36941   36942   36941   36944
   36945   36947   36945   36946   36945   36948   36949   36951
   36949   36950   36949   36952   36953   36955   36953   36954
   36953   36956   36957   36959   36957   36958   36957   36960
   36961   36963   36961   36962   36961   36964   36965   36967
   36965   36966   36965   36968   36969   36971   36969   36970
   36969   36972   36973   36975   36973   36974   36973   36976
   36977   36979   36977   36978   36977   36980   36981   36983
   36981   36982   36981   36984   36985   36987   36985   36986
   36985   36988   36989   36991   36989   36990   36989   36992
   36993   36995   36993   36994   36993   36996   36997   36999
   36997   36998   36997   37000   37001   37003   37001   37002
   37001   37004   37005   37007   37005   37006   37005   37008
   37009   37011   37009   37010   37009   37012   37013   37015
   37013   37014   37013   37016   37017   37019   37017   37018
   37017   37020   37021   37023   37021   37022   37021   37024
   37025   37027   37025   37026   37025   37028   37029   37031
   37029   37030   37029   37032   37033   37035   37033   37034
   37033   37036   37037   37039   37037   37038   37037   37040
   37041   37043   37041   37042   37041   37044   37045   37047
   37045   37046   37045   37048   37049   37051   37049   37050
   37049   37052   37053   37055   37053   37054   37053   37056
   37057   37059   37057   37058   37057   37060   37061   37063
   37061   37062   37061   37064   37065   37067   37065   37066
   37065   37068   37069   37071   37069   37070   37069   37072
   37073   37075   37073   37074   37073   37076   37077   37079
   37077   37078   37077   37080   37081   37083   37081   37082
   37081   37084   37085   37087   37085   37086   37085   37088
   37089   37091   37089   37090   37089   37092   37093   37095
   37093   37094   37093   37096   37097   37099   37097   37098
   37097   37100   37101   37103   37101   37102   37101   37104
   37105   37107   37105   37106   37105   37108   37109   37111
   37109   37110   37109   37112   37113   37115   37113   37114
   37113   37116   37117   37119   37117   37118   37117   37120
   37121   37123   37121   37122   37121   37124   37125   37127
   37125   37126   37125   37128   37129   37131   37129   37130
   37129   37132   37133   37135   37133   37134   37133   37136
   37137   37139   37137   37138   37137   37140   37141   37143
   37141   37142   37141   37144   37145   37147   37145   37146
   37145   37148   37149   37151   37149   37150   37149   37152
   37153   37155   37153   37154   37153   37156   37157   37159
   37157   37158   37157   37160   37161   37163   37161   37162
   37161   37164   37165   37167   37165   37166   37165   37168
   37169   37171   37169   37170   37169   37172   37173   37175
   37173   37174   37173   37176   37177   37179   37177   37178
   37177   37180   37181   37183   37181   37182   37181   37184
   37185   37187   37185   37186   37185   37188   37189   37191
   37189   37190   37189   37192   37193   37195   37193   37194
   37193   37196   37197   37199   37197   37198   37197   37200
   37201   37203   37201   37202   37201   37204   37205   37207
   37205   37206   37205   37208   37209   37211   37209   37210
   37209   37212   37213   37215   37213   37214   37213   37216
   37217   37219   37217   37218   37217   37220   37221   37223
   37221   37222   37221   37224   37225   37227   37225   37226
   37225   37228   37229   37231   37229   37230   37229   37232
   37233   37235   37233   37234   37233   37236   37237   37239
   37237   37238   37237   37240   37241   37243   37241   37242
   37241   37244   37245   37247   37245   37246   37245   37248
   37249   37251   37249   37250   37249   37252   37253   37255
   37253   37254   37253   37256   37257   37259   37257   37258
   37257   37260   37261   37263   37261   37262   37261   37264
   37265   37267   37265   37266   37265   37268   37269   37271
   37269   37270   37269   37272   37273   37275   37273   37274
   37273   37276   37277   37279   37277   37278   37277   37280
   37281   37283   37281   37282   37281   37284   37285   37287
   37285   37286   37285   37288   37289   37291   37289   37290
   37289   37292   37293   37295   37293   37294   37293   37296
   37297   37299   37297   37298   37297   37300   37301   37303
   37301   37302   37301   37304   37305   37307   37305   37306
   37305   37308   37309   37311   37309   37310   37309   37312
   37313   37315   37313   37314   37313   37316   37317   37319
   37317   37318   37317   37320   37321   37323   37321   37322
   37321   37324   37325   37327   37325   37326   37325   37328
   37329   37331   37329   37330   37329   37332   37333   37335
   37333   37334   37333   37336   37337   37339   37337   37338
   37337   37340   37341   37343   37341   37342   37341   37344
   37345   37347   37345   37346   37345   37348   37349   37351
   37349   37350   37349   37352   37353   37355   37353   37354
   37353   37356   37357   37359   37357   37358   37357   37360
   37361   37363   37361   37362   37361   37364   37365   37367
   37365   37366   37365   37368   37369   37371   37369   37370
   37369   37372   37373   37375   37373   37374   37373   37376
   37377   37379   37377   37378   37377   37380   37381   37383
   37381   37382   37381   37384   37385   37387   37385   37386
   37385   37388   37389   37391   37389   37390   37389   37392
   37393   37395   37393   37394   37393   37396   37397   37399
   37397   37398   37397   37400   37401   37403   37401   37402
   37401   37404   37405   37407   37405   37406   37405   37408
   37409   37411   37409   37410   37409   37412   37413   37415
   37413   37414   37413   37416   37417   37419   37417   37418
   37417   37420   37421   37423   37421   37422   37421   37424
   37425   37427   37425   37426   37425   37428   37429   37431
   37429   37430   37429   37432   37433   37435   37433   37434
   37433   37436   37437   37439   37437   37438   37437   37440
   37441   37443   37441   37442   37441   37444   37445   37447
   37445   37446   37445   37448   37449   37451   37449   37450
   37449   37452   37453   37455   37453   37454   37453   37456
   37457   37459   37457   37458   37457   37460   37461   37463
   37461   37462   37461   37464   37465   37467   37465   37466
   37465   37468   37469   37471   37469   37470   37469   37472
   37473   37475   37473   37474   37473   37476   37477   37479
   37477   37478   37477   37480   37481   37483   37481   37482
   37481   37484   37485   37487   37485   37486   37485   37488
   37489   37491   37489   37490   37489   37492   37493   37495
   37493   37494   37493   37496   37497   37499   37497   37498
   37497   37500   37501   37503   37501   37502   37501   37504
   37505   37507   37505   37506   37505   37508   37509   37511
   37509   37510   37509   37512   37513   37515   37513   37514
   37513   37516   37517   37519   37517   37518   37517   37520
   37521   37523   37521   37522   37521   37524   37525   37527
   37525   37526   37525   37528   37529   37531   37529   37530
   37529   37532   37533   37535   37533   37534   37533   37536
   37537   37539   37537   37538   37537   37540   37541   37543
   37541   37542   37541   37544   37545   37547   37545   37546
   37545   37548   37549   37551   37549   37550   37549   37552
   37553   37555   37553   37554   37553   37556   37557   37559
   37557   37558   37557   37560   37561   37563   37561   37562
   37561   37564   37565   37567   37565   37566   37565   37568
   37569   37571   37569   37570   37569   37572   37573   37575
   37573   37574   37573   37576   37577   37579   37577   37578
   37577   37580   37581   37583   37581   37582   37581   37584
   37585   37587   37585   37586   37585   37588   37589   37591
   37589   37590   37589   37592   37593   37595   37593   37594
   37593   37596   37597   37599   37597   37598   37597   37600
   37601   37603   37601   37602   37601   37604   37605   37607
   37605   37606   37605   37608   37609   37611   37609   37610
   37609   37612   37613   37615   37613   37614   37613   37616
   37617   37619   37617   37618   37617   37620   37621   37623
   37621   37622   37621   37624   37625   37627   37625   37626
   37625   37628   37629   37631   37629   37630   37629   37632
   37633   37635   37633   37634   37633   37636   37637   37639
   37637   37638   37637   37640   37641   37643   37641   37642
   37641   37644   37645   37647   37645   37646   37645   37648
   37649   37651   37649   37650   37649   37652   37653   37655
   37653   37654   37653   37656   37657   37659   37657   37658
   37657   37660   37661   37663   37661   37662   37661   37664
   37665   37667   37665   37666   37665   37668   37669   37671
   37669   37670   37669   37672   37673   37675   37673   37674
   37673   37676   37677   37679   37677   37678   37677   37680
   37681   37683   37681   37682   37681   37684   37685   37687
   37685   37686   37685   37688   37689   37691   37689   37690
   37689   37692   37693   37695   37693   37694   37693   37696
   37697   37699   37697   37698   37697   37700   37701   37703
   37701   37702   37701   37704   37705   37707   37705   37706
   37705   37708   37709   37711   37709   37710   37709   37712
   37713   37715   37713   37714   37713   37716   37717   37719
   37717   37718   37717   37720   37721   37723   37721   37722
   37721   37724   37725   37727   37725   37726   37725   37728
   37729   37731   37729   37730   37729   37732   37733   37735
   37733   37734   37733   37736   37737   37739   37737   37738
   37737   37740   37741   37743   37741   37742   37741   37744
   37745   37747   37745   37746   37745   37748   37749   37751
   37749   37750   37749   37752   37753   37755   37753   37754
   37753   37756   37757   37759   37757   37758   37757   37760
   37761   37763   37761   37762   37761   37764   37765   37767
   37765   37766   37765   37768   37769   37771   37769   37770
   37769   37772   37773   37775   37773   37774   37773   37776
   37777   37779   37777   37778   37777   37780   37781   37783
   37781   37782   37781   37784   37785   37787   37785   37786
   37785   37788   37789   37791   37789   37790   37789   37792
   37793   37795   37793   37794   37793   37796   37797   37799
   37797   37798   37797   37800   37801   37803   37801   37802
   37801   37804   37805   37807   37805   37806   37805   37808
   37809   37811   37809   37810   37809   37812   37813   37815
   37813   37814   37813   37816   37817   37819   37817   37818
   37817   37820   37821   37823   37821   37822   37821   37824
   37825   37827   37825   37826   37825   37828   37829   37831
   37829   37830   37829   37832   37833   37835   37833   37834
   37833   37836   37837   37839   37837   37838   37837   37840
   37841   37843   37841   37842   37841   37844   37845   37847
   37845   37846   37845   37848   37849   37851   37849   37850
   37849   37852   37853   37855   37853   37854   37853   37856
   37857   37859   37857   37858   37857   37860   37861   37863
   37861   37862   37861   37864   37865   37867   37865   37866
   37865   37868   37869   37871   37869   37870   37869   37872
   37873   37875   37873   37874   37873   37876   37877   37879
   37877   37878   37877   37880   37881   37883   37881   37882
   37881   37884   37885   37887   37885   37886   37885   37888
   37889   37891   37889   37890   37889   37892   37893   37895
   37893   37894   37893   37896   37897   37899   37897   37898
   37897   37900   37901   37903   37901   37902   37901   37904
   37905   37907   37905   37906   37905   37908   37909   37911
   37909   37910   37909   37912   37913   37915   37913   37914
   37913   37916   37917   37919   37917   37918   37917   37920
   37921   37923   37921   37922   37921   37924   37925   37927
   37925   37926   37925   37928   37929   37931   37929   37930
   37929   37932   37933   37935   37933   37934   37933   37936
   37937   37939   37937   37938   37937   37940   37941   37943
   37941   37942   37941   37944   37945   37947   37945   37946
   37945   37948   37949   37951   37949   37950   37949   37952
   37953   37955   37953   37954   37953   37956   37957   37959
   37957   37958   37957   37960   37961   37963   37961   37962
   37961   37964   37965   37967   37965   37966   37965   37968
   37969   37971   37969   37970   37969   37972   37973   37975
   37973   37974   37973   37976   37977   37979   37977   37978
   37977   37980   37981   37983   37981   37982   37981   37984
   37985   37987   37985   37986   37985   37988   37989   37991
   37989   37990   37989   37992   37993   37995   37993   37994
   37993   37996   37997   37999   37997   37998   37997   38000
   38001   38003   38001   38002   38001   38004   38005   38007
   38005   38006   38005   38008   38009   38011   38009   38010
   38009   38012   38013   38015   38013   38014   38013   38016
   38017   38019   38017   38018   38017   38020   38021   38023
   38021   38022   38021   38024   38025   38027   38025   38026
   38025   38028   38029   38031   38029   38030   38029   38032
   38033   38035   38033   38034   38033   38036   38037   38039
   38037   38038   38037   38040   38041   38043   38041   38042
   38041   38044   38045   38047   38045   38046   38045   38048
   38049   38051   38049   38050   38049   38052   38053   38055
   38053   38054   38053   38056   38057   38059   38057   38058
   38057   38060   38061   38063   38061   38062   38061   38064
   38065   38067   38065   38066   38065   38068   38069   38071
   38069   38070   38069   38072   38073   38075   38073   38074
   38073   38076   38077   38079   38077   38078   38077   38080
   38081   38083   38081   38082   38081   38084   38085   38087
   38085   38086   38085   38088   38089   38091   38089   38090
   38089   38092   38093   38095   38093   38094   38093   38096
   38097   38099   38097   38098   38097   38100   38101   38103
   38101   38102   38101   38104   38105   38107   38105   38106
   38105   38108   38109   38111   38109   38110   38109   38112
   38113   38115   38113   38114   38113   38116   38117   38119
   38117   38118   38117   38120   38121   38123   38121   38122
   38121   38124   38125   38127   38125   38126   38125   38128
   38129   38131   38129   38130   38129   38132   38133   38135
   38133   38134   38133   38136   38137   38139   38137   38138
   38137   38140   38141   38143   38141   38142   38141   38144
   38145   38147   38145   38146   38145   38148   38149   38151
   38149   38150   38149   38152   38153   38155   38153   38154
   38153   38156   38157   38159   38157   38158   38157   38160
   38161   38163   38161   38162   38161   38164   38165   38167
   38165   38166   38165   38168   38169   38171   38169   38170
   38169   38172   38173   38175   38173   38174   38173   38176
   38177   38179   38177   38178   38177   38180   38181   38183
   38181   38182   38181   38184   38185   38187   38185   38186
   38185   38188   38189   38191   38189   38190   38189   38192
   38193   38195   38193   38194   38193   38196   38197   38199
   38197   38198   38197   38200   38201   38203   38201   38202
   38201   38204   38205   38207   38205   38206   38205   38208
   38209   38211   38209   38210   38209   38212   38213   38215
   38213   38214   38213   38216   38217   38219   38217   38218
   38217   38220   38221   38223   38221   38222   38221   38224
   38225   38227   38225   38226   38225   38228   38229   38231
   38229   38230   38229   38232   38233   38235   38233   38234
   38233   38236   38237   38239   38237   38238   38237   38240
   38241   38243   38241   38242   38241   38244   38245   38247
   38245   38246   38245   38248   38249   38251   38249   38250
   38249   38252   38253   38255   38253   38254   38253   38256
   38257   38259   38257   38258   38257   38260   38261   38263
   38261   38262   38261   38264   38265   38267   38265   38266
   38265   38268   38269   38271   38269   38270   38269   38272
   38273   38275   38273   38274   38273   38276   38277   38279
   38277   38278   38277   38280   38281   38283   38281   38282
   38281   38284   38285   38287   38285   38286   38285   38288
   38289   38291   38289   38290   38289   38292   38293   38295
   38293   38294   38293   38296   38297   38299   38297   38298
   38297   38300   38301   38303   38301   38302   38301   38304
   38305   38307   38305   38306   38305   38308   38309   38311
   38309   38310   38309   38312   38313   38315   38313   38314
   38313   38316   38317   38319   38317   38318   38317   38320
   38321   38323   38321   38322   38321   38324   38325   38327
   38325   38326   38325   38328   38329   38331   38329   38330
   38329   38332   38333   38335   38333   38334   38333   38336
   38337   38339   38337   38338   38337   38340   38341   38343
   38341   38342   38341   38344   38345   38347   38345   38346
   38345   38348   38349   38351   38349   38350   38349   38352
   38353   38355   38353   38354   38353   38356   38357   38359
   38357   38358   38357   38360   38361   38363   38361   38362
   38361   38364   38365   38367   38365   38366   38365   38368
   38369   38371   38369   38370   38369   38372   38373   38375
   38373   38374   38373   38376   38377   38379   38377   38378
   38377   38380   38381   38383   38381   38382   38381   38384
   38385   38387   38385   38386   38385   38388   38389   38391
   38389   38390   38389   38392   38393   38395   38393   38394
   38393   38396   38397   38399   38397   38398   38397   38400
   38401   38403   38401   38402   38401   38404   38405   38407
   38405   38406   38405   38408   38409   38411   38409   38410
   38409   38412   38413   38415   38413   38414   38413   38416
   38417   38419   38417   38418   38417   38420   38421   38423
   38421   38422   38421   38424   38425   38427   38425   38426
   38425   38428   38429   38431   38429   38430   38429   38432
   38433   38435   38433   38434   38433   38436   38437   38439
   38437   38438   38437   38440   38441   38443   38441   38442
   38441   38444   38445   38447   38445   38446   38445   38448
   38449   38451   38449   38450   38449   38452   38453   38455
   38453   38454   38453   38456   38457   38459   38457   38458
   38457   38460   38461   38463   38461   38462   38461   38464
   38465   38467   38465   38466   38465   38468   38469   38471
   38469   38470   38469   38472   38473   38475   38473   38474
   38473   38476   38477   38479   38477   38478   38477   38480
   38481   38483   38481   38482   38481   38484   38485   38487
   38485   38486   38485   38488   38489   38491   38489   38490
   38489   38492   38493   38495   38493   38494   38493   38496
   38497   38499   38497   38498   38497   38500   38501   38503
   38501   38502   38501   38504   38505   38507   38505   38506
   38505   38508   38509   38511   38509   38510   38509   38512
   38513   38515   38513   38514   38513   38516   38517   38519
   38517   38518   38517   38520   38521   38523   38521   38522
   38521   38524   38525   38527   38525   38526   38525   38528
   38529   38531   38529   38530   38529   38532   38533   38535
   38533   38534   38533   38536   38537   38539   38537   38538
   38537   38540   38541   38543   38541   38542   38541   38544
   38545   38547   38545   38546   38545   38548   38549   38551
   38549   38550   38549   38552   38553   38555   38553   38554
   38553   38556   38557   38559   38557   38558   38557   38560
   38561   38563   38561   38562   38561   38564   38565   38567
   38565   38566   38565   38568   38569   38571   38569   38570
   38569   38572   38573   38575   38573   38574   38573   38576
   38577   38579   38577   38578   38577   38580   38581   38583
   38581   38582   38581   38584   38585   38587   38585   38586
   38585   38588   38589   38591   38589   38590   38589   38592
   38593   38595   38593   38594   38593   38596   38597   38599
   38597   38598   38597   38600   38601   38603   38601   38602
   38601   38604   38605   38607   38605   38606   38605   38608
   38609   38611   38609   38610   38609   38612   38613   38615
   38613   38614   38613   38616   38617   38619   38617   38618
   38617   38620   38621   38623   38621   38622   38621   38624
   38625   38627   38625   38626   38625   38628   38629   38631
   38629   38630   38629   38632   38633   38635   38633   38634
   38633   38636   38637   38639   38637   38638   38637   38640
   38641   38643   38641   38642   38641   38644   38645   38647
   38645   38646   38645   38648   38649   38651   38649   38650
   38649   38652   38653   38655   38653   38654   38653   38656
   38657   38659   38657   38658   38657   38660   38661   38663
   38661   38662   38661   38664   38665   38667   38665   38666
   38665   38668   38669   38671   38669   38670   38669   38672
   38673   38675   38673   38674   38673   38676   38677   38679
   38677   38678   38677   38680   38681   38683   38681   38682
   38681   38684   38685   38687   38685   38686   38685   38688
   38689   38691   38689   38690   38689   38692   38693   38695
   38693   38694   38693   38696   38697   38699   38697   38698
   38697   38700   38701   38703   38701   38702   38701   38704
   38705   38707   38705   38706   38705   38708   38709   38711
   38709   38710   38709   38712   38713   38715   38713   38714
   38713   38716   38717   38719   38717   38718   38717   38720
   38721   38723   38721   38722   38721   38724   38725   38727
   38725   38726   38725   38728   38729   38731   38729   38730
   38729   38732   38733   38735   38733   38734   38733   38736
   38737   38739   38737   38738   38737   38740   38741   38743
   38741   38742   38741   38744   38745   38747   38745   38746
   38745   38748   38749   38751   38749   38750   38749   38752
   38753   38755   38753   38754   38753   38756   38757   38759
   38757   38758   38757   38760   38761   38763   38761   38762
   38761   38764   38765   38767   38765   38766   38765   38768
   38769   38771   38769   38770   38769   38772   38773   38775
   38773   38774   38773   38776   38777   38779   38777   38778
   38777   38780   38781   38783   38781   38782   38781   38784
   38785   38787   38785   38786   38785   38788   38789   38791
   38789   38790   38789   38792   38793   38795   38793   38794
   38793   38796   38797   38799   38797   38798   38797   38800
   38801   38803   38801   38802   38801   38804   38805   38807
   38805   38806   38805   38808   38809   38811   38809   38810
   38809   38812   38813   38815   38813   38814   38813   38816
   38817   38819   38817   38818   38817   38820   38821   38823
   38821   38822   38821   38824   38825   38827   38825   38826
   38825   38828   38829   38831   38829   38830   38829   38832
   38833   38835   38833   38834   38833   38836   38837   38839
   38837   38838   38837   38840   38841   38843   38841   38842
   38841   38844   38845   38847   38845   38846   38845   38848
   38849   38851   38849   38850   38849   38852   38853   38855
   38853   38854   38853   38856   38857   38859   38857   38858
   38857   38860   38861   38863   38861   38862   38861   38864
   38865   38867   38865   38866   38865   38868   38869   38871
   38869   38870   38869   38872   38873   38875   38873   38874
   38873   38876   38877   38879   38877   38878   38877   38880
   38881   38883   38881   38882   38881   38884   38885   38887
   38885   38886   38885   38888   38889   38891   38889   38890
   38889   38892   38893   38895   38893   38894   38893   38896
   38897   38899   38897   38898   38897   38900   38901   38903
   38901   38902   38901   38904   38905   38907   38905   38906
   38905   38908   38909   38911   38909   38910   38909   38912
   38913   38915   38913   38914   38913   38916   38917   38919
   38917   38918   38917   38920   38921   38923   38921   38922
   38921   38924   38925   38927   38925   38926   38925   38928
   38929   38931   38929   38930   38929   38932   38933   38935
   38933   38934   38933   38936   38937   38939   38937   38938
   38937   38940   38941   38943   38941   38942   38941   38944
   38945   38947   38945   38946   38945   38948   38949   38951
   38949   38950   38949   38952   38953   38955   38953   38954
   38953   38956   38957   38959   38957   38958   38957   38960
   38961   38963   38961   38962   38961   38964   38965   38967
   38965   38966   38965   38968   38969   38971   38969   38970
   38969   38972   38973   38975   38973   38974   38973   38976
   38977   38979   38977   38978   38977   38980   38981   38983
   38981   38982   38981   38984   38985   38987   38985   38986
   38985   38988   38989   38991   38989   38990   38989   38992
   38993   38995   38993   38994   38993   38996   38997   38999
   38997   38998   38997   39000   39001   39003   39001   39002
   39001   39004   39005   39007   39005   39006   39005   39008
   39009   39011   39009   39010   39009   39012   39013   39015
   39013   39014   39013   39016   39017   39019   39017   39018
   39017   39020   39021   39023   39021   39022   39021   39024
   39025   39027   39025   39026   39025   39028   39029   39031
   39029   39030   39029   39032   39033   39035   39033   39034
   39033   39036   39037   39039   39037   39038   39037   39040
   39041   39043   39041   39042   39041   39044   39045   39047
   39045   39046   39045   39048   39049   39051   39049   39050
   39049   39052   39053   39055   39053   39054   39053   39056
   39057   39059   39057   39058   39057   39060   39061   39063
   39061   39062   39061   39064   39065   39067   39065   39066
   39065   39068   39069   39071   39069   39070   39069   39072
   39073   39075   39073   39074   39073   39076   39077   39079
   39077   39078   39077   39080   39081   39083   39081   39082
   39081   39084   39085   39087   39085   39086   39085   39088
   39089   39091   39089   39090   39089   39092   39093   39095
   39093   39094   39093   39096   39097   39099   39097   39098
   39097   39100   39101   39103   39101   39102   39101   39104
   39105   39107   39105   39106   39105   39108   39109   39111
   39109   39110   39109   39112   39113   39115   39113   39114
   39113   39116   39117   39119   39117   39118   39117   39120
   39121   39123   39121   39122   39121   39124   39125   39127
   39125   39126   39125   39128   39129   39131   39129   39130
   39129   39132   39133   39135   39133   39134   39133   39136
   39137   39139   39137   39138   39137   39140   39141   39143
   39141   39142   39141   39144   39145   39147   39145   39146
   39145   39148   39149   39151   39149   39150   39149   39152
   39153   39155   39153   39154   39153   39156   39157   39159
   39157   39158   39157   39160   39161   39163   39161   39162
   39161   39164   39165   39167   39165   39166   39165   39168
   39169   39171   39169   39170   39169   39172   39173   39175
   39173   39174   39173   39176   39177   39179   39177   39178
   39177   39180   39181   39183   39181   39182   39181   39184
   39185   39187   39185   39186   39185   39188   39189   39191
   39189   39190   39189   39192   39193   39195   39193   39194
   39193   39196   39197   39199   39197   39198   39197   39200
   39201   39203   39201   39202   39201   39204   39205   39207
   39205   39206   39205   39208   39209   39211   39209   39210
   39209   39212   39213   39215   39213   39214   39213   39216
   39217   39219   39217   39218   39217   39220   39221   39223
   39221   39222   39221   39224   39225   39227   39225   39226
   39225   39228   39229   39231   39229   39230   39229   39232
   39233   39235   39233   39234   39233   39236   39237   39239
   39237   39238   39237   39240   39241   39243   39241   39242
   39241   39244   39245   39247   39245   39246   39245   39248
   39249   39251   39249   39250   39249   39252   39253   39255
   39253   39254   39253   39256   39257   39259   39257   39258
   39257   39260   39261   39263   39261   39262   39261   39264
   39265   39267   39265   39266   39265   39268   39269   39271
   39269   39270   39269   39272   39273   39275   39273   39274
   39273   39276   39277   39279   39277   39278   39277   39280
   39281   39283   39281   39282   39281   39284   39285   39287
   39285   39286   39285   39288   39289   39291   39289   39290
   39289   39292   39293   39295   39293   39294   39293   39296
   39297   39299   39297   39298   39297   39300   39301   39303
   39301   39302   39301   39304   39305   39307   39305   39306
   39305   39308   39309   39311   39309   39310   39309   39312
   39313   39315   39313   39314   39313   39316   39317   39319
   39317   39318   39317   39320   39321   39323   39321   39322
   39321   39324   39325   39327   39325   39326   39325   39328
   39329   39331   39329   39330   39329   39332   39333   39335
   39333   39334   39333   39336   39337   39339   39337   39338
   39337   39340   39341   39343   39341   39342   39341   39344
   39345   39347   39345   39346   39345   39348   39349   39351
   39349   39350   39349   39352   39353   39355   39353   39354
   39353   39356   39357   39359   39357   39358   39357   39360
   39361   39363   39361   39362   39361   39364   39365   39367
   39365   39366   39365   39368   39369   39371   39369   39370
   39369   39372   39373   39375   39373   39374   39373   39376
   39377   39379   39377   39378   39377   39380   39381   39383
   39381   39382   39381   39384   39385   39387   39385   39386
   39385   39388   39389   39391   39389   39390   39389   39392
   39393   39395   39393   39394   39393   39396   39397   39399
   39397   39398   39397   39400   39401   39403   39401   39402
   39401   39404   39405   39407   39405   39406   39405   39408
   39409   39411   39409   39410   39409   39412   39413   39415
   39413   39414   39413   39416   39417   39419   39417   39418
   39417   39420   39421   39423   39421   39422   39421   39424
   39425   39427   39425   39426   39425   39428   39429   39431
   39429   39430   39429   39432   39433   39435   39433   39434
   39433   39436   39437   39439   39437   39438   39437   39440
   39441   39443   39441   39442   39441   39444   39445   39447
   39445   39446   39445   39448   39449   39451   39449   39450
   39449   39452   39453   39455   39453   39454   39453   39456
   39457   39459   39457   39458   39457   39460   39461   39463
   39461   39462   39461   39464   39465   39467   39465   39466
   39465   39468   39469   39471   39469   39470   39469   39472
   39473   39475   39473   39474   39473   39476   39477   39479
   39477   39478   39477   39480   39481   39483   39481   39482
   39481   39484   39485   39487   39485   39486   39485   39488
   39489   39491   39489   39490   39489   39492   39493   39495
   39493   39494   39493   39496   39497   39499   39497   39498
   39497   39500   39501   39503   39501   39502   39501   39504
   39505   39507   39505   39506   39505   39508   39509   39511
   39509   39510   39509   39512   39513   39515   39513   39514
   39513   39516   39517   39519   39517   39518   39517   39520
   39521   39523   39521   39522   39521   39524   39525   39527
   39525   39526   39525   39528   39529   39531   39529   39530
   39529   39532   39533   39535   39533   39534   39533   39536
   39537   39539   39537   39538   39537   39540   39541   39543
   39541   39542   39541   39544   39545   39547   39545   39546
   39545   39548   39549   39551   39549   39550   39549   39552
   39553   39555   39553   39554   39553   39556   39557   39559
   39557   39558   39557   39560   39561   39563   39561   39562
   39561   39564   39565   39567   39565   39566   39565   39568
   39569   39571   39569   39570   39569   39572   39573   39575
   39573   39574   39573   39576   39577   39579   39577   39578
   39577   39580   39581   39583   39581   39582   39581   39584
   39585   39587   39585   39586   39585   39588   39589   39591
   39589   39590   39589   39592   39593   39595   39593   39594
   39593   39596   39597   39599   39597   39598   39597   39600
   39601   39603   39601   39602   39601   39604   39605   39607
   39605   39606   39605   39608   39609   39611   39609   39610
   39609   39612   39613   39615   39613   39614   39613   39616
   39617   39619   39617   39618   39617   39620   39621   39623
   39621   39622   39621   39624   39625   39627   39625   39626
   39625   39628   39629   39631   39629   39630   39629   39632
   39633   39635   39633   39634   39633   39636   39637   39639
   39637   39638   39637   39640   39641   39643   39641   39642
   39641   39644   39645   39647   39645   39646   39645   39648
   39649   39651   39649   39650   39649   39652   39653   39655
   39653   39654   39653   39656   39657   39659   39657   39658
   39657   39660   39661   39663   39661   39662   39661   39664
   39665   39667   39665   39666   39665   39668   39669   39671
   39669   39670   39669   39672   39673   39675   39673   39674
   39673   39676   39677   39679   39677   39678   39677   39680
   39681   39683   39681   39682   39681   39684   39685   39687
   39685   39686   39685   39688   39689   39691   39689   39690
   39689   39692   39693   39695   39693   39694   39693   39696
   39697   39699   39697   39698   39697   39700   39701   39703
   39701   39702   39701   39704   39705   39707   39705   39706
   39705   39708   39709   39711   39709   39710   39709   39712
   39713   39715   39713   39714   39713   39716   39717   39719
   39717   39718   39717   39720   39721   39723   39721   39722
   39721   39724   39725   39727   39725   39726   39725   39728
   39729   39731   39729   39730   39729   39732   39733   39735
   39733   39734   39733   39736   39737   39739   39737   39738
   39737   39740   39741   39743   39741   39742   39741   39744
   39745   39747   39745   39746   39745   39748   39749   39751
   39749   39750   39749   39752   39753   39755   39753   39754
   39753   39756   39757   39759   39757   39758   39757   39760
   39761   39763   39761   39762   39761   39764   39765   39767
   39765   39766   39765   39768   39769   39771   39769   39770
   39769   39772   39773   39775   39773   39774   39773   39776
   39777   39779   39777   39778   39777   39780   39781   39783
   39781   39782   39781   39784   39785   39787   39785   39786
   39785   39788   39789   39791   39789   39790   39789   39792
   39793   39795   39793   39794   39793   39796   39797   39799
   39797   39798   39797   39800   39801   39803   39801   39802
   39801   39804   39805   39807   39805   39806   39805   39808
   39809   39811   39809   39810   39809   39812   39813   39815
   39813   39814   39813   39816   39817   39819   39817   39818
   39817   39820   39821   39823   39821   39822   39821   39824
   39825   39827   39825   39826   39825   39828   39829   39831
   39829   39830   39829   39832   39833   39835   39833   39834
   39833   39836   39837   39839   39837   39838   39837   39840
   39841   39843   39841   39842   39841   39844   39845   39847
   39845   39846   39845   39848   39849   39851   39849   39850
   39849   39852   39853   39855   39853   39854   39853   39856
   39857   39859   39857   39858   39857   39860   39861   39863
   39861   39862   39861   39864   39865   39867   39865   39866
   39865   39868   39869   39871   39869   39870   39869   39872
   39873   39875   39873   39874   39873   39876   39877   39879
   39877   39878   39877   39880   39881   39883   39881   39882
   39881   39884   39885   39887   39885   39886   39885   39888
   39889   39891   39889   39890   39889   39892   39893   39895
   39893   39894   39893   39896   39897   39899   39897   39898
   39897   39900   39901   39903   39901   39902   39901   39904
   39905   39907   39905   39906   39905   39908   39909   39911
   39909   39910   39909   39912   39913   39915   39913   39914
   39913   39916   39917   39919   39917   39918   39917   39920
   39921   39923   39921   39922   39921   39924   39925   39927
   39925   39926   39925   39928   39929   39931   39929   39930
   39929   39932   39933   39935   39933   39934   39933   39936
   39937   39939   39937   39938   39937   39940   39941   39943
   39941   39942   39941   39944   39945   39947   39945   39946
   39945   39948   39949   39951   39949   39950   39949   39952
   39953   39955   39953   39954   39953   39956   39957   39959
   39957   39958   39957   39960   39961   39963   39961   39962
   39961   39964   39965   39967   39965   39966   39965   39968
   39969   39971   39969   39970   39969   39972   39973   39975
   39973   39974   39973   39976   39977   39979   39977   39978
   39977   39980   39981   39983   39981   39982   39981   39984
   39985   39987   39985   39986   39985   39988   39989   39991
   39989   39990   39989   39992   39993   39995   39993   39994
   39993   39996   39997   39999   39997   39998   39997   40000

   30000 !NTHETA: angles
       3       1       2       2       1       4       3       1       4
       7       5       6       6       5       8       7       5       8
      11       9      10      10       9      12      11       9      12
      15      13      14      14      13      16      15      13      16
      19      17      18      18      17      20      19      17      20
      23      21      22      22      21      24      23      21      24
      27      25      26      26      25      28      27      25      28
      31      29      30      30      29      32      31      29      32
      35      33      34      34      33      36      35      33      36
      39      37      38      38      37      40      39      37      40
      43      41      42      42      41      44      43      41      44
      47      45      46      46      45      48      47      45      48
      51      49      50      50      49      52      51      49      52
      55      53      54      54      53      56      55      53      56
      59      57      58      58      57      60      59      57      60
      63      61      62      62      61      64      63      61      64
      67      65      66      66      65      68      67      65      68
      71      69      70      70      69      72      71      69      72
      75      73      74      74      73      76      75      73      76
      79      77      78      78      77      80      79      77      80
      83      81      82      82      81      84      83      81      84
      87      85      86      86      85      88      87      85      88
      91      89      90      90      89      92      91      89      92
      95      93      94      94      93      96      95      93      96
      99      97      98      98      97     100      99      97     100
     103     101     102     102     101     104     103     101     104
     107     105     106     106     105     108     107     105     108
     111     109     110     110     109     112     111     109     112
     115     113     114     114     113     116     115     113     116
     119     117     118     118     117     120     119     117     120
     123     121     122     122     121     124     123     121     124
     127     125     126     126     125     128     127     125     128
     131     129     130     130     129     132     131     129     132
     135     133     134     134     133     136     135     133     136
     139     137     138     138     137     140     139     137     140
     143     141     142     142     141     144     143     141     144
     147     145     146     146     145     148     147     145     148
     151     149     150     150     149     152     151     149     152
     155     153     154     154     153     156     155     153     156
     159     157     158     158     157     160     159     157     160
     163     161     162     162     161     164     163     161     164
     167     165     166     166     165     168     167     165     168
     171     169     170     170     169     172     171     169     172
     175     173     174     174     173     176     175     173     176
     179     177     178     178     177     180     179     177     180
     183     181     182     182     181     184     183     181     184
     187     185     186     186     185     188     187     185     188
     191     189     190     190     189     192     191     189     192
     195     193     194     194     193     196     195     193     196
     199     197     198     198     197     200     199     197     200
     203     201     202     202     201     204     203     201     204
     207     205     206     206     205     208     207     205     208
     211     209     210     210     209     212     211     209     212
     215     213     214     214     213     216     215     213     216
     219     217     218     218     217     220     219     217     220
     223     221     222     222     221     224     223     221     224
     227     225     226     226     225     228     227     225     228
     231     229     230     230     229     232     231     229     232
     235     233     234     234     233     236     235     233     236
     239     237     238     238     237     240     239     237     240
     243     241     242     242     241     244     243     241     244
     247     245     246     246     245     248     247     245     248
     251     249     250     250     249     252     251     249     252
     255     253     254     254     253     256     255     253     256
     259     257     258     258     257     260     259     257     260
     263     261     262     262     261     264     263     261     264
     267     265     266     266     265     268     267     265     268
     271     269     270     270     269     272     271     269     272
     275     273     274     274     273     276     275     273     276
     279     277     278     278     277     280     279     277     280
     283     281     282     282     281     284     283     281     284
     287     285     286     286     285     288     287     285     288
     291     289     290     290     289     292     291     289     292
     295     293     294     294     293     296     295     293     296
     299     297     298     298     297     300     299     297     300
     303     301     302     302     301     304     303     301     304
     307     305     306     306     305     308     307     305     308
     311     309     310     310     309     312     311     309     312
     315     313     314     314     313     316     315     313     316
     319     317     318     318     317     320     319     317     320
     323     321     322     322     321     324     323     321     324
     327     325     326     326     325     328     327     325     328
     331     329     330     330     329     332     331     329     332
     335     333     334     334     333     336     335     333     336
     339     337     338     338     337     340     339     337     340
     343     341     342     342     341     344     343     341     344
     347     345     346     346     345     348     347     345     348
     351     349     350     350     349     352     351     349     352
     355     353     354     354     353     356     355     353     356
     359     357     358     358     357     360     359     357     360
     363     361     362     362     361     364     363     361     364
     367     365     366     366     365     368     367     365     368
     371     369     370     370     369     372     371     369     372
     375     373     374     374     373     376     375     373     376
     379     377     378     378     377     380     379     377     380
     383     381     382     382     381     384     383     381     384
     387     385     386     386     385     388     387     385     388
     391     389     390     390     389     392     391     389     392
     395     393     394     394     393     396     395     393     396
     399     397     398     398     397     400     399     397     400
     403     401     402     402     401     404     403     401     404
     407     405     406     406     405     408     407     405     408
     411     409     410     410     409     412     411     409     412
     415     413     414     414     413     416     415     413     416
     419     417     418     418     417     420     419     417     420
     423     421     422     422     421     424     423     421     424
     427     425     426     426     425     428     427     425     428
     431     429     430     430     429     432     431     429     432
     435     433     434     434     433     436     435     433     436
     439     437     438     438     437     440     439     437     440
     443     441     442     442     441     444     443     441     444
     447     445     446     446     445     448     447     445     448
     451     449     450     450     449     452     451     449     452
     455     453     454     454     453     456     455     453     456
     459     457     458     458     457     460     459     457     460
     463     461     462     462     461     464     463     461     464
     467     465     466     466     465     468     467     465     468
     471     469     470     470     469     472     471     469     472
     475     473     474     474     473     476     475     473     476
     479     477     478     478     477     480     479     477     480
     483     481     482     482     481     484     483     481     484
     487     485     486     486     485     488     487     485     488
     491     489     490     490     489     492     491     489     492
     495     493     494     494     493     496     495     493     496
     499     497     498     498     497     500     499     497     500
     503     501     502     502     501     504     503     501     504
     507     505     506     506     505     508     507     505     508
     511     509     510     510     509     512     511     509     512
     515     513     514     514     513     516     515     513     516
     519     517     518     518     517     520     519     517     520
     523     521     522     522     521     524     523     521     524
     527     525     526     526     525     528     527     525     528
     531     529     530     530     529     532     531     529     532
     535     533     534     534     533     536     535     533     536
     539     537     538     538     537     540     539     537     540
     543     541     542     542     541     544     543     541     544
     547     545     546     546     545     548     547     545     548
     551     549     550     550     549     552     551     549     552
     555     553     554     554     553     556     555     553     556
     559     557     558     558     557     560     559     557     560
     563     561     562     562     561     564     563     561     564
     567     565     566     566     565     568     567     565     568
     571     569     570     570     569     572     571     569     572
     575     573     574     574     573     576     575     573     576
     579     577     578     578     577     580     579     577     580
     583     581     582     582     581     584     583     581     584
     587     585     586     586     585     588     587     585     588
     591     589     590     590     589     592     591     589     592
     595     593     594     594     593     596     595     593     596
     599     597     598     598     597     600     599     597     600
     603     601     602     602     601     604     603     601     604
     607     605     606     606     605     608     607     605     608
     611     609     610     610     609     612     611     609     612
     615     613     614     614     613     616     615     613     616
     619     617     618     618     617     620     619     617     620
     623     621     622     622     621     624     623     621     624
     627     625     626     626     625     628     627     625     628
     631     629     630     630     629     632     631     629     632
     635     633     634     634     633     636     635     633     636
     639     637     638     638     637     640     639     637     640
     643     641     642     642     641     644     643     641     644
     647     645     646     646     645     648     647     645     648
     651     649     650     650     649     652     651     649     652
     655     653     654     654     653     656     655     653     656
     659     657     658     658     657     660     659     657     660
     663     661     662     662     661     664     663     661     664
     667     665     666     666     665     668     667     665     668
     671     669     670     670     669     672     671     669     672
     675     673     674     674     673     676     675     673     676
     679     677     678     678     677     680     679     677     680
     683     681     682     682     681     684     683     681     684
     687     685     686     686     685     688     687     685     688
     691     689     690     690     689     692     691     689     692
     695     693     694     694     693     696     695     693     696
     699     697     698     698     697     700     699     697     700
     703     701     702     702     701     704     703     701     704
     707     705     706     706     705     708     707     705     708
     711     709     710     710     709     712     711     709     712
     715     713     714     714     713     716     715     713     716
     719     717     718     718     717     720     719     717     720
     723     721     722     722     721     724     723     721     724
     727     725     726     726     725     728     727     725     728
     731     729     730     730     729     732     731     729     732
     735     733     734     734     733     736     735     733     736
     739     737     738     738     737     740     739     737     740
     743     741     742     742     741     744     743     741     744
     747     745     746     746     745     748     747     745     748
     751     749     750     750     749     752     751     749     752
     755     753     754     754     753     756     755     753     756
     759     757     758     758     757     760     759     757     760
     763     761     762     762     761     764     763     761     764
     767     765     766     766     765     768     767     765     768
     771     769     770     770     769     772     771     769     772
     775     773     774     774     773     776     775     773     776
     779     777     778     778     777     780     779     777     780
     783     781     782     782     781     784     783     781     784
     787     785     786     786     785     788     787     785     788
     791     789     790     790     789     792     791     789     792
     795     793     794     794     793     796     795     793     796
     799     797     798     798     797     800     799     797     800
     803     801     802     802     801     804     803     801     804
     807     805     806     806     805     808     807     805     808
     811     809     810     810     809     812     811     809     812
     815     813     814     814     813     816     815     813     816
     819     817     818     818     817     820     819     817     820
     823     821     822     822     821     824     823     821     824
     827     825     826     826     825     828     827     825     828
     831     829     830     830     829     832     831     829     832
     835     833     834     834     833     836     835     833     836
     839     837     838     838     837     840     839     837     840
     843     841     842     842     841     844     843     841     844
     847     845     846     846     845     848     847     845     848
     851     849     850     850     849     852     851     849     852
     855     853     854     854     853     856     855     853     856
     859     857     858     858     857     860     859     857     860
     863     861     862     862     861     864     863     861     864
     867     865     866     866     865     868     867     865     868
     871     869     870     870     869     872     871     869     872
     875     873     874     874     873     876     875     873     876
     879     877     878     878     877     880     879     877     880
     883     881     882     882     881     884     883     881     884
     887     885     886     886     885     888     887     885     888
     891     889     890     890     889     892     891     889     892
     895     893     894     894     893     896     895     893     896
     899     897     898     898     897     900     899     897     900
     903     901     902     902     901     904     903     901     904
     907     905     906     906     905     908     907     905     908
     911     909     910     910     909     912     911     909     912
     915     913     914     914     913     916     915     913     916
     919     917     918     918     917     920     919     917     920
     923     921     922     922     921     924     923     921     924
     927     925     926     926     925     928     927     925     928
     931     929     930     930     929     932     931     929     932
     935     933     934     934     933     936     935     933     936
     939     937     938     938     937     940     939     937     940
     943     941     942     942     941     944     943     941     944
     947     945     946     946     945     948     947     945     948
     951     949     950     950     949     952     951     949     952
     955     953     954     954     953     956     955     953     956
     959     957     958     958     957     960     959     957     960
     963     961     962     962     961     964     963     961     964
     967     965     966     966     965     968     967     965     968
     971     969     970     970     969     972     971     969     972
     975     973     974     974     973     976     975     973     976
     979     977     978     978     977     980     979     977     980
     983     981     982     982     981     984     983     981     984
     987     985     986     986     985     988     987     985     988
     991     989     990     990     989     992     991     989     992
     995     993     994     994     993     996     995     993     996
     999     997     998     998     997    1000     999     997    1000
    1003    1001    1002    1002    1001    1004    1003    1001    1004
    1007    1005    1006    1006    1005    1008    1007    1005    1008
    1011    1009    1010    1010    1009    1012    1011    1009    1012
    1015    1013    1014    1014    1013    1016    1015    1013    1016
    1019    1017    1018    1018    1017    1020    1019    1017    1020
    1023    1021    1022    1022    1021    1024    1023    1021    1024
    1027    1025    1026    1026    1025    1028    1027    1025    1028
    1031    1029    1030    1030    1029    1032    1031    1029    1032
    1035    1033    1034    1034    1033    1036    1035    1033    1036
    1039    1037    1038    1038    1037    1040    1039    1037    1040
    1043    1041    1042    1042    1041    1044    1043    1041    1044
    1047    1045    1046    1046    1045    1048    1047    1045    1048
    1051    1049    1050    1050    1049    1052    1051    1049    1052
    1055    1053    1054    1054    1053    1056    1055    1053    1056
    1059    1057    1058    1058    1057    1060    1059    1057    1060
    1063    1061    1062    1062    1061    1064    1063    1061    1064
    1067    1065    1066    1066    1065    1068    1067    1065    1068
    1071    1069    1070    1070    1069    1072    1071    1069    1072
    1075    1073    1074    1074    1073    1076    1075    1073    1076
    1079    1077    1078    1078    1077    1080    1079    1077    1080
    1083    1081    1082    1082    1081    1084    1083    1081    1084
    1087    1085    1086    1086    1085    1088    1087    1085    1088
    1091    1089    1090    1090    1089    1092    1091    1089    1092
    1095    1093    1094    1094    1093    1096    1095    1093    1096
    1099    1097    1098    1098    1097    1100    1099    1097    1100
    1103    1101    1102    1102    1101    1104    1103    1101    1104
    1107    1105    1106    1106    1105    1108    1107    1105    1108
    1111    1109    1110    1110    1109    1112    1111    1109    1112
    1115    1113    1114    1114    1113    1116    1115    1113    1116
    1119    1117    1118    1118    1117    1120    1119    1117    1120
    1123    1121    1122    1122    1121    1124    1123    1121    1124
    1127    1125    1126    1126    1125    1128    1127    1125    1128
    1131    1129    1130    1130    1129    1132    1131    1129    1132
    1135    1133    1134    1134    1133    1136    1135    1133    1136
    1139    1137    1138    1138    1137    1140    1139    1137    1140
    1143    1141    1142    1142    1141    1144    1143    1141    1144
    1147    1145    1146    1146    1145    1148    1147    1145    1148
    1151    1149    1150    1150    1149    1152    1151    1149    1152
    1155    1153    1154    1154    1153    1156    1155    1153    1156
    1159    1157    1158    1158    1157    1160    1159    1157    1160
    1163    1161    1162    1162    1161    1164    1163    1161    1164
    1167    1165    1166    1166    1165    1168    1167    1165    1168
    1171    1169    1170    1170    1169    1172    1171    1169    1172
    1175    1173    1174    1174    1173    1176    1175    1173    1176
    1179    1177    1178    1178    1177    1180    1179    1177    1180
    1183    1181    1182    1182    1181    1184    1183    1181    1184
    1187    1185    1186    1186    1185    1188    1187    1185    1188
    1191    1189    1190    1190    1189    1192    1191    1189    1192
    1195    1193    1194    1194    1193    1196    1195    1193    1196
    1199    1197    1198    1198    1197    1200    1199    1197    1200
    1203    1201    1202    1202    1201    1204    1203    1201    1204
    1207    1205    1206    1206    1205    1208    1207    1205    1208
    1211    1209    1210    1210    1209    1212    1211    1209    1212
    1215    1213    1214    1214    1213    1216    1215    1213    1216
    1219    1217    1218    1218    1217    1220    1219    1217    1220
    1223    1221    1222    1222    1221    1224    1223    1221    1224
    1227    1225    1226    1226    1225    1228    1227    1225    1228
    1231    1229    1230    1230    1229    1232    1231    1229    1232
    1235    1233    1234    1234    1233    1236    1235    1233    1236
    1239    1237    1238    1238    1237    1240    1239    1237    1240
    1243    1241    1242    1242    1241    1244    1243    1241    1244
    1247    1245    1246    1246    1245    1248    1247    1245    1248
    1251    1249    1250    1250    1249    1252    1251    1249    1252
    1255    1253    1254    1254    1253    1256    1255    1253    1256
    1259    1257    1258    1258    1257    1260    1259    1257    1260
    1263    1261    1262    1262    1261    1264    1263    1261    1264
    1267    1265    1266    1266    1265    1268    1267    1265    1268
    1271    1269    1270    1270    1269    1272    1271    1269    1272
    1275    1273    1274    1274    1273    1276    1275    1273    1276
    1279    1277    1278    1278    1277    1280    1279    1277    1280
    1283    1281    1282    1282    1281    1284    1283    1281    1284
    1287    1285    1286    1286    1285    1288    1287    1285    1288
    1291    1289    1290    1290    1289    1292    1291    1289    1292
    1295    1293    1294    1294    1293    1296    1295    1293    1296
    1299    1297    1298    1298    1297    1300    1299    1297    1300
    1303    1301    1302    1302    1301    1304    1303    1301    1304
    1307    1305    1306    1306    1305    1308    1307    1305    1308
    1311    1309    1310    1310    1309    1312    1311    1309    1312
    1315    1313    1314    1314    1313    1316    1315    1313    1316
    1319    1317    1318    1318    1317    1320    1319    1317    1320
    1323    1321    1322    1322    1321    1324    1323    1321    1324
    1327    1325    1326    1326    1325    1328    1327    1325    1328
    1331    1329    1330    1330    1329    1332    1331    1329    1332
    1335    1333    1334    1334    1333    1336    1335    1333    1336
    1339    1337    1338    1338    1337    1340    1339    1337    1340
    1343    1341    1342    1342    1341    1344    1343    1341    1344
    1347    1345    1346    1346    1345    1348    1347    1345    1348
    1351    1349    1350    1350    1349    1352    1351    1349    1352
    1355    1353    1354    1354    1353    1356    1355    1353    1356
    1359    1357    1358    1358    1357    1360    1359    1357    1360
    1363    1361    1362    1362    1361    1364    1363    1361    1364
    1367    1365    1366    1366    1365    1368    1367    1365    1368
    1371    1369    1370    1370    1369    1372    1371    1369    1372
    1375    1373    1374    1374    1373    1376    1375    1373    1376
    1379    1377    1378    1378    1377    1380    1379    1377    1380
    1383    1381    1382    1382    1381    1384    1383    1381    1384
    1387    1385    1386    1386    1385    1388    1387    1385    1388
    1391    1389    1390    1390    1389    1392    1391    1389    1392
    1395    1393    1394    1394    1393    1396    1395    1393    1396
    1399    1397    1398    1398    1397    1400    1399    1397    1400
    1403    1401    1402    1402    1401    1404    1403    1401    1404
    1407    1405    1406    1406    1405    1408    1407    1405    1408
    1411    1409    1410    1410    1409    1412    1411    1409    1412
    1415    1413    1414    1414    1413    1416    1415    1413    1416
    1419    1417    1418    1418    1417    1420    1419    1417    1420
    1423    1421    1422    1422    1421    1424    1423    1421    1424
    1427    1425    1426    1426    1425    1428    1427    1425    1428
    1431    1429    1430    1430    1429    1432    1431    1429    1432
    1435    1433    1434    1434    1433    1436    1435    1433    1436
    1439    1437    1438    1438    1437    1440    1439    1437    1440
    1443    1441    1442    1442    1441    1444    1443    1441    1444
    1447    1445    1446    1446    1445    1448    1447    1445    1448
    1451    1449    1450    1450    1449    1452    1451    1449    1452
    1455    1453    1454    1454    1453    1456    1455    1453    1456
    1459    1457    1458    1458    1457    1460    1459    1457    1460
    1463    1461    1462    1462    1461    1464    1463    1461    1464
    1467    1465    1466    1466    1465    1468    1467    1465    1468
    1471    1469    1470    1470    1469    1472    1471    1469    1472
    1475    1473    1474    1474    1473    1476    1475    1473    1476
    1479    1477    1478    1478    1477    1480    1479    1477    1480
    1483    1481    1482    1482    1481    1484    1483    1481    1484
    1487    1485    1486    1486    1485    1488    1487    1485    1488
    1491    1489    1490    1490    1489    1492    1491    1489    1492
    1495    1493    1494    1494    1493    1496    1495    1493    1496
    1499    1497    1498    1498    1497    1500    1499    1497    1500
    1503    1501    1502    1502    1501    1504    1503    1501    1504
    1507    1505    1506    1506    1505    1508    1507    1505    1508
    1511    1509    1510    1510    1509    1512    1511    1509    1512
    1515    1513    1514    1514    1513    1516    1515    1513    1516
    1519    1517    1518    1518    1517    1520    1519    1517    1520
    1523    1521    1522    1522    1521    1524    1523    1521    1524
    1527    1525    1526    1526    1525    1528    1527    1525    1528
    1531    1529    1530    1530    1529    1532    1531    1529    1532
    1535    1533    1534    1534    1533    1536    1535    1533    1536
    1539    1537    1538    1538    1537    1540    1539    1537    1540
    1543    1541    1542    1542    1541    1544    1543    1541    1544
    1547    1545    1546    1546    1545    1548    1547    1545    1548
    1551    1549    1550    1550    1549    1552    1551    1549    1552
    1555    1553    1554    1554    1553    1556    1555    1553    1556
    1559    1557    1558    1558    1557    1560    1559    1557    1560
    1563    1561    1562    1562    1561    1564    1563    1561    1564
    1567    1565    1566    1566    1565    1568    1567    1565    1568
    1571    1569    1570    1570    1569    1572    1571    1569    1572
    1575    1573    1574    1574    1573    1576    1575    1573    1576
    1579    1577    1578    1578    1577    1580    1579    1577    1580
    1583    1581    1582    1582    1581    1584    1583    1581    1584
    1587    1585    1586    1586    1585    1588    1587    1585    1588
    1591    1589    1590    1590    1589    1592    1591    1589    1592
    1595    1593    1594    1594    1593    1596    1595    1593    1596
    1599    1597    1598    1598    1597    1600    1599    1597    1600
    1603    1601    1602    1602    1601    1604    1603    1601    1604
    1607    1605    1606    1606    1605    1608    1607    1605    1608
    1611    1609    1610    1610    1609    1612    1611    1609    1612
    1615    1613    1614    1614    1613    1616    1615    1613    1616
    1619    1617    1618    1618    1617    1620    1619    1617    1620
    1623    1621    1622    1622    1621    1624    1623    1621    1624
    1627    1625    1626    1626    1625    1628    1627    1625    1628
    1631    1629    1630    1630    1629    1632    1631    1629    1632
    1635    1633    1634    1634    1633    1636    1635    1633    1636
    1639    1637    1638    1638    1637    1640    1639    1637    1640
    1643    1641    1642    1642    1641    1644    1643    1641    1644
    1647    1645    1646    1646    1645    1648    1647    1645    1648
    1651    1649    1650    1650    1649    1652    1651    1649    1652
    1655    1653    1654    1654    1653    1656    1655    1653    1656
    1659    1657    1658    1658    1657    1660    1659    1657    1660
    1663    1661    1662    1662    1661    1664    1663    1661    1664
    1667    1665    1666    1666    1665    1668    1667    1665    1668
    1671    1669    1670    1670    1669    1672    1671    1669    1672
    1675    1673    1674    1674    1673    1676    1675    1673    1676
    1679    1677    1678    1678    1677    1680    1679    1677    1680
    1683    1681    1682    1682    1681    1684    1683    1681    1684
    1687    1685    1686    1686    1685    1688    1687    1685    1688
    1691    1689    1690    1690    1689    1692    1691    1689    1692
    1695    1693    1694    1694    1693    1696    1695    1693    1696
    1699    1697    1698    1698    1697    1700    1699    1697    1700
    1703    1701    1702    1702    1701    1704    1703    1701    1704
    1707    1705    1706    1706    1705    1708    1707    1705    1708
    1711    1709    1710    1710    1709    1712    1711    1709    1712
    1715    1713    1714    1714    1713    1716    1715    1713    1716
    1719    1717    1718    1718    1717    1720    1719    1717    1720
    1723    1721    1722    1722    1721    1724    1723    1721    1724
    1727    1725    1726    1726    1725    1728    1727    1725    1728
    1731    1729    1730    1730    1729    1732    1731    1729    1732
    1735    1733    1734    1734    1733    1736    1735    1733    1736
    1739    1737    1738    1738    1737    1740    1739    1737    1740
    1743    1741    1742    1742    1741    1744    1743    1741    1744
    1747    1745    1746    1746    1745    1748    1747    1745    1748
    1751    1749    1750    1750    1749    1752    1751    1749    1752
    1755    1753    1754    1754    1753    1756    1755    1753    1756
    1759    1757    1758    1758    1757    1760    1759    1757    1760
    1763    1761    1762    1762    1761    1764    1763    1761    1764
    1767    1765    1766    1766    1765    1768    1767    1765    1768
    1771    1769    1770    1770    1769    1772    1771    1769    1772
    1775    1773    1774    1774    1773    1776    1775    1773    1776
    1779    1777    1778    1778    1777    1780    1779    1777    1780
    1783    1781    1782    1782    1781    1784    1783    1781    1784
    1787    1785    1786    1786    1785    1788    1787    1785    1788
    1791    1789    1790    1790    1789    1792    1791    1789    1792
    1795    1793    1794    1794    1793    1796    1795    1793    1796
    1799    1797    1798    1798    1797    1800    1799    1797    1800
    1803    1801    1802    1802    1801    1804    1803    1801    1804
    1807    1805    1806    1806    1805    1808    1807    1805    1808
    1811    1809    1810    1810    1809    1812    1811    1809    1812
    1815    1813    1814    1814    1813    1816    1815    1813    1816
    1819    1817    1818    1818    1817    1820    1819    1817    1820
    1823    1821    1822    1822    1821    1824    1823    1821    1824
    1827    1825    1826    1826    1825    1828    1827    1825    1828
    1831    1829    1830    1830    1829    1832    1831    1829    1832
    1835    1833    1834    1834    1833    1836    1835    1833    1836
    1839    1837    1838    1838    1837    1840    1839    1837    1840
    1843    1841    1842    1842    1841    1844    1843    1841    1844
    1847    1845    1846    1846    1845    1848    1847    1845    1848
    1851    1849    1850    1850    1849    1852    1851    1849    1852
    1855    1853    1854    1854    1853    1856    1855    1853    1856
    1859    1857    1858    1858    1857    1860    1859    1857    1860
    1863    1861    1862    1862    1861    1864    1863    1861    1864
    1867    1865    1866    1866    1865    1868    1867    1865    1868
    1871    1869    1870    1870    1869    1872    1871    1869    1872
    1875    1873    1874    1874    1873    1876    1875    1873    1876
    1879    1877    1878    1878    1877    1880    1879    1877    1880
    1883    1881    1882    1882    1881    1884    1883    1881    1884
    1887    1885    1886    1886    1885    1888    1887    1885    1888
    1891    1889    1890    1890    1889    1892    1891    1889    1892
    1895    1893    1894    1894    1893    1896    1895    1893    1896
    1899    1897    1898    1898    1897    1900    1899    1897    1900
    1903    1901    1902    1902    1901    1904    1903    1901    1904
    1907    1905    1906    1906    1905    1908    1907    1905    1908
    1911    1909    1910    1910    1909    1912    1911    1909    1912
    1915    1913    1914    1914    1913    1916    1915    1913    1916
    1919    1917    1918    1918    1917    1920    1919    1917    1920
    1923    1921    1922    1922    1921    1924    1923    1921    1924
    1927    1925    1926    1926    1925    1928    1927    1925    1928
    1931    1929    1930    1930    1929    1932    1931    1929    1932
    1935    1933    1934    1934    1933    1936    1935    1933    1936
    1939    1937    1938    1938    1937    1940    1939    1937    1940
    1943    1941    1942    1942    1941    1944    1943    1941    1944
    1947    1945    1946    1946    1945    1948    1947    1945    1948
    1951    1949    1950    1950    1949    1952    1951    1949    1952
    1955    1953    1954    1954    1953    1956    1955    1953    1956
    1959    1957    1958    1958    1957    1960    1959    1957    1960
    1963    1961    1962    1962    1961    1964    1963    1961    1964
    1967    1965    1966    1966    1965    1968    1967    1965    1968
    1971    1969    1970    1970    1969    1972    1971    1969    1972
    1975    1973    1974    1974    1973    1976    1975    1973    1976
    1979    1977    1978    1978    1977    1980    1979    1977    1980
    1983    1981    1982    1982    1981    1984    1983    1981    1984
    1987    1985    1986    1986    1985    1988    1987    1985    1988
    1991    1989    1990    1990    1989    1992    1991    1989    1992
    1995    1993    1994    1994    1993    1996    1995    1993    1996
    1999    1997    1998    1998    1997    2000    1999    1997    2000
    2003    2001    2002    2002    2001    2004    2003    2001    2004
    2007    2005    2006    2006    2005    2008    2007    2005    2008
    2011    2009    2010    2010    2009    2012    2011    2009    2012
    2015    2013    2014    2014    2013    2016    2015    2013    2016
    2019    2017    2018    2018    2017    2020    2019    2017    2020
    2023    2021    2022    2022    2021    2024    2023    2021    2024
    2027    2025    2026    2026    2025    2028    2027    2025    2028
    2031    2029    2030    2030    2029    2032    2031    2029    2032
    2035    2033    2034    2034    2033    2036    2035    2033    2036
    2039    2037    2038    2038    2037    2040    2039    2037    2040
    2043    2041    2042    2042    2041    2044    2043    2041    2044
    2047    2045    2046    2046    2045    2048    2047    2045    2048
    2051    2049    2050    2050    2049    2052    2051    2049    2052
    2055    2053    2054    2054    2053    2056    2055    2053    2056
    2059    2057    2058    2058    2057    2060    2059    2057    2060
    2063    2061    2062    2062    2061    2064    2063    2061    2064
    2067    2065    2066    2066    2065    2068    2067    2065    2068
    2071    2069    2070    2070    2069    2072    2071    2069    2072
    2075    2073    2074    2074    2073    2076    2075    2073    2076
    2079    2077    2078    2078    2077    2080    2079    2077    2080
    2083    2081    2082    2082    2081    2084    2083    2081    2084
    2087    2085    2086    2086    2085    2088    2087    2085    2088
    2091    2089    2090    2090    2089    2092    2091    2089    2092
    2095    2093    2094    2094    2093    2096    2095    2093    2096
    2099    2097    2098    2098    2097    2100    2099    2097    2100
    2103    2101    2102    2102    2101    2104    2103    2101    2104
    2107    2105    2106    2106    2105    2108    2107    2105    2108
    2111    2109    2110    2110    2109    2112    2111    2109    2112
    2115    2113    2114    2114    2113    2116    2115    2113    2116
    2119    2117    2118    2118    2117    2120    2119    2117    2120
    2123    2121    2122    2122    2121    2124    2123    2121    2124
    2127    2125    2126    2126    2125    2128    2127    2125    2128
    2131    2129    2130    2130    2129    2132    2131    2129    2132
    2135    2133    2134    2134    2133    2136    2135    2133    2136
    2139    2137    2138    2138    2137    2140    2139    2137    2140
    2143    2141    2142    2142    2141    2144    2143    2141    2144
    2147    2145    2146    2146    2145    2148    2147    2145    2148
    2151    2149    2150    2150    2149    2152    2151    2149    2152
    2155    2153    2154    2154    2153    2156    2155    2153    2156
    2159    2157    2158    2158    2157    2160    2159    2157    2160
    2163    2161    2162    2162    2161    2164    2163    2161    2164
    2167    2165    2166    2166    2165    2168    2167    2165    2168
    2171    2169    2170    2170    2169    2172    2171    2169    2172
    2175    2173    2174    2174    2173    2176    2175    2173    2176
    2179    2177    2178    2178    2177    2180    2179    2177    2180
    2183    2181    2182    2182    2181    2184    2183    2181    2184
    2187    2185    2186    2186    2185    2188    2187    2185    2188
    2191    2189    2190    2190    2189    2192    2191    2189    2192
    2195    2193    2194    2194    2193    2196    2195    2193    2196
    2199    2197    2198    2198    2197    2200    2199    2197    2200
    2203    2201    2202    2202    2201    2204    2203    2201    2204
    2207    2205    2206    2206    2205    2208    2207    2205    2208
    2211    2209    2210    2210    2209    2212    2211    2209    2212
    2215    2213    2214    2214    2213    2216    2215    2213    2216
    2219    2217    2218    2218    2217    2220    2219    2217    2220
    2223    2221    2222    2222    2221    2224    2223    2221    2224
    2227    2225    2226    2226    2225    2228    2227    2225    2228
    2231    2229    2230    2230    2229    2232    2231    2229    2232
    2235    2233    2234    2234    2233    2236    2235    2233    2236
    2239    2237    2238    2238    2237    2240    2239    2237    2240
    2243    2241    2242    2242    2241    2244    2243    2241    2244
    2247    2245    2246    2246    2245    2248    2247    2245    2248
    2251    2249    2250    2250    2249    2252    2251    2249    2252
    2255    2253    2254    2254    2253    2256    2255    2253    2256
    2259    2257    2258    2258    2257    2260    2259    2257    2260
    2263    2261    2262    2262    2261    2264    2263    2261    2264
    2267    2265    2266    2266    2265    2268    2267    2265    2268
    2271    2269    2270    2270    2269    2272    2271    2269    2272
    2275    2273    2274    2274    2273    2276    2275    2273    2276
    2279    2277    2278    2278    2277    2280    2279    2277    2280
    2283    2281    2282    2282    2281    2284    2283    2281    2284
    2287    2285    2286    2286    2285    2288    2287    2285    2288
    2291    2289    2290    2290    2289    2292    2291    2289    2292
    2295    2293    2294    2294    2293    2296    2295    2293    2296
    2299    2297    2298    2298    2297    2300    2299    2297    2300
    2303    2301    2302    2302    2301    2304    2303    2301    2304
    2307    2305    2306    2306    2305    2308    2307    2305    2308
    2311    2309    2310    2310    2309    2312    2311    2309    2312
    2315    2313    2314    2314    2313    2316    2315    2313    2316
    2319    2317    2318    2318    2317    2320    2319    2317    2320
    2323    2321    2322    2322    2321    2324    2323    2321    2324
    2327    2325    2326    2326    2325    2328    2327    2325    2328
    2331    2329    2330    2330    2329    2332    2331    2329    2332
    2335    2333    2334    2334    2333    2336    2335    2333    2336
    2339    2337    2338    2338    2337    2340    2339    2337    2340
    2343    2341    2342    2342    2341    2344    2343    2341    2344
    2347    2345    2346    2346    2345    2348    2347    2345    2348
    2351    2349    2350    2350    2349    2352    2351    2349    2352
    2355    2353    2354    2354    2353    2356    2355    2353    2356
    2359    2357    2358    2358    2357    2360    2359    2357    2360
    2363    2361    2362    2362    2361    2364    2363    2361    2364
    2367    2365    2366    2366    2365    2368    2367    2365    2368
    2371    2369    2370    2370    2369    2372    2371    2369    2372
    2375    2373    2374    2374    2373    2376    2375    2373    2376
    2379    2377    2378    2378    2377    2380    2379    2377    2380
    2383    2381    2382    2382    2381    2384    2383    2381    2384
    2387    2385    2386    2386    2385    2388    2387    2385    2388
    2391    2389    2390    2390    2389    2392    2391    2389    2392
    2395    2393    2394    2394    2393    2396    2395    2393    2396
    2399    2397    2398    2398    2397    2400    2399    2397    2400
    2403    2401    2402    2402    2401    2404    2403    2401    2404
    2407    2405    2406    2406    2405    2408    2407    2405    2408
    2411    2409    2410    2410    2409    2412    2411    2409    2412
    2415    2413    2414    2414    2413    2416    2415    2413    2416
    2419    2417    2418    2418    2417    2420    2419    2417    2420
    2423    2421    2422    2422    2421    2424    2423    2421    2424
    2427    2425    2426    2426    2425    2428    2427    2425    2428
    2431    2429    2430    2430    2429    2432    2431    2429    2432
    2435    2433    2434    2434    2433    2436    2435    2433    2436
    2439    2437    2438    2438    2437    2440    2439    2437    2440
    2443    2441    2442    2442    2441    2444    2443    2441    2444
    2447    2445    2446    2446    2445    2448    2447    2445    2448
    2451    2449    2450    2450    2449    2452    2451    2449    2452
    2455    2453    2454    2454    2453    2456    2455    2453    2456
    2459    2457    2458    2458    2457    2460    2459    2457    2460
    2463    2461    2462    2462    2461    2464    2463    2461    2464
    2467    2465    2466    2466    2465    2468    2467    2465    2468
    2471    2469    2470    2470    2469    2472    2471    2469    2472
    2475    2473    2474    2474    2473    2476    2475    2473    2476
    2479    2477    2478    2478    2477    2480    2479    2477    2480
    2483    2481    2482    2482    2481    2484    2483    2481    2484
    2487    2485    2486    2486    2485    2488    2487    2485    2488
    2491    2489    2490    2490    2489    2492    2491    2489    2492
    2495    2493    2494    2494    2493    2496    2495    2493    2496
    2499    2497    2498    2498    2497    2500    2499    2497    2500
    2503    2501    2502    2502    2501    2504    2503    2501    2504
    2507    2505    2506    2506    2505    2508    2507    2505    2508
    2511    2509    2510    2510    2509    2512    2511    2509    2512
    2515    2513    2514    2514    2513    2516    2515    2513    2516
    2519    2517    2518    2518    2517    2520    2519    2517    2520
    2523    2521    2522    2522    2521    2524    2523    2521    2524
    2527    2525    2526    2526    2525    2528    2527    2525    2528
    2531    2529    2530    2530    2529    2532    2531    2529    2532
    2535    2533    2534    2534    2533    2536    2535    2533    2536
    2539    2537    2538    2538    2537    2540    2539    2537    2540
    2543    2541    2542    2542    2541    2544    2543    2541    2544
    2547    2545    2546    2546    2545    2548    2547    2545    2548
    2551    2549    2550    2550    2549    2552    2551    2549    2552
    2555    2553    2554    2554    2553    2556    2555    2553    2556
    2559    2557    2558    2558    2557    2560    2559    2557    2560
    2563    2561    2562    2562    2561    2564    2563    2561    2564
    2567    2565    2566    2566    2565    2568    2567    2565    2568
    2571    2569    2570    2570    2569    2572    2571    2569    2572
    2575    2573    2574    2574    2573    2576    2575    2573    2576
    2579    2577    2578    2578    2577    2580    2579    2577    2580
    2583    2581    2582    2582    2581    2584    2583    2581    2584
    2587    2585    2586    2586    2585    2588    2587    2585    2588
    2591    2589    2590    2590    2589    2592    2591    2589    2592
    2595    2593    2594    2594    2593    2596    2595    2593    2596
    2599    2597    2598    2598    2597    2600    2599    2597    2600
    2603    2601    2602    2602    2601    2604    2603    2601    2604
    2607    2605    2606    2606    2605    2608    2607    2605    2608
    2611    2609    2610    2610    2609    2612    2611    2609    2612
    2615    2613    2614    2614    2613    2616    2615    2613    2616
    2619    2617    2618    2618    2617    2620    2619    2617    2620
    2623    2621    2622    2622    2621    2624    2623    2621    2624
    2627    2625    2626    2626    2625    2628    2627    2625    2628
    2631    2629    2630    2630    2629    2632    2631    2629    2632
    2635    2633    2634    2634    2633    2636    2635    2633    2636
    2639    2637    2638    2638    2637    2640    2639    2637    2640
    2643    2641    2642    2642    2641    2644    2643    2641    2644
    2647    2645    2646    2646    2645    2648    2647    2645    2648
    2651    2649    2650    2650    2649    2652    2651    2649    2652
    2655    2653    2654    2654    2653    2656    2655    2653    2656
    2659    2657    2658    2658    2657    2660    2659    2657    2660
    2663    2661    2662    2662    2661    2664    2663    2661    2664
    2667    2665    2666    2666    2665    2668    2667    2665    2668
    2671    2669    2670    2670    2669    2672    2671    2669    2672
    2675    2673    2674    2674    2673    2676    2675    2673    2676
    2679    2677    2678    2678    2677    2680    2679    2677    2680
    2683    2681    2682    2682    2681    2684    2683    2681    2684
    2687    2685    2686    2686    2685    2688    2687    2685    2688
    2691    2689    2690    2690    2689    2692    2691    2689    2692
    2695    2693    2694    2694    2693    2696    2695    2693    2696
    2699    2697    2698    2698    2697    2700    2699    2697    2700
    2703    2701    2702    2702    2701    2704    2703    2701    2704
    2707    2705    2706    2706    2705    2708    2707    2705    2708
    2711    2709    2710    2710    2709    2712    2711    2709    2712
    2715    2713    2714    2714    2713    2716    2715    2713    2716
    2719    2717    2718    2718    2717    2720    2719    2717    2720
    2723    2721    2722    2722    2721    2724    2723    2721    2724
    2727    2725    2726    2726    2725    2728    2727    2725    2728
    2731    2729    2730    2730    2729    2732    2731    2729    2732
    2735    2733    2734    2734    2733    2736    2735    2733    2736
    2739    2737    2738    2738    2737    2740    2739    2737    2740
    2743    2741    2742    2742    2741    2744    2743    2741    2744
    2747    2745    2746    2746    2745    2748    2747    2745    2748
    2751    2749    2750    2750    2749    2752    2751    2749    2752
    2755    2753    2754    2754    2753    2756    2755    2753    2756
    2759    2757    2758    2758    2757    2760    2759    2757    2760
    2763    2761    2762    2762    2761    2764    2763    2761    2764
    2767    2765    2766    2766    2765    2768    2767    2765    2768
    2771    2769    2770    2770    2769    2772    2771    2769    2772
    2775    2773    2774    2774    2773    2776    2775    2773    2776
    2779    2777    2778    2778    2777    2780    2779    2777    2780
    2783    2781    2782    2782    2781    2784    2783    2781    2784
    2787    2785    2786    2786    2785    2788    2787    2785    2788
    2791    2789    2790    2790    2789    2792    2791    2789    2792
    2795    2793    2794    2794    2793    2796    2795    2793    2796
    2799    2797    2798    2798    2797    2800    2799    2797    2800
    2803    2801    2802    2802    2801    2804    2803    2801    2804
    2807    2805    2806    2806    2805    2808    2807    2805    2808
    2811    2809    2810    2810    2809    2812    2811    2809    2812
    2815    2813    2814    2814    2813    2816    2815    2813    2816
    2819    2817    2818    2818    2817    2820    2819    2817    2820
    2823    2821    2822    2822    2821    2824    2823    2821    2824
    2827    2825    2826    2826    2825    2828    2827    2825    2828
    2831    2829    2830    2830    2829    2832    2831    2829    2832
    2835    2833    2834    2834    2833    2836    2835    2833    2836
    2839    2837    2838    2838    2837    2840    2839    2837    2840
    2843    2841    2842    2842    2841    2844    2843    2841    2844
    2847    2845    2846    2846    2845    2848    2847    2845    2848
    2851    2849    2850    2850    2849    2852    2851    2849    2852
    2855    2853    2854    2854    2853    2856    2855    2853    2856
    2859    2857    2858    2858    2857    2860    2859    2857    2860
    2863    2861    2862    2862    2861    2864    2863    2861    2864
    2867    2865    2866    2866    2865    2868    2867    2865    2868
    2871    2869    2870    2870    2869    2872    2871    2869    2872
    2875    2873    2874    2874    2873    2876    2875    2873    2876
    2879    2877    2878    2878    2877    2880    2879    2877    2880
    2883    2881    2882    2882    2881    2884    2883    2881    2884
    2887    2885    2886    2886    2885    2888    2887    2885    2888
    2891    2889    2890    2890    2889    2892    2891    2889    2892
    2895    2893    2894    2894    2893    2896    2895    2893    2896
    2899    2897    2898    2898    2897    2900    2899    2897    2900
    2903    2901    2902    2902    2901    2904    2903    2901    2904
    2907    2905    2906    2906    2905    2908    2907    2905    2908
    2911    2909    2910    2910    2909    2912    2911    2909    2912
    2915    2913    2914    2914    2913    2916    2915    2913    2916
    2919    2917    2918    2918    2917    2920    2919    2917    2920
    2923    2921    2922    2922    2921    2924    2923    2921    2924
    2927    2925    2926    2926    2925    2928    2927    2925    2928
    2931    2929    2930    2930    2929    2932    2931    2929    2932
    2935    2933    2934    2934    2933    2936    2935    2933    2936
    2939    2937    2938    2938    2937    2940    2939    2937    2940
    2943    2941    2942    2942    2941    2944    2943    2941    2944
    2947    2945    2946    2946    2945    2948    2947    2945    2948
    2951    2949    2950    2950    2949    2952    2951    2949    2952
    2955    2953    2954    2954    2953    2956    2955    2953    2956
    2959    2957    2958    2958    2957    2960    2959    2957    2960
    2963    2961    2962    2962    2961    2964    2963    2961    2964
    2967    2965    2966    2966    2965    2968    2967    2965    2968
    2971    2969    2970    2970    2969    2972    2971    2969    2972
    2975    2973    2974    2974    2973    2976    2975    2973    2976
    2979    2977    2978    2978    2977    2980    2979    2977    2980
    2983    2981    2982    2982    2981    2984    2983    2981    2984
    2987    2985    2986    2986    2985    2988    2987    2985    2988
    2991    2989    2990    2990    2989    2992    2991    2989    2992
    2995    2993    2994    2994    2993    2996    2995    2993    2996
    2999    2997    2998    2998    2997    3000    2999    2997    3000
    3003    3001    3002    3002    3001    3004    3003    3001    3004
    3007    3005    3006    3006    3005    3008    3007    3005    3008
    3011    3009    3010    3010    3009    3012    3011    3009    3012
    3015    3013    3014    3014    3013    3016    3015    3013    3016
    3019    3017    3018    3018    3017    3020    3019    3017    3020
    3023    3021    3022    3022    3021    3024    3023    3021    3024
    3027    3025    3026    3026    3025    3028    3027    3025    3028
    3031    3029    3030    3030    3029    3032    3031    3029    3032
    3035    3033    3034    3034    3033    3036    3035    3033    3036
    3039    3037    3038    3038    3037    3040    3039    3037    3040
    3043    3041    3042    3042    3041    3044    3043    3041    3044
    3047    3045    3046    3046    3045    3048    3047    3045    3048
    3051    3049    3050    3050    3049    3052    3051    3049    3052
    3055    3053    3054    3054    3053    3056    3055    3053    3056
    3059    3057    3058    3058    3057    3060    3059    3057    3060
    3063    3061    3062    3062    3061    3064    3063    3061    3064
    3067    3065    3066    3066    3065    3068    3067    3065    3068
    3071    3069    3070    3070    3069    3072    3071    3069    3072
    3075    3073    3074    3074    3073    3076    3075    3073    3076
    3079    3077    3078    3078    3077    3080    3079    3077    3080
    3083    3081    3082    3082    3081    3084    3083    3081    3084
    3087    3085    3086    3086    3085    3088    3087    3085    3088
    3091    3089    3090    3090    3089    3092    3091    3089    3092
    3095    3093    3094    3094    3093    3096    3095    3093    3096
    3099    3097    3098    3098    3097    3100    3099    3097    3100
    3103    3101    3102    3102    3101    3104    3103    3101    3104
    3107    3105    3106    3106    3105    3108    3107    3105    3108
    3111    3109    3110    3110    3109    3112    3111    3109    3112
    3115    3113    3114    3114    3113    3116    3115    3113    3116
    3119    3117    3118    3118    3117    3120    3119    3117    3120
    3123    3121    3122    3122    3121    3124    3123    3121    3124
    3127    3125    3126    3126    3125    3128    3127    3125    3128
    3131    3129    3130    3130    3129    3132    3131    3129    3132
    3135    3133    3134    3134    3133    3136    3135    3133    3136
    3139    3137    3138    3138    3137    3140    3139    3137    3140
    3143    3141    3142    3142    3141    3144    3143    3141    3144
    3147    3145    3146    3146    3145    3148    3147    3145    3148
    3151    3149    3150    3150    3149    3152    3151    3149    3152
    3155    3153    3154    3154    3153    3156    3155    3153    3156
    3159    3157    3158    3158    3157    3160    3159    3157    3160
    3163    3161    3162    3162    3161    3164    3163    3161    3164
    3167    3165    3166    3166    3165    3168    3167    3165    3168
    3171    3169    3170    3170    3169    3172    3171    3169    3172
    3175    3173    3174    3174    3173    3176    3175    3173    3176
    3179    3177    3178    3178    3177    3180    3179    3177    3180
    3183    3181    3182    3182    3181    3184    3183    3181    3184
    3187    3185    3186    3186    3185    3188    3187    3185    3188
    3191    3189    3190    3190    3189    3192    3191    3189    3192
    3195    3193    3194    3194    3193    3196    3195    3193    3196
    3199    3197    3198    3198    3197    3200    3199    3197    3200
    3203    3201    3202    3202    3201    3204    3203    3201    3204
    3207    3205    3206    3206    3205    3208    3207    3205    3208
    3211    3209    3210    3210    3209    3212    3211    3209    3212
    3215    3213    3214    3214    3213    3216    3215    3213    3216
    3219    3217    3218    3218    3217    3220    3219    3217    3220
    3223    3221    3222    3222    3221    3224    3223    3221    3224
    3227    3225    3226    3226    3225    3228    3227    3225    3228
    3231    3229    3230    3230    3229    3232    3231    3229    3232
    3235    3233    3234    3234    3233    3236    3235    3233    3236
    3239    3237    3238    3238    3237    3240    3239    3237    3240
    3243    3241    3242    3242    3241    3244    3243    3241    3244
    3247    3245    3246    3246    3245    3248    3247    3245    3248
    3251    3249    3250    3250    3249    3252    3251    3249    3252
    3255    3253    3254    3254    3253    3256    3255    3253    3256
    3259    3257    3258    3258    3257    3260    3259    3257    3260
    3263    3261    3262    3262    3261    3264    3263    3261    3264
    3267    3265    3266    3266    3265    3268    3267    3265    3268
    3271    3269    3270    3270    3269    3272    3271    3269    3272
    3275    3273    3274    3274    3273    3276    3275    3273    3276
    3279    3277    3278    3278    3277    3280    3279    3277    3280
    3283    3281    3282    3282    3281    3284    3283    3281    3284
    3287    3285    3286    3286    3285    3288    3287    3285    3288
    3291    3289    3290    3290    3289    3292    3291    3289    3292
    3295    3293    3294    3294    3293    3296    3295    3293    3296
    3299    3297    3298    3298    3297    3300    3299    3297    3300
    3303    3301    3302    3302    3301    3304    3303    3301    3304
    3307    3305    3306    3306    3305    3308    3307    3305    3308
    3311    3309    3310    3310    3309    3312    3311    3309    3312
    3315    3313    3314    3314    3313    3316    3315    3313    3316
    3319    3317    3318    3318    3317    3320    3319    3317    3320
    3323    3321    3322    3322    3321    3324    3323    3321    3324
    3327    3325    3326    3326    3325    3328    3327    3325    3328
    3331    3329    3330    3330    3329    3332    3331    3329    3332
    3335    3333    3334    3334    3333    3336    3335    3333    3336
    3339    3337    3338    3338    3337    3340    3339    3337    3340
    3343    3341    3342    3342    3341    3344    3343    3341    3344
    3347    3345    3346    3346    3345    3348    3347    3345    3348
    3351    3349    3350    3350    3349    3352    3351    3349    3352
    3355    3353    3354    3354    3353    3356    3355    3353    3356
    3359    3357    3358    3358    3357    3360    3359    3357    3360
    3363    3361    3362    3362    3361    3364    3363    3361    3364
    3367    3365    3366    3366    3365    3368    3367    3365    3368
    3371    3369    3370    3370    3369    3372    3371    3369    3372
    3375    3373    3374    3374    3373    3376    3375    3373    3376
    3379    3377    3378    3378    3377    3380    3379    3377    3380
    3383    3381    3382    3382    3381    3384    3383    3381    3384
    3387    3385    3386    3386    3385    3388    3387    3385    3388
    3391    3389    3390    3390    3389    3392    3391    3389    3392
    3395    3393    3394    3394    3393    3396    3395    3393    3396
    3399    3397    3398    3398    3397    3400    3399    3397    3400
    3403    3401    3402    3402    3401    3404    3403    3401    3404
    3407    3405    3406    3406    3405    3408    3407    3405    3408
    3411    3409    3410    3410    3409    3412    3411    3409    3412
    3415    3413    3414    3414    3413    3416    3415    3413    3416
    3419    3417    3418    3418    3417    3420    3419    3417    3420
    3423    3421    3422    3422    3421    3424    3423    3421    3424
    3427    3425    3426    3426    3425    3428    3427    3425    3428
    3431    3429    3430    3430    3429    3432    3431    3429    3432
    3435    3433    3434    3434    3433    3436    3435    3433    3436
    3439    3437    3438    3438    3437    3440    3439    3437    3440
    3443    3441    3442    3442    3441    3444    3443    3441    3444
    3447    3445    3446    3446    3445    3448    3447    3445    3448
    3451    3449    3450    3450    3449    3452    3451    3449    3452
    3455    3453    3454    3454    3453    3456    3455    3453    3456
    3459    3457    3458    3458    3457    3460    3459    3457    3460
    3463    3461    3462    3462    3461    3464    3463    3461    3464
    3467    3465    3466    3466    3465    3468    3467    3465    3468
    3471    3469    3470    3470    3469    3472    3471    3469    3472
    3475    3473    3474    3474    3473    3476    3475    3473    3476
    3479    3477    3478    3478    3477    3480    3479    3477    3480
    3483    3481    3482    3482    3481    3484    3483    3481    3484
    3487    3485    3486    3486    3485    3488    3487    3485    3488
    3491    3489    3490    3490    3489    3492    3491    3489    3492
    3495    3493    3494    3494    3493    3496    3495    3493    3496
    3499    3497    3498    3498    3497    3500    3499    3497    3500
    3503    3501    3502    3502    3501    3504    3503    3501    3504
    3507    3505    3506    3506    3505    3508    3507    3505    3508
    3511    3509    3510    3510    3509    3512    3511    3509    3512
    3515    3513    3514    3514    3513    3516    3515    3513    3516
    3519    3517    3518    3518    3517    3520    3519    3517    3520
    3523    3521    3522    3522    3521    3524    3523    3521    3524
    3527    3525    3526    3526    3525    3528    3527    3525    3528
    3531    3529    3530    3530    3529    3532    3531    3529    3532
    3535    3533    3534    3534    3533    3536    3535    3533    3536
    3539    3537    3538    3538    3537    3540    3539    3537    3540
    3543    3541    3542    3542    3541    3544    3543    3541    3544
    3547    3545    3546    3546    3545    3548    3547    3545    3548
    3551    3549    3550    3550    3549    3552    3551    3549    3552
    3555    3553    3554    3554    3553    3556    3555    3553    3556
    3559    3557    3558    3558    3557    3560    3559    3557    3560
    3563    3561    3562    3562    3561    3564    3563    3561    3564
    3567    3565    3566    3566    3565    3568    3567    3565    3568
    3571    3569    3570    3570    3569    3572    3571    3569    3572
    3575    3573    3574    3574    3573    3576    3575    3573    3576
    3579    3577    3578    3578    3577    3580    3579    3577    3580
    3583    3581    3582    3582    3581    3584    3583    3581    3584
    3587    3585    3586    3586    3585    3588    3587    3585    3588
    3591    3589    3590    3590    3589    3592    3591    3589    3592
    3595    3593    3594    3594    3593    3596    3595    3593    3596
    3599    3597    3598    3598    3597    3600    3599    3597    3600
    3603    3601    3602    3602    3601    3604    3603    3601    3604
    3607    3605    3606    3606    3605    3608    3607    3605    3608
    3611    3609    3610    3610    3609    3612    3611    3609    3612
    3615    3613    3614    3614    3613    3616    3615    3613    3616
    3619    3617    3618    3618    3617    3620    3619    3617    3620
    3623    3621    3622    3622    3621    3624    3623    3621    3624
    3627    3625    3626    3626    3625    3628    3627    3625    3628
    3631    3629    3630    3630    3629    3632    3631    3629    3632
    3635    3633    3634    3634    3633    3636    3635    3633    3636
    3639    3637    3638    3638    3637    3640    3639    3637    3640
    3643    3641    3642    3642    3641    3644    3643    3641    3644
    3647    3645    3646    3646    3645    3648    3647    3645    3648
    3651    3649    3650    3650    3649    3652    3651    3649    3652
    3655    3653    3654    3654    3653    3656    3655    3653    3656
    3659    3657    3658    3658    3657    3660    3659    3657    3660
    3663    3661    3662    3662    3661    3664    3663    3661    3664
    3667    3665    3666    3666    3665    3668    3667    3665    3668
    3671    3669    3670    3670    3669    3672    3671    3669    3672
    3675    3673    3674    3674    3673    3676    3675    3673    3676
    3679    3677    3678    3678    3677    3680    3679    3677    3680
    3683    3681    3682    3682    3681    3684    3683    3681    3684
    3687    3685    3686    3686    3685    3688    3687    3685    3688
    3691    3689    3690    3690    3689    3692    3691    3689    3692
    3695    3693    3694    3694    3693    3696    3695    3693    3696
    3699    3697    3698    3698    3697    3700    3699    3697    3700
    3703    3701    3702    3702    3701    3704    3703    3701    3704
    3707    3705    3706    3706    3705    3708    3707    3705    3708
    3711    3709    3710    3710    3709    3712    3711    3709    3712
    3715    3713    3714    3714    3713    3716    3715    3713    3716
    3719    3717    3718    3718    3717    3720    3719    3717    3720
    3723    3721    3722    3722    3721    3724    3723    3721    3724
    3727    3725    3726    3726    3725    3728    3727    3725    3728
    3731    3729    3730    3730    3729    3732    3731    3729    3732
    3735    3733    3734    3734    3733    3736    3735    3733    3736
    3739    3737    3738    3738    3737    3740    3739    3737    3740
    3743    3741    3742    3742    3741    3744    3743    3741    3744
    3747    3745    3746    3746    3745    3748    3747    3745    3748
    3751    3749    3750    3750    3749    3752    3751    3749    3752
    3755    3753    3754    3754    3753    3756    3755    3753    3756
    3759    3757    3758    3758    3757    3760    3759    3757    3760
    3763    3761    3762    3762    3761    3764    3763    3761    3764
    3767    3765    3766    3766    3765    3768    3767    3765    3768
    3771    3769    3770    3770    3769    3772    3771    3769    3772
    3775    3773    3774    3774    3773    3776    3775    3773    3776
    3779    3777    3778    3778    3777    3780    3779    3777    3780
    3783    3781    3782    3782    3781    3784    3783    3781    3784
    3787    3785    3786    3786    3785    3788    3787    3785    3788
    3791    3789    3790    3790    3789    3792    3791    3789    3792
    3795    3793    3794    3794    3793    3796    3795    3793    3796
    3799    3797    3798    3798    3797    3800    3799    3797    3800
    3803    3801    3802    3802    3801    3804    3803    3801    3804
    3807    3805    3806    3806    3805    3808    3807    3805    3808
    3811    3809    3810    3810    3809    3812    3811    3809    3812
    3815    3813    3814    3814    3813    3816    3815    3813    3816
    3819    3817    3818    3818    3817    3820    3819    3817    3820
    3823    3821    3822    3822    3821    3824    3823    3821    3824
    3827    3825    3826    3826    3825    3828    3827    3825    3828
    3831    3829    3830    3830    3829    3832    3831    3829    3832
    3835    3833    3834    3834    3833    3836    3835    3833    3836
    3839    3837    3838    3838    3837    3840    3839    3837    3840
    3843    3841    3842    3842    3841    3844    3843    3841    3844
    3847    3845    3846    3846    3845    3848    3847    3845    3848
    3851    3849    3850    3850    3849    3852    3851    3849    3852
    3855    3853    3854    3854    3853    3856    3855    3853    3856
    3859    3857    3858    3858    3857    3860    3859    3857    3860
    3863    3861    3862    3862    3861    3864    3863    3861    3864
    3867    3865    3866    3866    3865    3868    3867    3865    3868
    3871    3869    3870    3870    3869    3872    3871    3869    3872
    3875    3873    3874    3874    3873    3876    3875    3873    3876
    3879    3877    3878    3878    3877    3880    3879    3877    3880
    3883    3881    3882    3882    3881    3884    3883    3881    3884
    3887    3885    3886    3886    3885    3888    3887    3885    3888
    3891    3889    3890    3890    3889    3892    3891    3889    3892
    3895    3893    3894    3894    3893    3896    3895    3893    3896
    3899    3897    3898    3898    3897    3900    3899    3897    3900
    3903    3901    3902    3902    3901    3904    3903    3901    3904
    3907    3905    3906    3906    3905    3908    3907    3905    3908
    3911    3909    3910    3910    3909    3912    3911    3909    3912
    3915    3913    3914    3914    3913    3916    3915    3913    3916
    3919    3917    3918    3918    3917    3920    3919    3917    3920
    3923    3921    3922    3922    3921    3924    3923    3921    3924
    3927    3925    3926    3926    3925    3928    3927    3925    3928
    3931    3929    3930    3930    3929    3932    3931    3929    3932
    3935    3933    3934    3934    3933    3936    3935    3933    3936
    3939    3937    3938    3938    3937    3940    3939    3937    3940
    3943    3941    3942    3942    3941    3944    3943    3941    3944
    3947    3945    3946    3946    3945    3948    3947    3945    3948
    3951    3949    3950    3950    3949    3952    3951    3949    3952
    3955    3953    3954    3954    3953    3956    3955    3953    3956
    3959    3957    3958    3958    3957    3960    3959    3957    3960
    3963    3961    3962    3962    3961    3964    3963    3961    3964
    3967    3965    3966    3966    3965    3968    3967    3965    3968
    3971    3969    3970    3970    3969    3972    3971    3969    3972
    3975    3973    3974    3974    3973    3976    3975    3973    3976
    3979    3977    3978    3978    3977    3980    3979    3977    3980
    3983    3981    3982    3982    3981    3984    3983    3981    3984
    3987    3985    3986    3986    3985    3988    3987    3985    3988
    3991    3989    3990    3990    3989    3992    3991    3989    3992
    3995    3993    3994    3994    3993    3996    3995    3993    3996
    3999    3997    3998    3998    3997    4000    3999    3997    4000
    4003    4001    4002    4002    4001    4004    4003    4001    4004
    4007    4005    4006    4006    4005    4008    4007    4005    4008
    4011    4009    4010    4010    4009    4012    4011    4009    4012
    4015    4013    4014    4014    4013    4016    4015    4013    4016
    4019    4017    4018    4018    4017    4020    4019    4017    4020
    4023    4021    4022    4022    4021    4024    4023    4021    4024
    4027    4025    4026    4026    4025    4028    4027    4025    4028
    4031    4029    4030    4030    4029    4032    4031    4029    4032
    4035    4033    4034    4034    4033    4036    4035    4033    4036
    4039    4037    4038    4038    4037    4040    4039    4037    4040
    4043    4041    4042    4042    4041    4044    4043    4041    4044
    4047    4045    4046    4046    4045    4048    4047    4045    4048
    4051    4049    4050    4050    4049    4052    4051    4049    4052
    4055    4053    4054    4054    4053    4056    4055    4053    4056
    4059    4057    4058    4058    4057    4060    4059    4057    4060
    4063    4061    4062    4062    4061    4064    4063    4061    4064
    4067    4065    4066    4066    4065    4068    4067    4065    4068
    4071    4069    4070    4070    4069    4072    4071    4069    4072
    4075    4073    4074    4074    4073    4076    4075    4073    4076
    4079    4077    4078    4078    4077    4080    4079    4077    4080
    4083    4081    4082    4082    4081    4084    4083    4081    4084
    4087    4085    4086    4086    4085    4088    4087    4085    4088
    4091    4089    4090    4090    4089    4092    4091    4089    4092
    4095    4093    4094    4094    4093    4096    4095    4093    4096
    4099    4097    4098    4098    4097    4100    4099    4097    4100
    4103    4101    4102    4102    4101    4104    4103    4101    4104
    4107    4105    4106    4106    4105    4108    4107    4105    4108
    4111    4109    4110    4110    4109    4112    4111    4109    4112
    4115    4113    4114    4114    4113    4116    4115    4113    4116
    4119    4117    4118    4118    4117    4120    4119    4117    4120
    4123    4121    4122    4122    4121    4124    4123    4121    4124
    4127    4125    4126    4126    4125    4128    4127    4125    4128
    4131    4129    4130    4130    4129    4132    4131    4129    4132
    4135    4133    4134    4134    4133    4136    4135    4133    4136
    4139    4137    4138    4138    4137    4140    4139    4137    4140
    4143    4141    4142    4142    4141    4144    4143    4141    4144
    4147    4145    4146    4146    4145    4148    4147    4145    4148
    4151    4149    4150    4150    4149    4152    4151    4149    4152
    4155    4153    4154    4154    4153    4156    4155    4153    4156
    4159    4157    4158    4158    4157    4160    4159    4157    4160
    4163    4161    4162    4162    4161    4164    4163    4161    4164
    4167    4165    4166    4166    4165    4168    4167    4165    4168
    4171    4169    4170    4170    4169    4172    4171    4169    4172
    4175    4173    4174    4174    4173    4176    4175    4173    4176
    4179    4177    4178    4178    4177    4180    4179    4177    4180
    4183    4181    4182    4182    4181    4184    4183    4181    4184
    4187    4185    4186    4186    4185    4188    4187    4185    4188
    4191    4189    4190    4190    4189    4192    4191    4189    4192
    4195    4193    4194    4194    4193    4196    4195    4193    4196
    4199    4197    4198    4198    4197    4200    4199    4197    4200
    4203    4201    4202    4202    4201    4204    4203    4201    4204
    4207    4205    4206    4206    4205    4208    4207    4205    4208
    4211    4209    4210    4210    4209    4212    4211    4209    4212
    4215    4213    4214    4214    4213    4216    4215    4213    4216
    4219    4217    4218    4218    4217    4220    4219    4217    4220
    4223    4221    4222    4222    4221    4224    4223    4221    4224
    4227    4225    4226    4226    4225    4228    4227    4225    4228
    4231    4229    4230    4230    4229    4232    4231    4229    4232
    4235    4233    4234    4234    4233    4236    4235    4233    4236
    4239    4237    4238    4238    4237    4240    4239    4237    4240
    4243    4241    4242    4242    4241    4244    4243    4241    4244
    4247    4245    4246    4246    4245    4248    4247    4245    4248
    4251    4249    4250    4250    4249    4252    4251    4249    4252
    4255    4253    4254    4254    4253    4256    4255    4253    4256
    4259    4257    4258    4258    4257    4260    4259    4257    4260
    4263    4261    4262    4262    4261    4264    4263    4261    4264
    4267    4265    4266    4266    4265    4268    4267    4265    4268
    4271    4269    4270    4270    4269    4272    4271    4269    4272
    4275    4273    4274    4274    4273    4276    4275    4273    4276
    4279    4277    4278    4278    4277    4280    4279    4277    4280
    4283    4281    4282    4282    4281    4284    4283    4281    4284
    4287    4285    4286    4286    4285    4288    4287    4285    4288
    4291    4289    4290    4290    4289    4292    4291    4289    4292
    4295    4293    4294    4294    4293    4296    4295    4293    4296
    4299    4297    4298    4298    4297    4300    4299    4297    4300
    4303    4301    4302    4302    4301    4304    4303    4301    4304
    4307    4305    4306    4306    4305    4308    4307    4305    4308
    4311    4309    4310    4310    4309    4312    4311    4309    4312
    4315    4313    4314    4314    4313    4316    4315    4313    4316
    4319    4317    4318    4318    4317    4320    4319    4317    4320
    4323    4321    4322    4322    4321    4324    4323    4321    4324
    4327    4325    4326    4326    4325    4328    4327    4325    4328
    4331    4329    4330    4330    4329    4332    4331    4329    4332
    4335    4333    4334    4334    4333    4336    4335    4333    4336
    4339    4337    4338    4338    4337    4340    4339    4337    4340
    4343    4341    4342    4342    4341    4344    4343    4341    4344
    4347    4345    4346    4346    4345    4348    4347    4345    4348
    4351    4349    4350    4350    4349    4352    4351    4349    4352
    4355    4353    4354    4354    4353    4356    4355    4353    4356
    4359    4357    4358    4358    4357    4360    4359    4357    4360
    4363    4361    4362    4362    4361    4364    4363    4361    4364
    4367    4365    4366    4366    4365    4368    4367    4365    4368
    4371    4369    4370    4370    4369    4372    4371    4369    4372
    4375    4373    4374    4374    4373    4376    4375    4373    4376
    4379    4377    4378    4378    4377    4380    4379    4377    4380
    4383    4381    4382    4382    4381    4384    4383    4381    4384
    4387    4385    4386    4386    4385    4388    4387    4385    4388
    4391    4389    4390    4390    4389    4392    4391    4389    4392
    4395    4393    4394    4394    4393    4396    4395    4393    4396
    4399    4397    4398    4398    4397    4400    4399    4397    4400
    4403    4401    4402    4402    4401    4404    4403    4401    4404
    4407    4405    4406    4406    4405    4408    4407    4405    4408
    4411    4409    4410    4410    4409    4412    4411    4409    4412
    4415    4413    4414    4414    4413    4416    4415    4413    4416
    4419    4417    4418    4418    4417    4420    4419    4417    4420
    4423    4421    4422    4422    4421    4424    4423    4421    4424
    4427    4425    4426    4426    4425    4428    4427    4425    4428
    4431    4429    4430    4430    4429    4432    4431    4429    4432
    4435    4433    4434    4434    4433    4436    4435    4433    4436
    4439    4437    4438    4438    4437    4440    4439    4437    4440
    4443    4441    4442    4442    4441    4444    4443    4441    4444
    4447    4445    4446    4446    4445    4448    4447    4445    4448
    4451    4449    4450    4450    4449    4452    4451    4449    4452
    4455    4453    4454    4454    4453    4456    4455    4453    4456
    4459    4457    4458    4458    4457    4460    4459    4457    4460
    4463    4461    4462    4462    4461    4464    4463    4461    4464
    4467    4465    4466    4466    4465    4468    4467    4465    4468
    4471    4469    4470    4470    4469    4472    4471    4469    4472
    4475    4473    4474    4474    4473    4476    4475    4473    4476
    4479    4477    4478    4478    4477    4480    4479    4477    4480
    4483    4481    4482    4482    4481    4484    4483    4481    4484
    4487    4485    4486    4486    4485    4488    4487    4485    4488
    4491    4489    4490    4490    4489    4492    4491    4489    4492
    4495    4493    4494    4494    4493    4496    4495    4493    4496
    4499    4497    4498    4498    4497    4500    4499    4497    4500
    4503    4501    4502    4502    4501    4504    4503    4501    4504
    4507    4505    4506    4506    4505    4508    4507    4505    4508
    4511    4509    4510    4510    4509    4512    4511    4509    4512
    4515    4513    4514    4514    4513    4516    4515    4513    4516
    4519    4517    4518    4518    4517    4520    4519    4517    4520
    4523    4521    4522    4522    4521    4524    4523    4521    4524
    4527    4525    4526    4526    4525    4528    4527    4525    4528
    4531    4529    4530    4530    4529    4532    4531    4529    4532
    4535    4533    4534    4534    4533    4536    4535    4533    4536
    4539    4537    4538    4538    4537    4540    4539    4537    4540
    4543    4541    4542    4542    4541    4544    4543    4541    4544
    4547    4545    4546    4546    4545    4548    4547    4545    4548
    4551    4549    4550    4550    4549    4552    4551    4549    4552
    4555    4553    4554    4554    4553    4556    4555    4553    4556
    4559    4557    4558    4558    4557    4560    4559    4557    4560
    4563    4561    4562    4562    4561    4564    4563    4561    4564
    4567    4565    4566    4566    4565    4568    4567    4565    4568
    4571    4569    4570    4570    4569    4572    4571    4569    4572
    4575    4573    4574    4574    4573    4576    4575    4573    4576
    4579    4577    4578    4578    4577    4580    4579    4577    4580
    4583    4581    4582    4582    4581    4584    4583    4581    4584
    4587    4585    4586    4586    4585    4588    4587    4585    4588
    4591    4589    4590    4590    4589    4592    4591    4589    4592
    4595    4593    4594    4594    4593    4596    4595    4593    4596
    4599    4597    4598    4598    4597    4600    4599    4597    4600
    4603    4601    4602    4602    4601    4604    4603    4601    4604
    4607    4605    4606    4606    4605    4608    4607    4605    4608
    4611    4609    4610    4610    4609    4612    4611    4609    4612
    4615    4613    4614    4614    4613    4616    4615    4613    4616
    4619    4617    4618    4618    4617    4620    4619    4617    4620
    4623    4621    4622    4622    4621    4624    4623    4621    4624
    4627    4625    4626    4626    4625    4628    4627    4625    4628
    4631    4629    4630    4630    4629    4632    4631    4629    4632
    4635    4633    4634    4634    4633    4636    4635    4633    4636
    4639    4637    4638    4638    4637    4640    4639    4637    4640
    4643    4641    4642    4642    4641    4644    4643    4641    4644
    4647    4645    4646    4646    4645    4648    4647    4645    4648
    4651    4649    4650    4650    4649    4652    4651    4649    4652
    4655    4653    4654    4654    4653    4656    4655    4653    4656
    4659    4657    4658    4658    4657    4660    4659    4657    4660
    4663    4661    4662    4662    4661    4664    4663    4661    4664
    4667    4665    4666    4666    4665    4668    4667    4665    4668
    4671    4669    4670    4670    4669    4672    4671    4669    4672
    4675    4673    4674    4674    4673    4676    4675    4673    4676
    4679    4677    4678    4678    4677    4680    4679    4677    4680
    4683    4681    4682    4682    4681    4684    4683    4681    4684
    4687    4685    4686    4686    4685    4688    4687    4685    4688
    4691    4689    4690    4690    4689    4692    4691    4689    4692
    4695    4693    4694    4694    4693    4696    4695    4693    4696
    4699    4697    4698    4698    4697    4700    4699    4697    4700
    4703    4701    4702    4702    4701    4704    4703    4701    4704
    4707    4705    4706    4706    4705    4708    4707    4705    4708
    4711    4709    4710    4710    4709    4712    4711    4709    4712
    4715    4713    4714    4714    4713    4716    4715    4713    4716
    4719    4717    4718    4718    4717    4720    4719    4717    4720
    4723    4721    4722    4722    4721    4724    4723    4721    4724
    4727    4725    4726    4726    4725    4728    4727    4725    4728
    4731    4729    4730    4730    4729    4732    4731    4729    4732
    4735    4733    4734    4734    4733    4736    4735    4733    4736
    4739    4737    4738    4738    4737    4740    4739    4737    4740
    4743    4741    4742    4742    4741    4744    4743    4741    4744
    4747    4745    4746    4746    4745    4748    4747    4745    4748
    4751    4749    4750    4750    4749    4752    4751    4749    4752
    4755    4753    4754    4754    4753    4756    4755    4753    4756
    4759    4757    4758    4758    4757    4760    4759    4757    4760
    4763    4761    4762    4762    4761    4764    4763    4761    4764
    4767    4765    4766    4766    4765    4768    4767    4765    4768
    4771    4769    4770    4770    4769    4772    4771    4769    4772
    4775    4773    4774    4774    4773    4776    4775    4773    4776
    4779    4777    4778    4778    4777    4780    4779    4777    4780
    4783    4781    4782    4782    4781    4784    4783    4781    4784
    4787    4785    4786    4786    4785    4788    4787    4785    4788
    4791    4789    4790    4790    4789    4792    4791    4789    4792
    4795    4793    4794    4794    4793    4796    4795    4793    4796
    4799    4797    4798    4798    4797    4800    4799    4797    4800
    4803    4801    4802    4802    4801    4804    4803    4801    4804
    4807    4805    4806    4806    4805    4808    4807    4805    4808
    4811    4809    4810    4810    4809    4812    4811    4809    4812
    4815    4813    4814    4814    4813    4816    4815    4813    4816
    4819    4817    4818    4818    4817    4820    4819    4817    4820
    4823    4821    4822    4822    4821    4824    4823    4821    4824
    4827    4825    4826    4826    4825    4828    4827    4825    4828
    4831    4829    4830    4830    4829    4832    4831    4829    4832
    4835    4833    4834    4834    4833    4836    4835    4833    4836
    4839    4837    4838    4838    4837    4840    4839    4837    4840
    4843    4841    4842    4842    4841    4844    4843    4841    4844
    4847    4845    4846    4846    4845    4848    4847    4845    4848
    4851    4849    4850    4850    4849    4852    4851    4849    4852
    4855    4853    4854    4854    4853    4856    4855    4853    4856
    4859    4857    4858    4858    4857    4860    4859    4857    4860
    4863    4861    4862    4862    4861    4864    4863    4861    4864
    4867    4865    4866    4866    4865    4868    4867    4865    4868
    4871    4869    4870    4870    4869    4872    4871    4869    4872
    4875    4873    4874    4874    4873    4876    4875    4873    4876
    4879    4877    4878    4878    4877    4880    4879    4877    4880
    4883    4881    4882    4882    4881    4884    4883    4881    4884
    4887    4885    4886    4886    4885    4888    4887    4885    4888
    4891    4889    4890    4890    4889    4892    4891    4889    4892
    4895    4893    4894    4894    4893    4896    4895    4893    4896
    4899    4897    4898    4898    4897    4900    4899    4897    4900
    4903    4901    4902    4902    4901    4904    4903    4901    4904
    4907    4905    4906    4906    4905    4908    4907    4905    4908
    4911    4909    4910    4910    4909    4912    4911    4909    4912
    4915    4913    4914    4914    4913    4916    4915    4913    4916
    4919    4917    4918    4918    4917    4920    4919    4917    4920
    4923    4921    4922    4922    4921    4924    4923    4921    4924
    4927    4925    4926    4926    4925    4928    4927    4925    4928
    4931    4929    4930    4930    4929    4932    4931    4929    4932
    4935    4933    4934    4934    4933    4936    4935    4933    4936
    4939    4937    4938    4938    4937    4940    4939    4937    4940
    4943    4941    4942    4942    4941    4944    4943    4941    4944
    4947    4945    4946    4946    4945    4948    4947    4945    4948
    4951    4949    4950    4950    4949    4952    4951    4949    4952
    4955    4953    4954    4954    4953    4956    4955    4953    4956
    4959    4957    4958    4958    4957    4960    4959    4957    4960
    4963    4961    4962    4962    4961    4964    4963    4961    4964
    4967    4965    4966    4966    4965    4968    4967    4965    4968
    4971    4969    4970    4970    4969    4972    4971    4969    4972
    4975    4973    4974    4974    4973    4976    4975    4973    4976
    4979    4977    4978    4978    4977    4980    4979    4977    4980
    4983    4981    4982    4982    4981    4984    4983    4981    4984
    4987    4985    4986    4986    4985    4988    4987    4985    4988
    4991    4989    4990    4990    4989    4992    4991    4989    4992
    4995    4993    4994    4994    4993    4996    4995    4993    4996
    4999    4997    4998    4998    4997    5000    4999    4997    5000
    5003    5001    5002    5002    5001    5004    5003    5001    5004
    5007    5005    5006    5006    5005    5008    5007    5005    5008
    5011    5009    5010    5010    5009    5012    5011    5009    5012
    5015    5013    5014    5014    5013    5016    5015    5013    5016
    5019    5017    5018    5018    5017    5020    5019    5017    5020
    5023    5021    5022    5022    5021    5024    5023    5021    5024
    5027    5025    5026    5026    5025    5028    5027    5025    5028
    5031    5029    5030    5030    5029    5032    5031    5029    5032
    5035    5033    5034    5034    5033    5036    5035    5033    5036
    5039    5037    5038    5038    5037    5040    5039    5037    5040
    5043    5041    5042    5042    5041    5044    5043    5041    5044
    5047    5045    5046    5046    5045    5048    5047    5045    5048
    5051    5049    5050    5050    5049    5052    5051    5049    5052
    5055    5053    5054    5054    5053    5056    5055    5053    5056
    5059    5057    5058    5058    5057    5060    5059    5057    5060
    5063    5061    5062    5062    5061    5064    5063    5061    5064
    5067    5065    5066    5066    5065    5068    5067    5065    5068
    5071    5069    5070    5070    5069    5072    5071    5069    5072
    5075    5073    5074    5074    5073    5076    5075    5073    5076
    5079    5077    5078    5078    5077    5080    5079    5077    5080
    5083    5081    5082    5082    5081    5084    5083    5081    5084
    5087    5085    5086    5086    5085    5088    5087    5085    5088
    5091    5089    5090    5090    5089    5092    5091    5089    5092
    5095    5093    5094    5094    5093    5096    5095    5093    5096
    5099    5097    5098    5098    5097    5100    5099    5097    5100
    5103    5101    5102    5102    5101    5104    5103    5101    5104
    5107    5105    5106    5106    5105    5108    5107    5105    5108
    5111    5109    5110    5110    5109    5112    5111    5109    5112
    5115    5113    5114    5114    5113    5116    5115    5113    5116
    5119    5117    5118    5118    5117    5120    5119    5117    5120
    5123    5121    5122    5122    5121    5124    5123    5121    5124
    5127    5125    5126    5126    5125    5128    5127    5125    5128
    5131    5129    5130    5130    5129    5132    5131    5129    5132
    5135    5133    5134    5134    5133    5136    5135    5133    5136
    5139    5137    5138    5138    5137    5140    5139    5137    5140
    5143    5141    5142    5142    5141    5144    5143    5141    5144
    5147    5145    5146    5146    5145    5148    5147    5145    5148
    5151    5149    5150    5150    5149    5152    5151    5149    5152
    5155    5153    5154    5154    5153    5156    5155    5153    5156
    5159    5157    5158    5158    5157    5160    5159    5157    5160
    5163    5161    5162    5162    5161    5164    5163    5161    5164
    5167    5165    5166    5166    5165    5168    5167    5165    5168
    5171    5169    5170    5170    5169    5172    5171    5169    5172
    5175    5173    5174    5174    5173    5176    5175    5173    5176
    5179    5177    5178    5178    5177    5180    5179    5177    5180
    5183    5181    5182    5182    5181    5184    5183    5181    5184
    5187    5185    5186    5186    5185    5188    5187    5185    5188
    5191    5189    5190    5190    5189    5192    5191    5189    5192
    5195    5193    5194    5194    5193    5196    5195    5193    5196
    5199    5197    5198    5198    5197    5200    5199    5197    5200
    5203    5201    5202    5202    5201    5204    5203    5201    5204
    5207    5205    5206    5206    5205    5208    5207    5205    5208
    5211    5209    5210    5210    5209    5212    5211    5209    5212
    5215    5213    5214    5214    5213    5216    5215    5213    5216
    5219    5217    5218    5218    5217    5220    5219    5217    5220
    5223    5221    5222    5222    5221    5224    5223    5221    5224
    5227    5225    5226    5226    5225    5228    5227    5225    5228
    5231    5229    5230    5230    5229    5232    5231    5229    5232
    5235    5233    5234    5234    5233    5236    5235    5233    5236
    5239    5237    5238    5238    5237    5240    5239    5237    5240
    5243    5241    5242    5242    5241    5244    5243    5241    5244
    5247    5245    5246    5246    5245    5248    5247    5245    5248
    5251    5249    5250    5250    5249    5252    5251    5249    5252
    5255    5253    5254    5254    5253    5256    5255    5253    5256
    5259    5257    5258    5258    5257    5260    5259    5257    5260
    5263    5261    5262    5262    5261    5264    5263    5261    5264
    5267    5265    5266    5266    5265    5268    5267    5265    5268
    5271    5269    5270    5270    5269    5272    5271    5269    5272
    5275    5273    5274    5274    5273    5276    5275    5273    5276
    5279    5277    5278    5278    5277    5280    5279    5277    5280
    5283    5281    5282    5282    5281    5284    5283    5281    5284
    5287    5285    5286    5286    5285    5288    5287    5285    5288
    5291    5289    5290    5290    5289    5292    5291    5289    5292
    5295    5293    5294    5294    5293    5296    5295    5293    5296
    5299    5297    5298    5298    5297    5300    5299    5297    5300
    5303    5301    5302    5302    5301    5304    5303    5301    5304
    5307    5305    5306    5306    5305    5308    5307    5305    5308
    5311    5309    5310    5310    5309    5312    5311    5309    5312
    5315    5313    5314    5314    5313    5316    5315    5313    5316
    5319    5317    5318    5318    5317    5320    5319    5317    5320
    5323    5321    5322    5322    5321    5324    5323    5321    5324
    5327    5325    5326    5326    5325    5328    5327    5325    5328
    5331    5329    5330    5330    5329    5332    5331    5329    5332
    5335    5333    5334    5334    5333    5336    5335    5333    5336
    5339    5337    5338    5338    5337    5340    5339    5337    5340
    5343    5341    5342    5342    5341    5344    5343    5341    5344
    5347    5345    5346    5346    5345    5348    5347    5345    5348
    5351    5349    5350    5350    5349    5352    5351    5349    5352
    5355    5353    5354    5354    5353    5356    5355    5353    5356
    5359    5357    5358    5358    5357    5360    5359    5357    5360
    5363    5361    5362    5362    5361    5364    5363    5361    5364
    5367    5365    5366    5366    5365    5368    5367    5365    5368
    5371    5369    5370    5370    5369    5372    5371    5369    5372
    5375    5373    5374    5374    5373    5376    5375    5373    5376
    5379    5377    5378    5378    5377    5380    5379    5377    5380
    5383    5381    5382    5382    5381    5384    5383    5381    5384
    5387    5385    5386    5386    5385    5388    5387    5385    5388
    5391    5389    5390    5390    5389    5392    5391    5389    5392
    5395    5393    5394    5394    5393    5396    5395    5393    5396
    5399    5397    5398    5398    5397    5400    5399    5397    5400
    5403    5401    5402    5402    5401    5404    5403    5401    5404
    5407    5405    5406    5406    5405    5408    5407    5405    5408
    5411    5409    5410    5410    5409    5412    5411    5409    5412
    5415    5413    5414    5414    5413    5416    5415    5413    5416
    5419    5417    5418    5418    5417    5420    5419    5417    5420
    5423    5421    5422    5422    5421    5424    5423    5421    5424
    5427    5425    5426    5426    5425    5428    5427    5425    5428
    5431    5429    5430    5430    5429    5432    5431    5429    5432
    5435    5433    5434    5434    5433    5436    5435    5433    5436
    5439    5437    5438    5438    5437    5440    5439    5437    5440
    5443    5441    5442    5442    5441    5444    5443    5441    5444
    5447    5445    5446    5446    5445    5448    5447    5445    5448
    5451    5449    5450    5450    5449    5452    5451    5449    5452
    5455    5453    5454    5454    5453    5456    5455    5453    5456
    5459    5457    5458    5458    5457    5460    5459    5457    5460
    5463    5461    5462    5462    5461    5464    5463    5461    5464
    5467    5465    5466    5466    5465    5468    5467    5465    5468
    5471    5469    5470    5470    5469    5472    5471    5469    5472
    5475    5473    5474    5474    5473    5476    5475    5473    5476
    5479    5477    5478    5478    5477    5480    5479    5477    5480
    5483    5481    5482    5482    5481    5484    5483    5481    5484
    5487    5485    5486    5486    5485    5488    5487    5485    5488
    5491    5489    5490    5490    5489    5492    5491    5489    5492
    5495    5493    5494    5494    5493    5496    5495    5493    5496
    5499    5497    5498    5498    5497    5500    5499    5497    5500
    5503    5501    5502    5502    5501    5504    5503    5501    5504
    5507    5505    5506    5506    5505    5508    5507    5505    5508
    5511    5509    5510    5510    5509    5512    5511    5509    5512
    5515    5513    5514    5514    5513    5516    5515    5513    5516
    5519    5517    5518    5518    5517    5520    5519    5517    5520
    5523    5521    5522    5522    5521    5524    5523    5521    5524
    5527    5525    5526    5526    5525    5528    5527    5525    5528
    5531    5529    5530    5530    5529    5532    5531    5529    5532
    5535    5533    5534    5534    5533    5536    5535    5533    5536
    5539    5537    5538    5538    5537    5540    5539    5537    5540
    5543    5541    5542    5542    5541    5544    5543    5541    5544
    5547    5545    5546    5546    5545    5548    5547    5545    5548
    5551    5549    5550    5550    5549    5552    5551    5549    5552
    5555    5553    5554    5554    5553    5556    5555    5553    5556
    5559    5557    5558    5558    5557    5560    5559    5557    5560
    5563    5561    5562    5562    5561    5564    5563    5561    5564
    5567    5565    5566    5566    5565    5568    5567    5565    5568
    5571    5569    5570    5570    5569    5572    5571    5569    5572
    5575    5573    5574    5574    5573    5576    5575    5573    5576
    5579    5577    5578    5578    5577    5580    5579    5577    5580
    5583    5581    5582    5582    5581    5584    5583    5581    5584
    5587    5585    5586    5586    5585    5588    5587    5585    5588
    5591    5589    5590    5590    5589    5592    5591    5589    5592
    5595    5593    5594    5594    5593    5596    5595    5593    5596
    5599    5597    5598    5598    5597    5600    5599    5597    5600
    5603    5601    5602    5602    5601    5604    5603    5601    5604
    5607    5605    5606    5606    5605    5608    5607    5605    5608
    5611    5609    5610    5610    5609    5612    5611    5609    5612
    5615    5613    5614    5614    5613    5616    5615    5613    5616
    5619    5617    5618    5618    5617    5620    5619    5617    5620
    5623    5621    5622    5622    5621    5624    5623    5621    5624
    5627    5625    5626    5626    5625    5628    5627    5625    5628
    5631    5629    5630    5630    5629    5632    5631    5629    5632
    5635    5633    5634    5634    5633    5636    5635    5633    5636
    5639    5637    5638    5638    5637    5640    5639    5637    5640
    5643    5641    5642    5642    5641    5644    5643    5641    5644
    5647    5645    5646    5646    5645    5648    5647    5645    5648
    5651    5649    5650    5650    5649    5652    5651    5649    5652
    5655    5653    5654    5654    5653    5656    5655    5653    5656
    5659    5657    5658    5658    5657    5660    5659    5657    5660
    5663    5661    5662    5662    5661    5664    5663    5661    5664
    5667    5665    5666    5666    5665    5668    5667    5665    5668
    5671    5669    5670    5670    5669    5672    5671    5669    5672
    5675    5673    5674    5674    5673    5676    5675    5673    5676
    5679    5677    5678    5678    5677    5680    5679    5677    5680
    5683    5681    5682    5682    5681    5684    5683    5681    5684
    5687    5685    5686    5686    5685    5688    5687    5685    5688
    5691    5689    5690    5690    5689    5692    5691    5689    5692
    5695    5693    5694    5694    5693    5696    5695    5693    5696
    5699    5697    5698    5698    5697    5700    5699    5697    5700
    5703    5701    5702    5702    5701    5704    5703    5701    5704
    5707    5705    5706    5706    5705    5708    5707    5705    5708
    5711    5709    5710    5710    5709    5712    5711    5709    5712
    5715    5713    5714    5714    5713    5716    5715    5713    5716
    5719    5717    5718    5718    5717    5720    5719    5717    5720
    5723    5721    5722    5722    5721    5724    5723    5721    5724
    5727    5725    5726    5726    5725    5728    5727    5725    5728
    5731    5729    5730    5730    5729    5732    5731    5729    5732
    5735    5733    5734    5734    5733    5736    5735    5733    5736
    5739    5737    5738    5738    5737    5740    5739    5737    5740
    5743    5741    5742    5742    5741    5744    5743    5741    5744
    5747    5745    5746    5746    5745    5748    5747    5745    5748
    5751    5749    5750    5750    5749    5752    5751    5749    5752
    5755    5753    5754    5754    5753    5756    5755    5753    5756
    5759    5757    5758    5758    5757    5760    5759    5757    5760
    5763    5761    5762    5762    5761    5764    5763    5761    5764
    5767    5765    5766    5766    5765    5768    5767    5765    5768
    5771    5769    5770    5770    5769    5772    5771    5769    5772
    5775    5773    5774    5774    5773    5776    5775    5773    5776
    5779    5777    5778    5778    5777    5780    5779    5777    5780
    5783    5781    5782    5782    5781    5784    5783    5781    5784
    5787    5785    5786    5786    5785    5788    5787    5785    5788
    5791    5789    5790    5790    5789    5792    5791    5789    5792
    5795    5793    5794    5794    5793    5796    5795    5793    5796
    5799    5797    5798    5798    5797    5800    5799    5797    5800
    5803    5801    5802    5802    5801    5804    5803    5801    5804
    5807    5805    5806    5806    5805    5808    5807    5805    5808
    5811    5809    5810    5810    5809    5812    5811    5809    5812
    5815    5813    5814    5814    5813    5816    5815    5813    5816
    5819    5817    5818    5818    5817    5820    5819    5817    5820
    5823    5821    5822    5822    5821    5824    5823    5821    5824
    5827    5825    5826    5826    5825    5828    5827    5825    5828
    5831    5829    5830    5830    5829    5832    5831    5829    5832
    5835    5833    5834    5834    5833    5836    5835    5833    5836
    5839    5837    5838    5838    5837    5840    5839    5837    5840
    5843    5841    5842    5842    5841    5844    5843    5841    5844
    5847    5845    5846    5846    5845    5848    5847    5845    5848
    5851    5849    5850    5850    5849    5852    5851    5849    5852
    5855    5853    5854    5854    5853    5856    5855    5853    5856
    5859    5857    5858    5858    5857    5860    5859    5857    5860
    5863    5861    5862    5862    5861    5864    5863    5861    5864
    5867    5865    5866    5866    5865    5868    5867    5865    5868
    5871    5869    5870    5870    5869    5872    5871    5869    5872
    5875    5873    5874    5874    5873    5876    5875    5873    5876
    5879    5877    5878    5878    5877    5880    5879    5877    5880
    5883    5881    5882    5882    5881    5884    5883    5881    5884
    5887    5885    5886    5886    5885    5888    5887    5885    5888
    5891    5889    5890    5890    5889    5892    5891    5889    5892
    5895    5893    5894    5894    5893    5896    5895    5893    5896
    5899    5897    5898    5898    5897    5900    5899    5897    5900
    5903    5901    5902    5902    5901    5904    5903    5901    5904
    5907    5905    5906    5906    5905    5908    5907    5905    5908
    5911    5909    5910    5910    5909    5912    5911    5909    5912
    5915    5913    5914    5914    5913    5916    5915    5913    5916
    5919    5917    5918    5918    5917    5920    5919    5917    5920
    5923    5921    5922    5922    5921    5924    5923    5921    5924
    5927    5925    5926    5926    5925    5928    5927    5925    5928
    5931    5929    5930    5930    5929    5932    5931    5929    5932
    5935    5933    5934    5934    5933    5936    5935    5933    5936
    5939    5937    5938    5938    5937    5940    5939    5937    5940
    5943    5941    5942    5942    5941    5944    5943    5941    5944
    5947    5945    5946    5946    5945    5948    5947    5945    5948
    5951    5949    5950    5950    5949    5952    5951    5949    5952
    5955    5953    5954    5954    5953    5956    5955    5953    5956
    5959    5957    5958    5958    5957    5960    5959    5957    5960
    5963    5961    5962    5962    5961    5964    5963    5961    5964
    5967    5965    5966    5966    5965    5968    5967    5965    5968
    5971    5969    5970    5970    5969    5972    5971    5969    5972
    5975    5973    5974    5974    5973    5976    5975    5973    5976
    5979    5977    5978    5978    5977    5980    5979    5977    5980
    5983    5981    5982    5982    5981    5984    5983    5981    5984
    5987    5985    5986    5986    5985    5988    5987    5985    5988
    5991    5989    5990    5990    5989    5992    5991    5989    5992
    5995    5993    5994    5994    5993    5996    5995    5993    5996
    5999    5997    5998    5998    5997    6000    5999    5997    6000
    6003    6001    6002    6002    6001    6004    6003    6001    6004
    6007    6005    6006    6006    6005    6008    6007    6005    6008
    6011    6009    6010    6010    6009    6012    6011    6009    6012
    6015    6013    6014    6014    6013    6016    6015    6013    6016
    6019    6017    6018    6018    6017    6020    6019    6017    6020
    6023    6021    6022    6022    6021    6024    6023    6021    6024
    6027    6025    6026    6026    6025    6028    6027    6025    6028
    6031    6029    6030    6030    6029    6032    6031    6029    6032
    6035    6033    6034    6034    6033    6036    6035    6033    6036
    6039    6037    6038    6038    6037    6040    6039    6037    6040
    6043    6041    6042    6042    6041    6044    6043    6041    6044
    6047    6045    6046    6046    6045    6048    6047    6045    6048
    6051    6049    6050    6050    6049    6052    6051    6049    6052
    6055    6053    6054    6054    6053    6056    6055    6053    6056
    6059    6057    6058    6058    6057    6060    6059    6057    6060
    6063    6061    6062    6062    6061    6064    6063    6061    6064
    6067    6065    6066    6066    6065    6068    6067    6065    6068
    6071    6069    6070    6070    6069    6072    6071    6069    6072
    6075    6073    6074    6074    6073    6076    6075    6073    6076
    6079    6077    6078    6078    6077    6080    6079    6077    6080
    6083    6081    6082    6082    6081    6084    6083    6081    6084
    6087    6085    6086    6086    6085    6088    6087    6085    6088
    6091    6089    6090    6090    6089    6092    6091    6089    6092
    6095    6093    6094    6094    6093    6096    6095    6093    6096
    6099    6097    6098    6098    6097    6100    6099    6097    6100
    6103    6101    6102    6102    6101    6104    6103    6101    6104
    6107    6105    6106    6106    6105    6108    6107    6105    6108
    6111    6109    6110    6110    6109    6112    6111    6109    6112
    6115    6113    6114    6114    6113    6116    6115    6113    6116
    6119    6117    6118    6118    6117    6120    6119    6117    6120
    6123    6121    6122    6122    6121    6124    6123    6121    6124
    6127    6125    6126    6126    6125    6128    6127    6125    6128
    6131    6129    6130    6130    6129    6132    6131    6129    6132
    6135    6133    6134    6134    6133    6136    6135    6133    6136
    6139    6137    6138    6138    6137    6140    6139    6137    6140
    6143    6141    6142    6142    6141    6144    6143    6141    6144
    6147    6145    6146    6146    6145    6148    6147    6145    6148
    6151    6149    6150    6150    6149    6152    6151    6149    6152
    6155    6153    6154    6154    6153    6156    6155    6153    6156
    6159    6157    6158    6158    6157    6160    6159    6157    6160
    6163    6161    6162    6162    6161    6164    6163    6161    6164
    6167    6165    6166    6166    6165    6168    6167    6165    6168
    6171    6169    6170    6170    6169    6172    6171    6169    6172
    6175    6173    6174    6174    6173    6176    6175    6173    6176
    6179    6177    6178    6178    6177    6180    6179    6177    6180
    6183    6181    6182    6182    6181    6184    6183    6181    6184
    6187    6185    6186    6186    6185    6188    6187    6185    6188
    6191    6189    6190    6190    6189    6192    6191    6189    6192
    6195    6193    6194    6194    6193    6196    6195    6193    6196
    6199    6197    6198    6198    6197    6200    6199    6197    6200
    6203    6201    6202    6202    6201    6204    6203    6201    6204
    6207    6205    6206    6206    6205    6208    6207    6205    6208
    6211    6209    6210    6210    6209    6212    6211    6209    6212
    6215    6213    6214    6214    6213    6216    6215    6213    6216
    6219    6217    6218    6218    6217    6220    6219    6217    6220
    6223    6221    6222    6222    6221    6224    6223    6221    6224
    6227    6225    6226    6226    6225    6228    6227    6225    6228
    6231    6229    6230    6230    6229    6232    6231    6229    6232
    6235    6233    6234    6234    6233    6236    6235    6233    6236
    6239    6237    6238    6238    6237    6240    6239    6237    6240
    6243    6241    6242    6242    6241    6244    6243    6241    6244
    6247    6245    6246    6246    6245    6248    6247    6245    6248
    6251    6249    6250    6250    6249    6252    6251    6249    6252
    6255    6253    6254    6254    6253    6256    6255    6253    6256
    6259    6257    6258    6258    6257    6260    6259    6257    6260
    6263    6261    6262    6262    6261    6264    6263    6261    6264
    6267    6265    6266    6266    6265    6268    6267    6265    6268
    6271    6269    6270    6270    6269    6272    6271    6269    6272
    6275    6273    6274    6274    6273    6276    6275    6273    6276
    6279    6277    6278    6278    6277    6280    6279    6277    6280
    6283    6281    6282    6282    6281    6284    6283    6281    6284
    6287    6285    6286    6286    6285    6288    6287    6285    6288
    6291    6289    6290    6290    6289    6292    6291    6289    6292
    6295    6293    6294    6294    6293    6296    6295    6293    6296
    6299    6297    6298    6298    6297    6300    6299    6297    6300
    6303    6301    6302    6302    6301    6304    6303    6301    6304
    6307    6305    6306    6306    6305    6308    6307    6305    6308
    6311    6309    6310    6310    6309    6312    6311    6309    6312
    6315    6313    6314    6314    6313    6316    6315    6313    6316
    6319    6317    6318    6318    6317    6320    6319    6317    6320
    6323    6321    6322    6322    6321    6324    6323    6321    6324
    6327    6325    6326    6326    6325    6328    6327    6325    6328
    6331    6329    6330    6330    6329    6332    6331    6329    6332
    6335    6333    6334    6334    6333    6336    6335    6333    6336
    6339    6337    6338    6338    6337    6340    6339    6337    6340
    6343    6341    6342    6342    6341    6344    6343    6341    6344
    6347    6345    6346    6346    6345    6348    6347    6345    6348
    6351    6349    6350    6350    6349    6352    6351    6349    6352
    6355    6353    6354    6354    6353    6356    6355    6353    6356
    6359    6357    6358    6358    6357    6360    6359    6357    6360
    6363    6361    6362    6362    6361    6364    6363    6361    6364
    6367    6365    6366    6366    6365    6368    6367    6365    6368
    6371    6369    6370    6370    6369    6372    6371    6369    6372
    6375    6373    6374    6374    6373    6376    6375    6373    6376
    6379    6377    6378    6378    6377    6380    6379    6377    6380
    6383    6381    6382    6382    6381    6384    6383    6381    6384
    6387    6385    6386    6386    6385    6388    6387    6385    6388
    6391    6389    6390    6390    6389    6392    6391    6389    6392
    6395    6393    6394    6394    6393    6396    6395    6393    6396
    6399    6397    6398    6398    6397    6400    6399    6397    6400
    6403    6401    6402    6402    6401    6404    6403    6401    6404
    6407    6405    6406    6406    6405    6408    6407    6405    6408
    6411    6409    6410    6410    6409    6412    6411    6409    6412
    6415    6413    6414    6414    6413    6416    6415    6413    6416
    6419    6417    6418    6418    6417    6420    6419    6417    6420
    6423    6421    6422    6422    6421    6424    6423    6421    6424
    6427    6425    6426    6426    6425    6428    6427    6425    6428
    6431    6429    6430    6430    6429    6432    6431    6429    6432
    6435    6433    6434    6434    6433    6436    6435    6433    6436
    6439    6437    6438    6438    6437    6440    6439    6437    6440
    6443    6441    6442    6442    6441    6444    6443    6441    6444
    6447    6445    6446    6446    6445    6448    6447    6445    6448
    6451    6449    6450    6450    6449    6452    6451    6449    6452
    6455    6453    6454    6454    6453    6456    6455    6453    6456
    6459    6457    6458    6458    6457    6460    6459    6457    6460
    6463    6461    6462    6462    6461    6464    6463    6461    6464
    6467    6465    6466    6466    6465    6468    6467    6465    6468
    6471    6469    6470    6470    6469    6472    6471    6469    6472
    6475    6473    6474    6474    6473    6476    6475    6473    6476
    6479    6477    6478    6478    6477    6480    6479    6477    6480
    6483    6481    6482    6482    6481    6484    6483    6481    6484
    6487    6485    6486    6486    6485    6488    6487    6485    6488
    6491    6489    6490    6490    6489    6492    6491    6489    6492
    6495    6493    6494    6494    6493    6496    6495    6493    6496
    6499    6497    6498    6498    6497    6500    6499    6497    6500
    6503    6501    6502    6502    6501    6504    6503    6501    6504
    6507    6505    6506    6506    6505    6508    6507    6505    6508
    6511    6509    6510    6510    6509    6512    6511    6509    6512
    6515    6513    6514    6514    6513    6516    6515    6513    6516
    6519    6517    6518    6518    6517    6520    6519    6517    6520
    6523    6521    6522    6522    6521    6524    6523    6521    6524
    6527    6525    6526    6526    6525    6528    6527    6525    6528
    6531    6529    6530    6530    6529    6532    6531    6529    6532
    6535    6533    6534    6534    6533    6536    6535    6533    6536
    6539    6537    6538    6538    6537    6540    6539    6537    6540
    6543    6541    6542    6542    6541    6544    6543    6541    6544
    6547    6545    6546    6546    6545    6548    6547    6545    6548
    6551    6549    6550    6550    6549    6552    6551    6549    6552
    6555    6553    6554    6554    6553    6556    6555    6553    6556
    6559    6557    6558    6558    6557    6560    6559    6557    6560
    6563    6561    6562    6562    6561    6564    6563    6561    6564
    6567    6565    6566    6566    6565    6568    6567    6565    6568
    6571    6569    6570    6570    6569    6572    6571    6569    6572
    6575    6573    6574    6574    6573    6576    6575    6573    6576
    6579    6577    6578    6578    6577    6580    6579    6577    6580
    6583    6581    6582    6582    6581    6584    6583    6581    6584
    6587    6585    6586    6586    6585    6588    6587    6585    6588
    6591    6589    6590    6590    6589    6592    6591    6589    6592
    6595    6593    6594    6594    6593    6596    6595    6593    6596
    6599    6597    6598    6598    6597    6600    6599    6597    6600
    6603    6601    6602    6602    6601    6604    6603    6601    6604
    6607    6605    6606    6606    6605    6608    6607    6605    6608
    6611    6609    6610    6610    6609    6612    6611    6609    6612
    6615    6613    6614    6614    6613    6616    6615    6613    6616
    6619    6617    6618    6618    6617    6620    6619    6617    6620
    6623    6621    6622    6622    6621    6624    6623    6621    6624
    6627    6625    6626    6626    6625    6628    6627    6625    6628
    6631    6629    6630    6630    6629    6632    6631    6629    6632
    6635    6633    6634    6634    6633    6636    6635    6633    6636
    6639    6637    6638    6638    6637    6640    6639    6637    6640
    6643    6641    6642    6642    6641    6644    6643    6641    6644
    6647    6645    6646    6646    6645    6648    6647    6645    6648
    6651    6649    6650    6650    6649    6652    6651    6649    6652
    6655    6653    6654    6654    6653    6656    6655    6653    6656
    6659    6657    6658    6658    6657    6660    6659    6657    6660
    6663    6661    6662    6662    6661    6664    6663    6661    6664
    6667    6665    6666    6666    6665    6668    6667    6665    6668
    6671    6669    6670    6670    6669    6672    6671    6669    6672
    6675    6673    6674    6674    6673    6676    6675    6673    6676
    6679    6677    6678    6678    6677    6680    6679    6677    6680
    6683    6681    6682    6682    6681    6684    6683    6681    6684
    6687    6685    6686    6686    6685    6688    6687    6685    6688
    6691    6689    6690    6690    6689    6692    6691    6689    6692
    6695    6693    6694    6694    6693    6696    6695    6693    6696
    6699    6697    6698    6698    6697    6700    6699    6697    6700
    6703    6701    6702    6702    6701    6704    6703    6701    6704
    6707    6705    6706    6706    6705    6708    6707    6705    6708
    6711    6709    6710    6710    6709    6712    6711    6709    6712
    6715    6713    6714    6714    6713    6716    6715    6713    6716
    6719    6717    6718    6718    6717    6720    6719    6717    6720
    6723    6721    6722    6722    6721    6724    6723    6721    6724
    6727    6725    6726    6726    6725    6728    6727    6725    6728
    6731    6729    6730    6730    6729    6732    6731    6729    6732
    6735    6733    6734    6734    6733    6736    6735    6733    6736
    6739    6737    6738    6738    6737    6740    6739    6737    6740
    6743    6741    6742    6742    6741    6744    6743    6741    6744
    6747    6745    6746    6746    6745    6748    6747    6745    6748
    6751    6749    6750    6750    6749    6752    6751    6749    6752
    6755    6753    6754    6754    6753    6756    6755    6753    6756
    6759    6757    6758    6758    6757    6760    6759    6757    6760
    6763    6761    6762    6762    6761    6764    6763    6761    6764
    6767    6765    6766    6766    6765    6768    6767    6765    6768
    6771    6769    6770    6770    6769    6772    6771    6769    6772
    6775    6773    6774    6774    6773    6776    6775    6773    6776
    6779    6777    6778    6778    6777    6780    6779    6777    6780
    6783    6781    6782    6782    6781    6784    6783    6781    6784
    6787    6785    6786    6786    6785    6788    6787    6785    6788
    6791    6789    6790    6790    6789    6792    6791    6789    6792
    6795    6793    6794    6794    6793    6796    6795    6793    6796
    6799    6797    6798    6798    6797    6800    6799    6797    6800
    6803    6801    6802    6802    6801    6804    6803    6801    6804
    6807    6805    6806    6806    6805    6808    6807    6805    6808
    6811    6809    6810    6810    6809    6812    6811    6809    6812
    6815    6813    6814    6814    6813    6816    6815    6813    6816
    6819    6817    6818    6818    6817    6820    6819    6817    6820
    6823    6821    6822    6822    6821    6824    6823    6821    6824
    6827    6825    6826    6826    6825    6828    6827    6825    6828
    6831    6829    6830    6830    6829    6832    6831    6829    6832
    6835    6833    6834    6834    6833    6836    6835    6833    6836
    6839    6837    6838    6838    6837    6840    6839    6837    6840
    6843    6841    6842    6842    6841    6844    6843    6841    6844
    6847    6845    6846    6846    6845    6848    6847    6845    6848
    6851    6849    6850    6850    6849    6852    6851    6849    6852
    6855    6853    6854    6854    6853    6856    6855    6853    6856
    6859    6857    6858    6858    6857    6860    6859    6857    6860
    6863    6861    6862    6862    6861    6864    6863    6861    6864
    6867    6865    6866    6866    6865    6868    6867    6865    6868
    6871    6869    6870    6870    6869    6872    6871    6869    6872
    6875    6873    6874    6874    6873    6876    6875    6873    6876
    6879    6877    6878    6878    6877    6880    6879    6877    6880
    6883    6881    6882    6882    6881    6884    6883    6881    6884
    6887    6885    6886    6886    6885    6888    6887    6885    6888
    6891    6889    6890    6890    6889    6892    6891    6889    6892
    6895    6893    6894    6894    6893    6896    6895    6893    6896
    6899    6897    6898    6898    6897    6900    6899    6897    6900
    6903    6901    6902    6902    6901    6904    6903    6901    6904
    6907    6905    6906    6906    6905    6908    6907    6905    6908
    6911    6909    6910    6910    6909    6912    6911    6909    6912
    6915    6913    6914    6914    6913    6916    6915    6913    6916
    6919    6917    6918    6918    6917    6920    6919    6917    6920
    6923    6921    6922    6922    6921    6924    6923    6921    6924
    6927    6925    6926    6926    6925    6928    6927    6925    6928
    6931    6929    6930    6930    6929    6932    6931    6929    6932
    6935    6933    6934    6934    6933    6936    6935    6933    6936
    6939    6937    6938    6938    6937    6940    6939    6937    6940
    6943    6941    6942    6942    6941    6944    6943    6941    6944
    6947    6945    6946    6946    6945    6948    6947    6945    6948
    6951    6949    6950    6950    6949    6952    6951    6949    6952
    6955    6953    6954    6954    6953    6956    6955    6953    6956
    6959    6957    6958    6958    6957    6960    6959    6957    6960
    6963    6961    6962    6962    6961    6964    6963    6961    6964
    6967    6965    6966    6966    6965    6968    6967    6965    6968
    6971    6969    6970    6970    6969    6972    6971    6969    6972
    6975    6973    6974    6974    6973    6976    6975    6973    6976
    6979    6977    6978    6978    6977    6980    6979    6977    6980
    6983    6981    6982    6982    6981    6984    6983    6981    6984
    6987    6985    6986    6986    6985    6988    6987    6985    6988
    6991    6989    6990    6990    6989    6992    6991    6989    6992
    6995    6993    6994    6994    6993    6996    6995    6993    6996
    6999    6997    6998    6998    6997    7000    6999    6997    7000
    7003    7001    7002    7002    7001    7004    7003    7001    7004
    7007    7005    7006    7006    7005    7008    7007    7005    7008
    7011    7009    7010    7010    7009    7012    7011    7009    7012
    7015    7013    7014    7014    7013    7016    7015    7013    7016
    7019    7017    7018    7018    7017    7020    7019    7017    7020
    7023    7021    7022    7022    7021    7024    7023    7021    7024
    7027    7025    7026    7026    7025    7028    7027    7025    7028
    7031    7029    7030    7030    7029    7032    7031    7029    7032
    7035    7033    7034    7034    7033    7036    7035    7033    7036
    7039    7037    7038    7038    7037    7040    7039    7037    7040
    7043    7041    7042    7042    7041    7044    7043    7041    7044
    7047    7045    7046    7046    7045    7048    7047    7045    7048
    7051    7049    7050    7050    7049    7052    7051    7049    7052
    7055    7053    7054    7054    7053    7056    7055    7053    7056
    7059    7057    7058    7058    7057    7060    7059    7057    7060
    7063    7061    7062    7062    7061    7064    7063    7061    7064
    7067    7065    7066    7066    7065    7068    7067    7065    7068
    7071    7069    7070    7070    7069    7072    7071    7069    7072
    7075    7073    7074    7074    7073    7076    7075    7073    7076
    7079    7077    7078    7078    7077    7080    7079    7077    7080
    7083    7081    7082    7082    7081    7084    7083    7081    7084
    7087    7085    7086    7086    7085    7088    7087    7085    7088
    7091    7089    7090    7090    7089    7092    7091    7089    7092
    7095    7093    7094    7094    7093    7096    7095    7093    7096
    7099    7097    7098    7098    7097    7100    7099    7097    7100
    7103    7101    7102    7102    7101    7104    7103    7101    7104
    7107    7105    7106    7106    7105    7108    7107    7105    7108
    7111    7109    7110    7110    7109    7112    7111    7109    7112
    7115    7113    7114    7114    7113    7116    7115    7113    7116
    7119    7117    7118    7118    7117    7120    7119    7117    7120
    7123    7121    7122    7122    7121    7124    7123    7121    7124
    7127    7125    7126    7126    7125    7128    7127    7125    7128
    7131    7129    7130    7130    7129    7132    7131    7129    7132
    7135    7133    7134    7134    7133    7136    7135    7133    7136
    7139    7137    7138    7138    7137    7140    7139    7137    7140
    7143    7141    7142    7142    7141    7144    7143    7141    7144
    7147    7145    7146    7146    7145    7148    7147    7145    7148
    7151    7149    7150    7150    7149    7152    7151    7149    7152
    7155    7153    7154    7154    7153    7156    7155    7153    7156
    7159    7157    7158    7158    7157    7160    7159    7157    7160
    7163    7161    7162    7162    7161    7164    7163    7161    7164
    7167    7165    7166    7166    7165    7168    7167    7165    7168
    7171    7169    7170    7170    7169    7172    7171    7169    7172
    7175    7173    7174    7174    7173    7176    7175    7173    7176
    7179    7177    7178    7178    7177    7180    7179    7177    7180
    7183    7181    7182    7182    7181    7184    7183    7181    7184
    7187    7185    7186    7186    7185    7188    7187    7185    7188
    7191    7189    7190    7190    7189    7192    7191    7189    7192
    7195    7193    7194    7194    7193    7196    7195    7193    7196
    7199    7197    7198    7198    7197    7200    7199    7197    7200
    7203    7201    7202    7202    7201    7204    7203    7201    7204
    7207    7205    7206    7206    7205    7208    7207    7205    7208
    7211    7209    7210    7210    7209    7212    7211    7209    7212
    7215    7213    7214    7214    7213    7216    7215    7213    7216
    7219    7217    7218    7218    7217    7220    7219    7217    7220
    7223    7221    7222    7222    7221    7224    7223    7221    7224
    7227    7225    7226    7226    7225    7228    7227    7225    7228
    7231    7229    7230    7230    7229    7232    7231    7229    7232
    7235    7233    7234    7234    7233    7236    7235    7233    7236
    7239    7237    7238    7238    7237    7240    7239    7237    7240
    7243    7241    7242    7242    7241    7244    7243    7241    7244
    7247    7245    7246    7246    7245    7248    7247    7245    7248
    7251    7249    7250    7250    7249    7252    7251    7249    7252
    7255    7253    7254    7254    7253    7256    7255    7253    7256
    7259    7257    7258    7258    7257    7260    7259    7257    7260
    7263    7261    7262    7262    7261    7264    7263    7261    7264
    7267    7265    7266    7266    7265    7268    7267    7265    7268
    7271    7269    7270    7270    7269    7272    7271    7269    7272
    7275    7273    7274    7274    7273    7276    7275    7273    7276
    7279    7277    7278    7278    7277    7280    7279    7277    7280
    7283    7281    7282    7282    7281    7284    7283    7281    7284
    7287    7285    7286    7286    7285    7288    7287    7285    7288
    7291    7289    7290    7290    7289    7292    7291    7289    7292
    7295    7293    7294    7294    7293    7296    7295    7293    7296
    7299    7297    7298    7298    7297    7300    7299    7297    7300
    7303    7301    7302    7302    7301    7304    7303    7301    7304
    7307    7305    7306    7306    7305    7308    7307    7305    7308
    7311    7309    7310    7310    7309    7312    7311    7309    7312
    7315    7313    7314    7314    7313    7316    7315    7313    7316
    7319    7317    7318    7318    7317    7320    7319    7317    7320
    7323    7321    7322    7322    7321    7324    7323    7321    7324
    7327    7325    7326    7326    7325    7328    7327    7325    7328
    7331    7329    7330    7330    7329    7332    7331    7329    7332
    7335    7333    7334    7334    7333    7336    7335    7333    7336
    7339    7337    7338    7338    7337    7340    7339    7337    7340
    7343    7341    7342    7342    7341    7344    7343    7341    7344
    7347    7345    7346    7346    7345    7348    7347    7345    7348
    7351    7349    7350    7350    7349    7352    7351    7349    7352
    7355    7353    7354    7354    7353    7356    7355    7353    7356
    7359    7357    7358    7358    7357    7360    7359    7357    7360
    7363    7361    7362    7362    7361    7364    7363    7361    7364
    7367    7365    7366    7366    7365    7368    7367    7365    7368
    7371    7369    7370    7370    7369    7372    7371    7369    7372
    7375    7373    7374    7374    7373    7376    7375    7373    7376
    7379    7377    7378    7378    7377    7380    7379    7377    7380
    7383    7381    7382    7382    7381    7384    7383    7381    7384
    7387    7385    7386    7386    7385    7388    7387    7385    7388
    7391    7389    7390    7390    7389    7392    7391    7389    7392
    7395    7393    7394    7394    7393    7396    7395    7393    7396
    7399    7397    7398    7398    7397    7400    7399    7397    7400
    7403    7401    7402    7402    7401    7404    7403    7401    7404
    7407    7405    7406    7406    7405    7408    7407    7405    7408
    7411    7409    7410    7410    7409    7412    7411    7409    7412
    7415    7413    7414    7414    7413    7416    7415    7413    7416
    7419    7417    7418    7418    7417    7420    7419    7417    7420
    7423    7421    7422    7422    7421    7424    7423    7421    7424
    7427    7425    7426    7426    7425    7428    7427    7425    7428
    7431    7429    7430    7430    7429    7432    7431    7429    7432
    7435    7433    7434    7434    7433    7436    7435    7433    7436
    7439    7437    7438    7438    7437    7440    7439    7437    7440
    7443    7441    7442    7442    7441    7444    7443    7441    7444
    7447    7445    7446    7446    7445    7448    7447    7445    7448
    7451    7449    7450    7450    7449    7452    7451    7449    7452
    7455    7453    7454    7454    7453    7456    7455    7453    7456
    7459    7457    7458    7458    7457    7460    7459    7457    7460
    7463    7461    7462    7462    7461    7464    7463    7461    7464
    7467    7465    7466    7466    7465    7468    7467    7465    7468
    7471    7469    7470    7470    7469    7472    7471    7469    7472
    7475    7473    7474    7474    7473    7476    7475    7473    7476
    7479    7477    7478    7478    7477    7480    7479    7477    7480
    7483    7481    7482    7482    7481    7484    7483    7481    7484
    7487    7485    7486    7486    7485    7488    7487    7485    7488
    7491    7489    7490    7490    7489    7492    7491    7489    7492
    7495    7493    7494    7494    7493    7496    7495    7493    7496
    7499    7497    7498    7498    7497    7500    7499    7497    7500
    7503    7501    7502    7502    7501    7504    7503    7501    7504
    7507    7505    7506    7506    7505    7508    7507    7505    7508
    7511    7509    7510    7510    7509    7512    7511    7509    7512
    7515    7513    7514    7514    7513    7516    7515    7513    7516
    7519    7517    7518    7518    7517    7520    7519    7517    7520
    7523    7521    7522    7522    7521    7524    7523    7521    7524
    7527    7525    7526    7526    7525    7528    7527    7525    7528
    7531    7529    7530    7530    7529    7532    7531    7529    7532
    7535    7533    7534    7534    7533    7536    7535    7533    7536
    7539    7537    7538    7538    7537    7540    7539    7537    7540
    7543    7541    7542    7542    7541    7544    7543    7541    7544
    7547    7545    7546    7546    7545    7548    7547    7545    7548
    7551    7549    7550    7550    7549    7552    7551    7549    7552
    7555    7553    7554    7554    7553    7556    7555    7553    7556
    7559    7557    7558    7558    7557    7560    7559    7557    7560
    7563    7561    7562    7562    7561    7564    7563    7561    7564
    7567    7565    7566    7566    7565    7568    7567    7565    7568
    7571    7569    7570    7570    7569    7572    7571    7569    7572
    7575    7573    7574    7574    7573    7576    7575    7573    7576
    7579    7577    7578    7578    7577    7580    7579    7577    7580
    7583    7581    7582    7582    7581    7584    7583    7581    7584
    7587    7585    7586    7586    7585    7588    7587    7585    7588
    7591    7589    7590    7590    7589    7592    7591    7589    7592
    7595    7593    7594    7594    7593    7596    7595    7593    7596
    7599    7597    7598    7598    7597    7600    7599    7597    7600
    7603    7601    7602    7602    7601    7604    7603    7601    7604
    7607    7605    7606    7606    7605    7608    7607    7605    7608
    7611    7609    7610    7610    7609    7612    7611    7609    7612
    7615    7613    7614    7614    7613    7616    7615    7613    7616
    7619    7617    7618    7618    7617    7620    7619    7617    7620
    7623    7621    7622    7622    7621    7624    7623    7621    7624
    7627    7625    7626    7626    7625    7628    7627    7625    7628
    7631    7629    7630    7630    7629    7632    7631    7629    7632
    7635    7633    7634    7634    7633    7636    7635    7633    7636
    7639    7637    7638    7638    7637    7640    7639    7637    7640
    7643    7641    7642    7642    7641    7644    7643    7641    7644
    7647    7645    7646    7646    7645    7648    7647    7645    7648
    7651    7649    7650    7650    7649    7652    7651    7649    7652
    7655    7653    7654    7654    7653    7656    7655    7653    7656
    7659    7657    7658    7658    7657    7660    7659    7657    7660
    7663    7661    7662    7662    7661    7664    7663    7661    7664
    7667    7665    7666    7666    7665    7668    7667    7665    7668
    7671    7669    7670    7670    7669    7672    7671    7669    7672
    7675    7673    7674    7674    7673    7676    7675    7673    7676
    7679    7677    7678    7678    7677    7680    7679    7677    7680
    7683    7681    7682    7682    7681    7684    7683    7681    7684
    7687    7685    7686    7686    7685    7688    7687    7685    7688
    7691    7689    7690    7690    7689    7692    7691    7689    7692
    7695    7693    7694    7694    7693    7696    7695    7693    7696
    7699    7697    7698    7698    7697    7700    7699    7697    7700
    7703    7701    7702    7702    7701    7704    7703    7701    7704
    7707    7705    7706    7706    7705    7708    7707    7705    7708
    7711    7709    7710    7710    7709    7712    7711    7709    7712
    7715    7713    7714    7714    7713    7716    7715    7713    7716
    7719    7717    7718    7718    7717    7720    7719    7717    7720
    7723    7721    7722    7722    7721    7724    7723    7721    7724
    7727    7725    7726    7726    7725    7728    7727    7725    7728
    7731    7729    7730    7730    7729    7732    7731    7729    7732
    7735    7733    7734    7734    7733    7736    7735    7733    7736
    7739    7737    7738    7738    7737    7740    7739    7737    7740
    7743    7741    7742    7742    7741    7744    7743    7741    7744
    7747    7745    7746    7746    7745    7748    7747    7745    7748
    7751    7749    7750    7750    7749    7752    7751    7749    7752
    7755    7753    7754    7754    7753    7756    7755    7753    7756
    7759    7757    7758    7758    7757    7760    7759    7757    7760
    7763    7761    7762    7762    7761    7764    7763    7761    7764
    7767    7765    7766    7766    7765    7768    7767    7765    7768
    7771    7769    7770    7770    7769    7772    7771    7769    7772
    7775    7773    7774    7774    7773    7776    7775    7773    7776
    7779    7777    7778    7778    7777    7780    7779    7777    7780
    7783    7781    7782    7782    7781    7784    7783    7781    7784
    7787    7785    7786    7786    7785    7788    7787    7785    7788
    7791    7789    7790    7790    7789    7792    7791    7789    7792
    7795    7793    7794    7794    7793    7796    7795    7793    7796
    7799    7797    7798    7798    7797    7800    7799    7797    7800
    7803    7801    7802    7802    7801    7804    7803    7801    7804
    7807    7805    7806    7806    7805    7808    7807    7805    7808
    7811    7809    7810    7810    7809    7812    7811    7809    7812
    7815    7813    7814    7814    7813    7816    7815    7813    7816
    7819    7817    7818    7818    7817    7820    7819    7817    7820
    7823    7821    7822    7822    7821    7824    7823    7821    7824
    7827    7825    7826    7826    7825    7828    7827    7825    7828
    7831    7829    7830    7830    7829    7832    7831    7829    7832
    7835    7833    7834    7834    7833    7836    7835    7833    7836
    7839    7837    7838    7838    7837    7840    7839    7837    7840
    7843    7841    7842    7842    7841    7844    7843    7841    7844
    7847    7845    7846    7846    7845    7848    7847    7845    7848
    7851    7849    7850    7850    7849    7852    7851    7849    7852
    7855    7853    7854    7854    7853    7856    7855    7853    7856
    7859    7857    7858    7858    7857    7860    7859    7857    7860
    7863    7861    7862    7862    7861    7864    7863    7861    7864
    7867    7865    7866    7866    7865    7868    7867    7865    7868
    7871    7869    7870    7870    7869    7872    7871    7869    7872
    7875    7873    7874    7874    7873    7876    7875    7873    7876
    7879    7877    7878    7878    7877    7880    7879    7877    7880
    7883    7881    7882    7882    7881    7884    7883    7881    7884
    7887    7885    7886    7886    7885    7888    7887    7885    7888
    7891    7889    7890    7890    7889    7892    7891    7889    7892
    7895    7893    7894    7894    7893    7896    7895    7893    7896
    7899    7897    7898    7898    7897    7900    7899    7897    7900
    7903    7901    7902    7902    7901    7904    7903    7901    7904
    7907    7905    7906    7906    7905    7908    7907    7905    7908
    7911    7909    7910    7910    7909    7912    7911    7909    7912
    7915    7913    7914    7914    7913    7916    7915    7913    7916
    7919    7917    7918    7918    7917    7920    7919    7917    7920
    7923    7921    7922    7922    7921    7924    7923    7921    7924
    7927    7925    7926    7926    7925    7928    7927    7925    7928
    7931    7929    7930    7930    7929    7932    7931    7929    7932
    7935    7933    7934    7934    7933    7936    7935    7933    7936
    7939    7937    7938    7938    7937    7940    7939    7937    7940
    7943    7941    7942    7942    7941    7944    7943    7941    7944
    7947    7945    7946    7946    7945    7948    7947    7945    7948
    7951    7949    7950    7950    7949    7952    7951    7949    7952
    7955    7953    7954    7954    7953    7956    7955    7953    7956
    7959    7957    7958    7958    7957    7960    7959    7957    7960
    7963    7961    7962    7962    7961    7964    7963    7961    7964
    7967    7965    7966    7966    7965    7968    7967    7965    7968
    7971    7969    7970    7970    7969    7972    7971    7969    7972
    7975    7973    7974    7974    7973    7976    7975    7973    7976
    7979    7977    7978    7978    7977    7980    7979    7977    7980
    7983    7981    7982    7982    7981    7984    7983    7981    7984
    7987    7985    7986    7986    7985    7988    7987    7985    7988
    7991    7989    7990    7990    7989    7992    7991    7989    7992
    7995    7993    7994    7994    7993    7996    7995    7993    7996
    7999    7997    7998    7998    7997    8000    7999    7997    8000
    8003    8001    8002    8002    8001    8004    8003    8001    8004
    8007    8005    8006    8006    8005    8008    8007    8005    8008
    8011    8009    8010    8010    8009    8012    8011    8009    8012
    8015    8013    8014    8014    8013    8016    8015    8013    8016
    8019    8017    8018    8018    8017    8020    8019    8017    8020
    8023    8021    8022    8022    8021    8024    8023    8021    8024
    8027    8025    8026    8026    8025    8028    8027    8025    8028
    8031    8029    8030    8030    8029    8032    8031    8029    8032
    8035    8033    8034    8034    8033    8036    8035    8033    8036
    8039    8037    8038    8038    8037    8040    8039    8037    8040
    8043    8041    8042    8042    8041    8044    8043    8041    8044
    8047    8045    8046    8046    8045    8048    8047    8045    8048
    8051    8049    8050    8050    8049    8052    8051    8049    8052
    8055    8053    8054    8054    8053    8056    8055    8053    8056
    8059    8057    8058    8058    8057    8060    8059    8057    8060
    8063    8061    8062    8062    8061    8064    8063    8061    8064
    8067    8065    8066    8066    8065    8068    8067    8065    8068
    8071    8069    8070    8070    8069    8072    8071    8069    8072
    8075    8073    8074    8074    8073    8076    8075    8073    8076
    8079    8077    8078    8078    8077    8080    8079    8077    8080
    8083    8081    8082    8082    8081    8084    8083    8081    8084
    8087    8085    8086    8086    8085    8088    8087    8085    8088
    8091    8089    8090    8090    8089    8092    8091    8089    8092
    8095    8093    8094    8094    8093    8096    8095    8093    8096
    8099    8097    8098    8098    8097    8100    8099    8097    8100
    8103    8101    8102    8102    8101    8104    8103    8101    8104
    8107    8105    8106    8106    8105    8108    8107    8105    8108
    8111    8109    8110    8110    8109    8112    8111    8109    8112
    8115    8113    8114    8114    8113    8116    8115    8113    8116
    8119    8117    8118    8118    8117    8120    8119    8117    8120
    8123    8121    8122    8122    8121    8124    8123    8121    8124
    8127    8125    8126    8126    8125    8128    8127    8125    8128
    8131    8129    8130    8130    8129    8132    8131    8129    8132
    8135    8133    8134    8134    8133    8136    8135    8133    8136
    8139    8137    8138    8138    8137    8140    8139    8137    8140
    8143    8141    8142    8142    8141    8144    8143    8141    8144
    8147    8145    8146    8146    8145    8148    8147    8145    8148
    8151    8149    8150    8150    8149    8152    8151    8149    8152
    8155    8153    8154    8154    8153    8156    8155    8153    8156
    8159    8157    8158    8158    8157    8160    8159    8157    8160
    8163    8161    8162    8162    8161    8164    8163    8161    8164
    8167    8165    8166    8166    8165    8168    8167    8165    8168
    8171    8169    8170    8170    8169    8172    8171    8169    8172
    8175    8173    8174    8174    8173    8176    8175    8173    8176
    8179    8177    8178    8178    8177    8180    8179    8177    8180
    8183    8181    8182    8182    8181    8184    8183    8181    8184
    8187    8185    8186    8186    8185    8188    8187    8185    8188
    8191    8189    8190    8190    8189    8192    8191    8189    8192
    8195    8193    8194    8194    8193    8196    8195    8193    8196
    8199    8197    8198    8198    8197    8200    8199    8197    8200
    8203    8201    8202    8202    8201    8204    8203    8201    8204
    8207    8205    8206    8206    8205    8208    8207    8205    8208
    8211    8209    8210    8210    8209    8212    8211    8209    8212
    8215    8213    8214    8214    8213    8216    8215    8213    8216
    8219    8217    8218    8218    8217    8220    8219    8217    8220
    8223    8221    8222    8222    8221    8224    8223    8221    8224
    8227    8225    8226    8226    8225    8228    8227    8225    8228
    8231    8229    8230    8230    8229    8232    8231    8229    8232
    8235    8233    8234    8234    8233    8236    8235    8233    8236
    8239    8237    8238    8238    8237    8240    8239    8237    8240
    8243    8241    8242    8242    8241    8244    8243    8241    8244
    8247    8245    8246    8246    8245    8248    8247    8245    8248
    8251    8249    8250    8250    8249    8252    8251    8249    8252
    8255    8253    8254    8254    8253    8256    8255    8253    8256
    8259    8257    8258    8258    8257    8260    8259    8257    8260
    8263    8261    8262    8262    8261    8264    8263    8261    8264
    8267    8265    8266    8266    8265    8268    8267    8265    8268
    8271    8269    8270    8270    8269    8272    8271    8269    8272
    8275    8273    8274    8274    8273    8276    8275    8273    8276
    8279    8277    8278    8278    8277    8280    8279    8277    8280
    8283    8281    8282    8282    8281    8284    8283    8281    8284
    8287    8285    8286    8286    8285    8288    8287    8285    8288
    8291    8289    8290    8290    8289    8292    8291    8289    8292
    8295    8293    8294    8294    8293    8296    8295    8293    8296
    8299    8297    8298    8298    8297    8300    8299    8297    8300
    8303    8301    8302    8302    8301    8304    8303    8301    8304
    8307    8305    8306    8306    8305    8308    8307    8305    8308
    8311    8309    8310    8310    8309    8312    8311    8309    8312
    8315    8313    8314    8314    8313    8316    8315    8313    8316
    8319    8317    8318    8318    8317    8320    8319    8317    8320
    8323    8321    8322    8322    8321    8324    8323    8321    8324
    8327    8325    8326    8326    8325    8328    8327    8325    8328
    8331    8329    8330    8330    8329    8332    8331    8329    8332
    8335    8333    8334    8334    8333    8336    8335    8333    8336
    8339    8337    8338    8338    8337    8340    8339    8337    8340
    8343    8341    8342    8342    8341    8344    8343    8341    8344
    8347    8345    8346    8346    8345    8348    8347    8345    8348
    8351    8349    8350    8350    8349    8352    8351    8349    8352
    8355    8353    8354    8354    8353    8356    8355    8353    8356
    8359    8357    8358    8358    8357    8360    8359    8357    8360
    8363    8361    8362    8362    8361    8364    8363    8361    8364
    8367    8365    8366    8366    8365    8368    8367    8365    8368
    8371    8369    8370    8370    8369    8372    8371    8369    8372
    8375    8373    8374    8374    8373    8376    8375    8373    8376
    8379    8377    8378    8378    8377    8380    8379    8377    8380
    8383    8381    8382    8382    8381    8384    8383    8381    8384
    8387    8385    8386    8386    8385    8388    8387    8385    8388
    8391    8389    8390    8390    8389    8392    8391    8389    8392
    8395    8393    8394    8394    8393    8396    8395    8393    8396
    8399    8397    8398    8398    8397    8400    8399    8397    8400
    8403    8401    8402    8402    8401    8404    8403    8401    8404
    8407    8405    8406    8406    8405    8408    8407    8405    8408
    8411    8409    8410    8410    8409    8412    8411    8409    8412
    8415    8413    8414    8414    8413    8416    8415    8413    8416
    8419    8417    8418    8418    8417    8420    8419    8417    8420
    8423    8421    8422    8422    8421    8424    8423    8421    8424
    8427    8425    8426    8426    8425    8428    8427    8425    8428
    8431    8429    8430    8430    8429    8432    8431    8429    8432
    8435    8433    8434    8434    8433    8436    8435    8433    8436
    8439    8437    8438    8438    8437    8440    8439    8437    8440
    8443    8441    8442    8442    8441    8444    8443    8441    8444
    8447    8445    8446    8446    8445    8448    8447    8445    8448
    8451    8449    8450    8450    8449    8452    8451    8449    8452
    8455    8453    8454    8454    8453    8456    8455    8453    8456
    8459    8457    8458    8458    8457    8460    8459    8457    8460
    8463    8461    8462    8462    8461    8464    8463    8461    8464
    8467    8465    8466    8466    8465    8468    8467    8465    8468
    8471    8469    8470    8470    8469    8472    8471    8469    8472
    8475    8473    8474    8474    8473    8476    8475    8473    8476
    8479    8477    8478    8478    8477    8480    8479    8477    8480
    8483    8481    8482    8482    8481    8484    8483    8481    8484
    8487    8485    8486    8486    8485    8488    8487    8485    8488
    8491    8489    8490    8490    8489    8492    8491    8489    8492
    8495    8493    8494    8494    8493    8496    8495    8493    8496
    8499    8497    8498    8498    8497    8500    8499    8497    8500
    8503    8501    8502    8502    8501    8504    8503    8501    8504
    8507    8505    8506    8506    8505    8508    8507    8505    8508
    8511    8509    8510    8510    8509    8512    8511    8509    8512
    8515    8513    8514    8514    8513    8516    8515    8513    8516
    8519    8517    8518    8518    8517    8520    8519    8517    8520
    8523    8521    8522    8522    8521    8524    8523    8521    8524
    8527    8525    8526    8526    8525    8528    8527    8525    8528
    8531    8529    8530    8530    8529    8532    8531    8529    8532
    8535    8533    8534    8534    8533    8536    8535    8533    8536
    8539    8537    8538    8538    8537    8540    8539    8537    8540
    8543    8541    8542    8542    8541    8544    8543    8541    8544
    8547    8545    8546    8546    8545    8548    8547    8545    8548
    8551    8549    8550    8550    8549    8552    8551    8549    8552
    8555    8553    8554    8554    8553    8556    8555    8553    8556
    8559    8557    8558    8558    8557    8560    8559    8557    8560
    8563    8561    8562    8562    8561    8564    8563    8561    8564
    8567    8565    8566    8566    8565    8568    8567    8565    8568
    8571    8569    8570    8570    8569    8572    8571    8569    8572
    8575    8573    8574    8574    8573    8576    8575    8573    8576
    8579    8577    8578    8578    8577    8580    8579    8577    8580
    8583    8581    8582    8582    8581    8584    8583    8581    8584
    8587    8585    8586    8586    8585    8588    8587    8585    8588
    8591    8589    8590    8590    8589    8592    8591    8589    8592
    8595    8593    8594    8594    8593    8596    8595    8593    8596
    8599    8597    8598    8598    8597    8600    8599    8597    8600
    8603    8601    8602    8602    8601    8604    8603    8601    8604
    8607    8605    8606    8606    8605    8608    8607    8605    8608
    8611    8609    8610    8610    8609    8612    8611    8609    8612
    8615    8613    8614    8614    8613    8616    8615    8613    8616
    8619    8617    8618    8618    8617    8620    8619    8617    8620
    8623    8621    8622    8622    8621    8624    8623    8621    8624
    8627    8625    8626    8626    8625    8628    8627    8625    8628
    8631    8629    8630    8630    8629    8632    8631    8629    8632
    8635    8633    8634    8634    8633    8636    8635    8633    8636
    8639    8637    8638    8638    8637    8640    8639    8637    8640
    8643    8641    8642    8642    8641    8644    8643    8641    8644
    8647    8645    8646    8646    8645    8648    8647    8645    8648
    8651    8649    8650    8650    8649    8652    8651    8649    8652
    8655    8653    8654    8654    8653    8656    8655    8653    8656
    8659    8657    8658    8658    8657    8660    8659    8657    8660
    8663    8661    8662    8662    8661    8664    8663    8661    8664
    8667    8665    8666    8666    8665    8668    8667    8665    8668
    8671    8669    8670    8670    8669    8672    8671    8669    8672
    8675    8673    8674    8674    8673    8676    8675    8673    8676
    8679    8677    8678    8678    8677    8680    8679    8677    8680
    8683    8681    8682    8682    8681    8684    8683    8681    8684
    8687    8685    8686    8686    8685    8688    8687    8685    8688
    8691    8689    8690    8690    8689    8692    8691    8689    8692
    8695    8693    8694    8694    8693    8696    8695    8693    8696
    8699    8697    8698    8698    8697    8700    8699    8697    8700
    8703    8701    8702    8702    8701    8704    8703    8701    8704
    8707    8705    8706    8706    8705    8708    8707    8705    8708
    8711    8709    8710    8710    8709    8712    8711    8709    8712
    8715    8713    8714    8714    8713    8716    8715    8713    8716
    8719    8717    8718    8718    8717    8720    8719    8717    8720
    8723    8721    8722    8722    8721    8724    8723    8721    8724
    8727    8725    8726    8726    8725    8728    8727    8725    8728
    8731    8729    8730    8730    8729    8732    8731    8729    8732
    8735    8733    8734    8734    8733    8736    8735    8733    8736
    8739    8737    8738    8738    8737    8740    8739    8737    8740
    8743    8741    8742    8742    8741    8744    8743    8741    8744
    8747    8745    8746    8746    8745    8748    8747    8745    8748
    8751    8749    8750    8750    8749    8752    8751    8749    8752
    8755    8753    8754    8754    8753    8756    8755    8753    8756
    8759    8757    8758    8758    8757    8760    8759    8757    8760
    8763    8761    8762    8762    8761    8764    8763    8761    8764
    8767    8765    8766    8766    8765    8768    8767    8765    8768
    8771    8769    8770    8770    8769    8772    8771    8769    8772
    8775    8773    8774    8774    8773    8776    8775    8773    8776
    8779    8777    8778    8778    8777    8780    8779    8777    8780
    8783    8781    8782    8782    8781    8784    8783    8781    8784
    8787    8785    8786    8786    8785    8788    8787    8785    8788
    8791    8789    8790    8790    8789    8792    8791    8789    8792
    8795    8793    8794    8794    8793    8796    8795    8793    8796
    8799    8797    8798    8798    8797    8800    8799    8797    8800
    8803    8801    8802    8802    8801    8804    8803    8801    8804
    8807    8805    8806    8806    8805    8808    8807    8805    8808
    8811    8809    8810    8810    8809    8812    8811    8809    8812
    8815    8813    8814    8814    8813    8816    8815    8813    8816
    8819    8817    8818    8818    8817    8820    8819    8817    8820
    8823    8821    8822    8822    8821    8824    8823    8821    8824
    8827    8825    8826    8826    8825    8828    8827    8825    8828
    8831    8829    8830    8830    8829    8832    8831    8829    8832
    8835    8833    8834    8834    8833    8836    8835    8833    8836
    8839    8837    8838    8838    8837    8840    8839    8837    8840
    8843    8841    8842    8842    8841    8844    8843    8841    8844
    8847    8845    8846    8846    8845    8848    8847    8845    8848
    8851    8849    8850    8850    8849    8852    8851    8849    8852
    8855    8853    8854    8854    8853    8856    8855    8853    8856
    8859    8857    8858    8858    8857    8860    8859    8857    8860
    8863    8861    8862    8862    8861    8864    8863    8861    8864
    8867    8865    8866    8866    8865    8868    8867    8865    8868
    8871    8869    8870    8870    8869    8872    8871    8869    8872
    8875    8873    8874    8874    8873    8876    8875    8873    8876
    8879    8877    8878    8878    8877    8880    8879    8877    8880
    8883    8881    8882    8882    8881    8884    8883    8881    8884
    8887    8885    8886    8886    8885    8888    8887    8885    8888
    8891    8889    8890    8890    8889    8892    8891    8889    8892
    8895    8893    8894    8894    8893    8896    8895    8893    8896
    8899    8897    8898    8898    8897    8900    8899    8897    8900
    8903    8901    8902    8902    8901    8904    8903    8901    8904
    8907    8905    8906    8906    8905    8908    8907    8905    8908
    8911    8909    8910    8910    8909    8912    8911    8909    8912
    8915    8913    8914    8914    8913    8916    8915    8913    8916
    8919    8917    8918    8918    8917    8920    8919    8917    8920
    8923    8921    8922    8922    8921    8924    8923    8921    8924
    8927    8925    8926    8926    8925    8928    8927    8925    8928
    8931    8929    8930    8930    8929    8932    8931    8929    8932
    8935    8933    8934    8934    8933    8936    8935    8933    8936
    8939    8937    8938    8938    8937    8940    8939    8937    8940
    8943    8941    8942    8942    8941    8944    8943    8941    8944
    8947    8945    8946    8946    8945    8948    8947    8945    8948
    8951    8949    8950    8950    8949    8952    8951    8949    8952
    8955    8953    8954    8954    8953    8956    8955    8953    8956
    8959    8957    8958    8958    8957    8960    8959    8957    8960
    8963    8961    8962    8962    8961    8964    8963    8961    8964
    8967    8965    8966    8966    8965    8968    8967    8965    8968
    8971    8969    8970    8970    8969    8972    8971    8969    8972
    8975    8973    8974    8974    8973    8976    8975    8973    8976
    8979    8977    8978    8978    8977    8980    8979    8977    8980
    8983    8981    8982    8982    8981    8984    8983    8981    8984
    8987    8985    8986    8986    8985    8988    8987    8985    8988
    8991    8989    8990    8990    8989    8992    8991    8989    8992
    8995    8993    8994    8994    8993    8996    8995    8993    8996
    8999    8997    8998    8998    8997    9000    8999    8997    9000
    9003    9001    9002    9002    9001    9004    9003    9001    9004
    9007    9005    9006    9006    9005    9008    9007    9005    9008
    9011    9009    9010    9010    9009    9012    9011    9009    9012
    9015    9013    9014    9014    9013    9016    9015    9013    9016
    9019    9017    9018    9018    9017    9020    9019    9017    9020
    9023    9021    9022    9022    9021    9024    9023    9021    9024
    9027    9025    9026    9026    9025    9028    9027    9025    9028
    9031    9029    9030    9030    9029    9032    9031    9029    9032
    9035    9033    9034    9034    9033    9036    9035    9033    9036
    9039    9037    9038    9038    9037    9040    9039    9037    9040
    9043    9041    9042    9042    9041    9044    9043    9041    9044
    9047    9045    9046    9046    9045    9048    9047    9045    9048
    9051    9049    9050    9050    9049    9052    9051    9049    9052
    9055    9053    9054    9054    9053    9056    9055    9053    9056
    9059    9057    9058    9058    9057    9060    9059    9057    9060
    9063    9061    9062    9062    9061    9064    9063    9061    9064
    9067    9065    9066    9066    9065    9068    9067    9065    9068
    9071    9069    9070    9070    9069    9072    9071    9069    9072
    9075    9073    9074    9074    9073    9076    9075    9073    9076
    9079    9077    9078    9078    9077    9080    9079    9077    9080
    9083    9081    9082    9082    9081    9084    9083    9081    9084
    9087    9085    9086    9086    9085    9088    9087    9085    9088
    9091    9089    9090    9090    9089    9092    9091    9089    9092
    9095    9093    9094    9094    9093    9096    9095    9093    9096
    9099    9097    9098    9098    9097    9100    9099    9097    9100
    9103    9101    9102    9102    9101    9104    9103    9101    9104
    9107    9105    9106    9106    9105    9108    9107    9105    9108
    9111    9109    9110    9110    9109    9112    9111    9109    9112
    9115    9113    9114    9114    9113    9116    9115    9113    9116
    9119    9117    9118    9118    9117    9120    9119    9117    9120
    9123    9121    9122    9122    9121    9124    9123    9121    9124
    9127    9125    9126    9126    9125    9128    9127    9125    9128
    9131    9129    9130    9130    9129    9132    9131    9129    9132
    9135    9133    9134    9134    9133    9136    9135    9133    9136
    9139    9137    9138    9138    9137    9140    9139    9137    9140
    9143    9141    9142    9142    9141    9144    9143    9141    9144
    9147    9145    9146    9146    9145    9148    9147    9145    9148
    9151    9149    9150    9150    9149    9152    9151    9149    9152
    9155    9153    9154    9154    9153    9156    9155    9153    9156
    9159    9157    9158    9158    9157    9160    9159    9157    9160
    9163    9161    9162    9162    9161    9164    9163    9161    9164
    9167    9165    9166    9166    9165    9168    9167    9165    9168
    9171    9169    9170    9170    9169    9172    9171    9169    9172
    9175    9173    9174    9174    9173    9176    9175    9173    9176
    9179    9177    9178    9178    9177    9180    9179    9177    9180
    9183    9181    9182    9182    9181    9184    9183    9181    9184
    9187    9185    9186    9186    9185    9188    9187    9185    9188
    9191    9189    9190    9190    9189    9192    9191    9189    9192
    9195    9193    9194    9194    9193    9196    9195    9193    9196
    9199    9197    9198    9198    9197    9200    9199    9197    9200
    9203    9201    9202    9202    9201    9204    9203    9201    9204
    9207    9205    9206    9206    9205    9208    9207    9205    9208
    9211    9209    9210    9210    9209    9212    9211    9209    9212
    9215    9213    9214    9214    9213    9216    9215    9213    9216
    9219    9217    9218    9218    9217    9220    9219    9217    9220
    9223    9221    9222    9222    9221    9224    9223    9221    9224
    9227    9225    9226    9226    9225    9228    9227    9225    9228
    9231    9229    9230    9230    9229    9232    9231    9229    9232
    9235    9233    9234    9234    9233    9236    9235    9233    9236
    9239    9237    9238    9238    9237    9240    9239    9237    9240
    9243    9241    9242    9242    9241    9244    9243    9241    9244
    9247    9245    9246    9246    9245    9248    9247    9245    9248
    9251    9249    9250    9250    9249    9252    9251    9249    9252
    9255    9253    9254    9254    9253    9256    9255    9253    9256
    9259    9257    9258    9258    9257    9260    9259    9257    9260
    9263    9261    9262    9262    9261    9264    9263    9261    9264
    9267    9265    9266    9266    9265    9268    9267    9265    9268
    9271    9269    9270    9270    9269    9272    9271    9269    9272
    9275    9273    9274    9274    9273    9276    9275    9273    9276
    9279    9277    9278    9278    9277    9280    9279    9277    9280
    9283    9281    9282    9282    9281    9284    9283    9281    9284
    9287    9285    9286    9286    9285    9288    9287    9285    9288
    9291    9289    9290    9290    9289    9292    9291    9289    9292
    9295    9293    9294    9294    9293    9296    9295    9293    9296
    9299    9297    9298    9298    9297    9300    9299    9297    9300
    9303    9301    9302    9302    9301    9304    9303    9301    9304
    9307    9305    9306    9306    9305    9308    9307    9305    9308
    9311    9309    9310    9310    9309    9312    9311    9309    9312
    9315    9313    9314    9314    9313    9316    9315    9313    9316
    9319    9317    9318    9318    9317    9320    9319    9317    9320
    9323    9321    9322    9322    9321    9324    9323    9321    9324
    9327    9325    9326    9326    9325    9328    9327    9325    9328
    9331    9329    9330    9330    9329    9332    9331    9329    9332
    9335    9333    9334    9334    9333    9336    9335    9333    9336
    9339    9337    9338    9338    9337    9340    9339    9337    9340
    9343    9341    9342    9342    9341    9344    9343    9341    9344
    9347    9345    9346    9346    9345    9348    9347    9345    9348
    9351    9349    9350    9350    9349    9352    9351    9349    9352
    9355    9353    9354    9354    9353    9356    9355    9353    9356
    9359    9357    9358    9358    9357    9360    9359    9357    9360
    9363    9361    9362    9362    9361    9364    9363    9361    9364
    9367    9365    9366    9366    9365    9368    9367    9365    9368
    9371    9369    9370    9370    9369    9372    9371    9369    9372
    9375    9373    9374    9374    9373    9376    9375    9373    9376
    9379    9377    9378    9378    9377    9380    9379    9377    9380
    9383    9381    9382    9382    9381    9384    9383    9381    9384
    9387    9385    9386    9386    9385    9388    9387    9385    9388
    9391    9389    9390    9390    9389    9392    9391    9389    9392
    9395    9393    9394    9394    9393    9396    9395    9393    9396
    9399    9397    9398    9398    9397    9400    9399    9397    9400
    9403    9401    9402    9402    9401    9404    9403    9401    9404
    9407    9405    9406    9406    9405    9408    9407    9405    9408
    9411    9409    9410    9410    9409    9412    9411    9409    9412
    9415    9413    9414    9414    9413    9416    9415    9413    9416
    9419    9417    9418    9418    9417    9420    9419    9417    9420
    9423    9421    9422    9422    9421    9424    9423    9421    9424
    9427    9425    9426    9426    9425    9428    9427    9425    9428
    9431    9429    9430    9430    9429    9432    9431    9429    9432
    9435    9433    9434    9434    9433    9436    9435    9433    9436
    9439    9437    9438    9438    9437    9440    9439    9437    9440
    9443    9441    9442    9442    9441    9444    9443    9441    9444
    9447    9445    9446    9446    9445    9448    9447    9445    9448
    9451    9449    9450    9450    9449    9452    9451    9449    9452
    9455    9453    9454    9454    9453    9456    9455    9453    9456
    9459    9457    9458    9458    9457    9460    9459    9457    9460
    9463    9461    9462    9462    9461    9464    9463    9461    9464
    9467    9465    9466    9466    9465    9468    9467    9465    9468
    9471    9469    9470    9470    9469    9472    9471    9469    9472
    9475    9473    9474    9474    9473    9476    9475    9473    9476
    9479    9477    9478    9478    9477    9480    9479    9477    9480
    9483    9481    9482    9482    9481    9484    9483    9481    9484
    9487    9485    9486    9486    9485    9488    9487    9485    9488
    9491    9489    9490    9490    9489    9492    9491    9489    9492
    9495    9493    9494    9494    9493    9496    9495    9493    9496
    9499    9497    9498    9498    9497    9500    9499    9497    9500
    9503    9501    9502    9502    9501    9504    9503    9501    9504
    9507    9505    9506    9506    9505    9508    9507    9505    9508
    9511    9509    9510    9510    9509    9512    9511    9509    9512
    9515    9513    9514    9514    9513    9516    9515    9513    9516
    9519    9517    9518    9518    9517    9520    9519    9517    9520
    9523    9521    9522    9522    9521    9524    9523    9521    9524
    9527    9525    9526    9526    9525    9528    9527    9525    9528
    9531    9529    9530    9530    9529    9532    9531    9529    9532
    9535    9533    9534    9534    9533    9536    9535    9533    9536
    9539    9537    9538    9538    9537    9540    9539    9537    9540
    9543    9541    9542    9542    9541    9544    9543    9541    9544
    9547    9545    9546    9546    9545    9548    9547    9545    9548
    9551    9549    9550    9550    9549    9552    9551    9549    9552
    9555    9553    9554    9554    9553    9556    9555    9553    9556
    9559    9557    9558    9558    9557    9560    9559    9557    9560
    9563    9561    9562    9562    9561    9564    9563    9561    9564
    9567    9565    9566    9566    9565    9568    9567    9565    9568
    9571    9569    9570    9570    9569    9572    9571    9569    9572
    9575    9573    9574    9574    9573    9576    9575    9573    9576
    9579    9577    9578    9578    9577    9580    9579    9577    9580
    9583    9581    9582    9582    9581    9584    9583    9581    9584
    9587    9585    9586    9586    9585    9588    9587    9585    9588
    9591    9589    9590    9590    9589    9592    9591    9589    9592
    9595    9593    9594    9594    9593    9596    9595    9593    9596
    9599    9597    9598    9598    9597    9600    9599    9597    9600
    9603    9601    9602    9602    9601    9604    9603    9601    9604
    9607    9605    9606    9606    9605    9608    9607    9605    9608
    9611    9609    9610    9610    9609    9612    9611    9609    9612
    9615    9613    9614    9614    9613    9616    9615    9613    9616
    9619    9617    9618    9618    9617    9620    9619    9617    9620
    9623    9621    9622    9622    9621    9624    9623    9621    9624
    9627    9625    9626    9626    9625    9628    9627    9625    9628
    9631    9629    9630    9630    9629    9632    9631    9629    9632
    9635    9633    9634    9634    9633    9636    9635    9633    9636
    9639    9637    9638    9638    9637    9640    9639    9637    9640
    9643    9641    9642    9642    9641    9644    9643    9641    9644
    9647    9645    9646    9646    9645    9648    9647    9645    9648
    9651    9649    9650    9650    9649    9652    9651    9649    9652
    9655    9653    9654    9654    9653    9656    9655    9653    9656
    9659    9657    9658    9658    9657    9660    9659    9657    9660
    9663    9661    9662    9662    9661    9664    9663    9661    9664
    9667    9665    9666    9666    9665    9668    9667    9665    9668
    9671    9669    9670    9670    9669    9672    9671    9669    9672
    9675    9673    9674    9674    9673    9676    9675    9673    9676
    9679    9677    9678    9678    9677    9680    9679    9677    9680
    9683    9681    9682    9682    9681    9684    9683    9681    9684
    9687    9685    9686    9686    9685    9688    9687    9685    9688
    9691    9689    9690    9690    9689    9692    9691    9689    9692
    9695    9693    9694    9694    9693    9696    9695    9693    9696
    9699    9697    9698    9698    9697    9700    9699    9697    9700
    9703    9701    9702    9702    9701    9704    9703    9701    9704
    9707    9705    9706    9706    9705    9708    9707    9705    9708
    9711    9709    9710    9710    9709    9712    9711    9709    9712
    9715    9713    9714    9714    9713    9716    9715    9713    9716
    9719    9717    9718    9718    9717    9720    9719    9717    9720
    9723    9721    9722    9722    9721    9724    9723    9721    9724
    9727    9725    9726    9726    9725    9728    9727    9725    9728
    9731    9729    9730    9730    9729    9732    9731    9729    9732
    9735    9733    9734    9734    9733    9736    9735    9733    9736
    9739    9737    9738    9738    9737    9740    9739    9737    9740
    9743    9741    9742    9742    9741    9744    9743    9741    9744
    9747    9745    9746    9746    9745    9748    9747    9745    9748
    9751    9749    9750    9750    9749    9752    9751    9749    9752
    9755    9753    9754    9754    9753    9756    9755    9753    9756
    9759    9757    9758    9758    9757    9760    9759    9757    9760
    9763    9761    9762    9762    9761    9764    9763    9761    9764
    9767    9765    9766    9766    9765    9768    9767    9765    9768
    9771    9769    9770    9770    9769    9772    9771    9769    9772
    9775    9773    9774    9774    9773    9776    9775    9773    9776
    9779    9777    9778    9778    9777    9780    9779    9777    9780
    9783    9781    9782    9782    9781    9784    9783    9781    9784
    9787    9785    9786    9786    9785    9788    9787    9785    9788
    9791    9789    9790    9790    9789    9792    9791    9789    9792
    9795    9793    9794    9794    9793    9796    9795    9793    9796
    9799    9797    9798    9798    9797    9800    9799    9797    9800
    9803    9801    9802    9802    9801    9804    9803    9801    9804
    9807    9805    9806    9806    9805    9808    9807    9805    9808
    9811    9809    9810    9810    9809    9812    9811    9809    9812
    9815    9813    9814    9814    9813    9816    9815    9813    9816
    9819    9817    9818    9818    9817    9820    9819    9817    9820
    9823    9821    9822    9822    9821    9824    9823    9821    9824
    9827    9825    9826    9826    9825    9828    9827    9825    9828
    9831    9829    9830    9830    9829    9832    9831    9829    9832
    9835    9833    9834    9834    9833    9836    9835    9833    9836
    9839    9837    9838    9838    9837    9840    9839    9837    9840
    9843    9841    9842    9842    9841    9844    9843    9841    9844
    9847    9845    9846    9846    9845    9848    9847    9845    9848
    9851    9849    9850    9850    9849    9852    9851    9849    9852
    9855    9853    9854    9854    9853    9856    9855    9853    9856
    9859    9857    9858    9858    9857    9860    9859    9857    9860
    9863    9861    9862    9862    9861    9864    9863    9861    9864
    9867    9865    9866    9866    9865    9868    9867    9865    9868
    9871    9869    9870    9870    9869    9872    9871    9869    9872
    9875    9873    9874    9874    9873    9876    9875    9873    9876
    9879    9877    9878    9878    9877    9880    9879    9877    9880
    9883    9881    9882    9882    9881    9884    9883    9881    9884
    9887    9885    9886    9886    9885    9888    9887    9885    9888
    9891    9889    9890    9890    9889    9892    9891    9889    9892
    9895    9893    9894    9894    9893    9896    9895    9893    9896
    9899    9897    9898    9898    9897    9900    9899    9897    9900
    9903    9901    9902    9902    9901    9904    9903    9901    9904
    9907    9905    9906    9906    9905    9908    9907    9905    9908
    9911    9909    9910    9910    9909    9912    9911    9909    9912
    9915    9913    9914    9914    9913    9916    9915    9913    9916
    9919    9917    9918    9918    9917    9920    9919    9917    9920
    9923    9921    9922    9922    9921    9924    9923    9921    9924
    9927    9925    9926    9926    9925    9928    9927    9925    9928
    9931    9929    9930    9930    9929    9932    9931    9929    9932
    9935    9933    9934    9934    9933    9936    9935    9933    9936
    9939    9937    9938    9938    9937    9940    9939    9937    9940
    9943    9941    9942    9942    9941    9944    9943    9941    9944
    9947    9945    9946    9946    9945    9948    9947    9945    9948
    9951    9949    9950    9950    9949    9952    9951    9949    9952
    9955    9953    9954    9954    9953    9956    9955    9953    9956
    9959    9957    9958    9958    9957    9960    9959    9957    9960
    9963    9961    9962    9962    9961    9964    9963    9961    9964
    9967    9965    9966    9966    9965    9968    9967    9965    9968
    9971    9969    9970    9970    9969    9972    9971    9969    9972
    9975    9973    9974    9974    9973    9976    9975    9973    9976
    9979    9977    9978    9978    9977    9980    9979    9977    9980
    9983    9981    9982    9982    9981    9984    9983    9981    9984
    9987    9985    9986    9986    9985    9988    9987    9985    9988
    9991    9989    9990    9990    9989    9992    9991    9989    9992
    9995    9993    9994    9994    9993    9996    9995    9993    9996
    9999    9997    9998    9998    9997   10000    9999    9997   10000
   10003   10001   10002   10002   10001   10004   10003   10001   10004
   10007   10005   10006   10006   10005   10008   10007   10005   10008
   10011   10009   10010   10010   10009   10012   10011   10009   10012
   10015   10013   10014   10014   10013   10016   10015   10013   10016
   10019   10017   10018   10018   10017   10020   10019   10017   10020
   10023   10021   10022   10022   10021   10024   10023   10021   10024
   10027   10025   10026   10026   10025   10028   10027   10025   10028
   10031   10029   10030   10030   10029   10032   10031   10029   10032
   10035   10033   10034   10034   10033   10036   10035   10033   10036
   10039   10037   10038   10038   10037   10040   10039   10037   10040
   10043   10041   10042   10042   10041   10044   10043   10041   10044
   10047   10045   10046   10046   10045   10048   10047   10045   10048
   10051   10049   10050   10050   10049   10052   10051   10049   10052
   10055   10053   10054   10054   10053   10056   10055   10053   10056
   10059   10057   10058   10058   10057   10060   10059   10057   10060
   10063   10061   10062   10062   10061   10064   10063   10061   10064
   10067   10065   10066   10066   10065   10068   10067   10065   10068
   10071   10069   10070   10070   10069   10072   10071   10069   10072
   10075   10073   10074   10074   10073   10076   10075   10073   10076
   10079   10077   10078   10078   10077   10080   10079   10077   10080
   10083   10081   10082   10082   10081   10084   10083   10081   10084
   10087   10085   10086   10086   10085   10088   10087   10085   10088
   10091   10089   10090   10090   10089   10092   10091   10089   10092
   10095   10093   10094   10094   10093   10096   10095   10093   10096
   10099   10097   10098   10098   10097   10100   10099   10097   10100
   10103   10101   10102   10102   10101   10104   10103   10101   10104
   10107   10105   10106   10106   10105   10108   10107   10105   10108
   10111   10109   10110   10110   10109   10112   10111   10109   10112
   10115   10113   10114   10114   10113   10116   10115   10113   10116
   10119   10117   10118   10118   10117   10120   10119   10117   10120
   10123   10121   10122   10122   10121   10124   10123   10121   10124
   10127   10125   10126   10126   10125   10128   10127   10125   10128
   10131   10129   10130   10130   10129   10132   10131   10129   10132
   10135   10133   10134   10134   10133   10136   10135   10133   10136
   10139   10137   10138   10138   10137   10140   10139   10137   10140
   10143   10141   10142   10142   10141   10144   10143   10141   10144
   10147   10145   10146   10146   10145   10148   10147   10145   10148
   10151   10149   10150   10150   10149   10152   10151   10149   10152
   10155   10153   10154   10154   10153   10156   10155   10153   10156
   10159   10157   10158   10158   10157   10160   10159   10157   10160
   10163   10161   10162   10162   10161   10164   10163   10161   10164
   10167   10165   10166   10166   10165   10168   10167   10165   10168
   10171   10169   10170   10170   10169   10172   10171   10169   10172
   10175   10173   10174   10174   10173   10176   10175   10173   10176
   10179   10177   10178   10178   10177   10180   10179   10177   10180
   10183   10181   10182   10182   10181   10184   10183   10181   10184
   10187   10185   10186   10186   10185   10188   10187   10185   10188
   10191   10189   10190   10190   10189   10192   10191   10189   10192
   10195   10193   10194   10194   10193   10196   10195   10193   10196
   10199   10197   10198   10198   10197   10200   10199   10197   10200
   10203   10201   10202   10202   10201   10204   10203   10201   10204
   10207   10205   10206   10206   10205   10208   10207   10205   10208
   10211   10209   10210   10210   10209   10212   10211   10209   10212
   10215   10213   10214   10214   10213   10216   10215   10213   10216
   10219   10217   10218   10218   10217   10220   10219   10217   10220
   10223   10221   10222   10222   10221   10224   10223   10221   10224
   10227   10225   10226   10226   10225   10228   10227   10225   10228
   10231   10229   10230   10230   10229   10232   10231   10229   10232
   10235   10233   10234   10234   10233   10236   10235   10233   10236
   10239   10237   10238   10238   10237   10240   10239   10237   10240
   10243   10241   10242   10242   10241   10244   10243   10241   10244
   10247   10245   10246   10246   10245   10248   10247   10245   10248
   10251   10249   10250   10250   10249   10252   10251   10249   10252
   10255   10253   10254   10254   10253   10256   10255   10253   10256
   10259   10257   10258   10258   10257   10260   10259   10257   10260
   10263   10261   10262   10262   10261   10264   10263   10261   10264
   10267   10265   10266   10266   10265   10268   10267   10265   10268
   10271   10269   10270   10270   10269   10272   10271   10269   10272
   10275   10273   10274   10274   10273   10276   10275   10273   10276
   10279   10277   10278   10278   10277   10280   10279   10277   10280
   10283   10281   10282   10282   10281   10284   10283   10281   10284
   10287   10285   10286   10286   10285   10288   10287   10285   10288
   10291   10289   10290   10290   10289   10292   10291   10289   10292
   10295   10293   10294   10294   10293   10296   10295   10293   10296
   10299   10297   10298   10298   10297   10300   10299   10297   10300
   10303   10301   10302   10302   10301   10304   10303   10301   10304
   10307   10305   10306   10306   10305   10308   10307   10305   10308
   10311   10309   10310   10310   10309   10312   10311   10309   10312
   10315   10313   10314   10314   10313   10316   10315   10313   10316
   10319   10317   10318   10318   10317   10320   10319   10317   10320
   10323   10321   10322   10322   10321   10324   10323   10321   10324
   10327   10325   10326   10326   10325   10328   10327   10325   10328
   10331   10329   10330   10330   10329   10332   10331   10329   10332
   10335   10333   10334   10334   10333   10336   10335   10333   10336
   10339   10337   10338   10338   10337   10340   10339   10337   10340
   10343   10341   10342   10342   10341   10344   10343   10341   10344
   10347   10345   10346   10346   10345   10348   10347   10345   10348
   10351   10349   10350   10350   10349   10352   10351   10349   10352
   10355   10353   10354   10354   10353   10356   10355   10353   10356
   10359   10357   10358   10358   10357   10360   10359   10357   10360
   10363   10361   10362   10362   10361   10364   10363   10361   10364
   10367   10365   10366   10366   10365   10368   10367   10365   10368
   10371   10369   10370   10370   10369   10372   10371   10369   10372
   10375   10373   10374   10374   10373   10376   10375   10373   10376
   10379   10377   10378   10378   10377   10380   10379   10377   10380
   10383   10381   10382   10382   10381   10384   10383   10381   10384
   10387   10385   10386   10386   10385   10388   10387   10385   10388
   10391   10389   10390   10390   10389   10392   10391   10389   10392
   10395   10393   10394   10394   10393   10396   10395   10393   10396
   10399   10397   10398   10398   10397   10400   10399   10397   10400
   10403   10401   10402   10402   10401   10404   10403   10401   10404
   10407   10405   10406   10406   10405   10408   10407   10405   10408
   10411   10409   10410   10410   10409   10412   10411   10409   10412
   10415   10413   10414   10414   10413   10416   10415   10413   10416
   10419   10417   10418   10418   10417   10420   10419   10417   10420
   10423   10421   10422   10422   10421   10424   10423   10421   10424
   10427   10425   10426   10426   10425   10428   10427   10425   10428
   10431   10429   10430   10430   10429   10432   10431   10429   10432
   10435   10433   10434   10434   10433   10436   10435   10433   10436
   10439   10437   10438   10438   10437   10440   10439   10437   10440
   10443   10441   10442   10442   10441   10444   10443   10441   10444
   10447   10445   10446   10446   10445   10448   10447   10445   10448
   10451   10449   10450   10450   10449   10452   10451   10449   10452
   10455   10453   10454   10454   10453   10456   10455   10453   10456
   10459   10457   10458   10458   10457   10460   10459   10457   10460
   10463   10461   10462   10462   10461   10464   10463   10461   10464
   10467   10465   10466   10466   10465   10468   10467   10465   10468
   10471   10469   10470   10470   10469   10472   10471   10469   10472
   10475   10473   10474   10474   10473   10476   10475   10473   10476
   10479   10477   10478   10478   10477   10480   10479   10477   10480
   10483   10481   10482   10482   10481   10484   10483   10481   10484
   10487   10485   10486   10486   10485   10488   10487   10485   10488
   10491   10489   10490   10490   10489   10492   10491   10489   10492
   10495   10493   10494   10494   10493   10496   10495   10493   10496
   10499   10497   10498   10498   10497   10500   10499   10497   10500
   10503   10501   10502   10502   10501   10504   10503   10501   10504
   10507   10505   10506   10506   10505   10508   10507   10505   10508
   10511   10509   10510   10510   10509   10512   10511   10509   10512
   10515   10513   10514   10514   10513   10516   10515   10513   10516
   10519   10517   10518   10518   10517   10520   10519   10517   10520
   10523   10521   10522   10522   10521   10524   10523   10521   10524
   10527   10525   10526   10526   10525   10528   10527   10525   10528
   10531   10529   10530   10530   10529   10532   10531   10529   10532
   10535   10533   10534   10534   10533   10536   10535   10533   10536
   10539   10537   10538   10538   10537   10540   10539   10537   10540
   10543   10541   10542   10542   10541   10544   10543   10541   10544
   10547   10545   10546   10546   10545   10548   10547   10545   10548
   10551   10549   10550   10550   10549   10552   10551   10549   10552
   10555   10553   10554   10554   10553   10556   10555   10553   10556
   10559   10557   10558   10558   10557   10560   10559   10557   10560
   10563   10561   10562   10562   10561   10564   10563   10561   10564
   10567   10565   10566   10566   10565   10568   10567   10565   10568
   10571   10569   10570   10570   10569   10572   10571   10569   10572
   10575   10573   10574   10574   10573   10576   10575   10573   10576
   10579   10577   10578   10578   10577   10580   10579   10577   10580
   10583   10581   10582   10582   10581   10584   10583   10581   10584
   10587   10585   10586   10586   10585   10588   10587   10585   10588
   10591   10589   10590   10590   10589   10592   10591   10589   10592
   10595   10593   10594   10594   10593   10596   10595   10593   10596
   10599   10597   10598   10598   10597   10600   10599   10597   10600
   10603   10601   10602   10602   10601   10604   10603   10601   10604
   10607   10605   10606   10606   10605   10608   10607   10605   10608
   10611   10609   10610   10610   10609   10612   10611   10609   10612
   10615   10613   10614   10614   10613   10616   10615   10613   10616
   10619   10617   10618   10618   10617   10620   10619   10617   10620
   10623   10621   10622   10622   10621   10624   10623   10621   10624
   10627   10625   10626   10626   10625   10628   10627   10625   10628
   10631   10629   10630   10630   10629   10632   10631   10629   10632
   10635   10633   10634   10634   10633   10636   10635   10633   10636
   10639   10637   10638   10638   10637   10640   10639   10637   10640
   10643   10641   10642   10642   10641   10644   10643   10641   10644
   10647   10645   10646   10646   10645   10648   10647   10645   10648
   10651   10649   10650   10650   10649   10652   10651   10649   10652
   10655   10653   10654   10654   10653   10656   10655   10653   10656
   10659   10657   10658   10658   10657   10660   10659   10657   10660
   10663   10661   10662   10662   10661   10664   10663   10661   10664
   10667   10665   10666   10666   10665   10668   10667   10665   10668
   10671   10669   10670   10670   10669   10672   10671   10669   10672
   10675   10673   10674   10674   10673   10676   10675   10673   10676
   10679   10677   10678   10678   10677   10680   10679   10677   10680
   10683   10681   10682   10682   10681   10684   10683   10681   10684
   10687   10685   10686   10686   10685   10688   10687   10685   10688
   10691   10689   10690   10690   10689   10692   10691   10689   10692
   10695   10693   10694   10694   10693   10696   10695   10693   10696
   10699   10697   10698   10698   10697   10700   10699   10697   10700
   10703   10701   10702   10702   10701   10704   10703   10701   10704
   10707   10705   10706   10706   10705   10708   10707   10705   10708
   10711   10709   10710   10710   10709   10712   10711   10709   10712
   10715   10713   10714   10714   10713   10716   10715   10713   10716
   10719   10717   10718   10718   10717   10720   10719   10717   10720
   10723   10721   10722   10722   10721   10724   10723   10721   10724
   10727   10725   10726   10726   10725   10728   10727   10725   10728
   10731   10729   10730   10730   10729   10732   10731   10729   10732
   10735   10733   10734   10734   10733   10736   10735   10733   10736
   10739   10737   10738   10738   10737   10740   10739   10737   10740
   10743   10741   10742   10742   10741   10744   10743   10741   10744
   10747   10745   10746   10746   10745   10748   10747   10745   10748
   10751   10749   10750   10750   10749   10752   10751   10749   10752
   10755   10753   10754   10754   10753   10756   10755   10753   10756
   10759   10757   10758   10758   10757   10760   10759   10757   10760
   10763   10761   10762   10762   10761   10764   10763   10761   10764
   10767   10765   10766   10766   10765   10768   10767   10765   10768
   10771   10769   10770   10770   10769   10772   10771   10769   10772
   10775   10773   10774   10774   10773   10776   10775   10773   10776
   10779   10777   10778   10778   10777   10780   10779   10777   10780
   10783   10781   10782   10782   10781   10784   10783   10781   10784
   10787   10785   10786   10786   10785   10788   10787   10785   10788
   10791   10789   10790   10790   10789   10792   10791   10789   10792
   10795   10793   10794   10794   10793   10796   10795   10793   10796
   10799   10797   10798   10798   10797   10800   10799   10797   10800
   10803   10801   10802   10802   10801   10804   10803   10801   10804
   10807   10805   10806   10806   10805   10808   10807   10805   10808
   10811   10809   10810   10810   10809   10812   10811   10809   10812
   10815   10813   10814   10814   10813   10816   10815   10813   10816
   10819   10817   10818   10818   10817   10820   10819   10817   10820
   10823   10821   10822   10822   10821   10824   10823   10821   10824
   10827   10825   10826   10826   10825   10828   10827   10825   10828
   10831   10829   10830   10830   10829   10832   10831   10829   10832
   10835   10833   10834   10834   10833   10836   10835   10833   10836
   10839   10837   10838   10838   10837   10840   10839   10837   10840
   10843   10841   10842   10842   10841   10844   10843   10841   10844
   10847   10845   10846   10846   10845   10848   10847   10845   10848
   10851   10849   10850   10850   10849   10852   10851   10849   10852
   10855   10853   10854   10854   10853   10856   10855   10853   10856
   10859   10857   10858   10858   10857   10860   10859   10857   10860
   10863   10861   10862   10862   10861   10864   10863   10861   10864
   10867   10865   10866   10866   10865   10868   10867   10865   10868
   10871   10869   10870   10870   10869   10872   10871   10869   10872
   10875   10873   10874   10874   10873   10876   10875   10873   10876
   10879   10877   10878   10878   10877   10880   10879   10877   10880
   10883   10881   10882   10882   10881   10884   10883   10881   10884
   10887   10885   10886   10886   10885   10888   10887   10885   10888
   10891   10889   10890   10890   10889   10892   10891   10889   10892
   10895   10893   10894   10894   10893   10896   10895   10893   10896
   10899   10897   10898   10898   10897   10900   10899   10897   10900
   10903   10901   10902   10902   10901   10904   10903   10901   10904
   10907   10905   10906   10906   10905   10908   10907   10905   10908
   10911   10909   10910   10910   10909   10912   10911   10909   10912
   10915   10913   10914   10914   10913   10916   10915   10913   10916
   10919   10917   10918   10918   10917   10920   10919   10917   10920
   10923   10921   10922   10922   10921   10924   10923   10921   10924
   10927   10925   10926   10926   10925   10928   10927   10925   10928
   10931   10929   10930   10930   10929   10932   10931   10929   10932
   10935   10933   10934   10934   10933   10936   10935   10933   10936
   10939   10937   10938   10938   10937   10940   10939   10937   10940
   10943   10941   10942   10942   10941   10944   10943   10941   10944
   10947   10945   10946   10946   10945   10948   10947   10945   10948
   10951   10949   10950   10950   10949   10952   10951   10949   10952
   10955   10953   10954   10954   10953   10956   10955   10953   10956
   10959   10957   10958   10958   10957   10960   10959   10957   10960
   10963   10961   10962   10962   10961   10964   10963   10961   10964
   10967   10965   10966   10966   10965   10968   10967   10965   10968
   10971   10969   10970   10970   10969   10972   10971   10969   10972
   10975   10973   10974   10974   10973   10976   10975   10973   10976
   10979   10977   10978   10978   10977   10980   10979   10977   10980
   10983   10981   10982   10982   10981   10984   10983   10981   10984
   10987   10985   10986   10986   10985   10988   10987   10985   10988
   10991   10989   10990   10990   10989   10992   10991   10989   10992
   10995   10993   10994   10994   10993   10996   10995   10993   10996
   10999   10997   10998   10998   10997   11000   10999   10997   11000
   11003   11001   11002   11002   11001   11004   11003   11001   11004
   11007   11005   11006   11006   11005   11008   11007   11005   11008
   11011   11009   11010   11010   11009   11012   11011   11009   11012
   11015   11013   11014   11014   11013   11016   11015   11013   11016
   11019   11017   11018   11018   11017   11020   11019   11017   11020
   11023   11021   11022   11022   11021   11024   11023   11021   11024
   11027   11025   11026   11026   11025   11028   11027   11025   11028
   11031   11029   11030   11030   11029   11032   11031   11029   11032
   11035   11033   11034   11034   11033   11036   11035   11033   11036
   11039   11037   11038   11038   11037   11040   11039   11037   11040
   11043   11041   11042   11042   11041   11044   11043   11041   11044
   11047   11045   11046   11046   11045   11048   11047   11045   11048
   11051   11049   11050   11050   11049   11052   11051   11049   11052
   11055   11053   11054   11054   11053   11056   11055   11053   11056
   11059   11057   11058   11058   11057   11060   11059   11057   11060
   11063   11061   11062   11062   11061   11064   11063   11061   11064
   11067   11065   11066   11066   11065   11068   11067   11065   11068
   11071   11069   11070   11070   11069   11072   11071   11069   11072
   11075   11073   11074   11074   11073   11076   11075   11073   11076
   11079   11077   11078   11078   11077   11080   11079   11077   11080
   11083   11081   11082   11082   11081   11084   11083   11081   11084
   11087   11085   11086   11086   11085   11088   11087   11085   11088
   11091   11089   11090   11090   11089   11092   11091   11089   11092
   11095   11093   11094   11094   11093   11096   11095   11093   11096
   11099   11097   11098   11098   11097   11100   11099   11097   11100
   11103   11101   11102   11102   11101   11104   11103   11101   11104
   11107   11105   11106   11106   11105   11108   11107   11105   11108
   11111   11109   11110   11110   11109   11112   11111   11109   11112
   11115   11113   11114   11114   11113   11116   11115   11113   11116
   11119   11117   11118   11118   11117   11120   11119   11117   11120
   11123   11121   11122   11122   11121   11124   11123   11121   11124
   11127   11125   11126   11126   11125   11128   11127   11125   11128
   11131   11129   11130   11130   11129   11132   11131   11129   11132
   11135   11133   11134   11134   11133   11136   11135   11133   11136
   11139   11137   11138   11138   11137   11140   11139   11137   11140
   11143   11141   11142   11142   11141   11144   11143   11141   11144
   11147   11145   11146   11146   11145   11148   11147   11145   11148
   11151   11149   11150   11150   11149   11152   11151   11149   11152
   11155   11153   11154   11154   11153   11156   11155   11153   11156
   11159   11157   11158   11158   11157   11160   11159   11157   11160
   11163   11161   11162   11162   11161   11164   11163   11161   11164
   11167   11165   11166   11166   11165   11168   11167   11165   11168
   11171   11169   11170   11170   11169   11172   11171   11169   11172
   11175   11173   11174   11174   11173   11176   11175   11173   11176
   11179   11177   11178   11178   11177   11180   11179   11177   11180
   11183   11181   11182   11182   11181   11184   11183   11181   11184
   11187   11185   11186   11186   11185   11188   11187   11185   11188
   11191   11189   11190   11190   11189   11192   11191   11189   11192
   11195   11193   11194   11194   11193   11196   11195   11193   11196
   11199   11197   11198   11198   11197   11200   11199   11197   11200
   11203   11201   11202   11202   11201   11204   11203   11201   11204
   11207   11205   11206   11206   11205   11208   11207   11205   11208
   11211   11209   11210   11210   11209   11212   11211   11209   11212
   11215   11213   11214   11214   11213   11216   11215   11213   11216
   11219   11217   11218   11218   11217   11220   11219   11217   11220
   11223   11221   11222   11222   11221   11224   11223   11221   11224
   11227   11225   11226   11226   11225   11228   11227   11225   11228
   11231   11229   11230   11230   11229   11232   11231   11229   11232
   11235   11233   11234   11234   11233   11236   11235   11233   11236
   11239   11237   11238   11238   11237   11240   11239   11237   11240
   11243   11241   11242   11242   11241   11244   11243   11241   11244
   11247   11245   11246   11246   11245   11248   11247   11245   11248
   11251   11249   11250   11250   11249   11252   11251   11249   11252
   11255   11253   11254   11254   11253   11256   11255   11253   11256
   11259   11257   11258   11258   11257   11260   11259   11257   11260
   11263   11261   11262   11262   11261   11264   11263   11261   11264
   11267   11265   11266   11266   11265   11268   11267   11265   11268
   11271   11269   11270   11270   11269   11272   11271   11269   11272
   11275   11273   11274   11274   11273   11276   11275   11273   11276
   11279   11277   11278   11278   11277   11280   11279   11277   11280
   11283   11281   11282   11282   11281   11284   11283   11281   11284
   11287   11285   11286   11286   11285   11288   11287   11285   11288
   11291   11289   11290   11290   11289   11292   11291   11289   11292
   11295   11293   11294   11294   11293   11296   11295   11293   11296
   11299   11297   11298   11298   11297   11300   11299   11297   11300
   11303   11301   11302   11302   11301   11304   11303   11301   11304
   11307   11305   11306   11306   11305   11308   11307   11305   11308
   11311   11309   11310   11310   11309   11312   11311   11309   11312
   11315   11313   11314   11314   11313   11316   11315   11313   11316
   11319   11317   11318   11318   11317   11320   11319   11317   11320
   11323   11321   11322   11322   11321   11324   11323   11321   11324
   11327   11325   11326   11326   11325   11328   11327   11325   11328
   11331   11329   11330   11330   11329   11332   11331   11329   11332
   11335   11333   11334   11334   11333   11336   11335   11333   11336
   11339   11337   11338   11338   11337   11340   11339   11337   11340
   11343   11341   11342   11342   11341   11344   11343   11341   11344
   11347   11345   11346   11346   11345   11348   11347   11345   11348
   11351   11349   11350   11350   11349   11352   11351   11349   11352
   11355   11353   11354   11354   11353   11356   11355   11353   11356
   11359   11357   11358   11358   11357   11360   11359   11357   11360
   11363   11361   11362   11362   11361   11364   11363   11361   11364
   11367   11365   11366   11366   11365   11368   11367   11365   11368
   11371   11369   11370   11370   11369   11372   11371   11369   11372
   11375   11373   11374   11374   11373   11376   11375   11373   11376
   11379   11377   11378   11378   11377   11380   11379   11377   11380
   11383   11381   11382   11382   11381   11384   11383   11381   11384
   11387   11385   11386   11386   11385   11388   11387   11385   11388
   11391   11389   11390   11390   11389   11392   11391   11389   11392
   11395   11393   11394   11394   11393   11396   11395   11393   11396
   11399   11397   11398   11398   11397   11400   11399   11397   11400
   11403   11401   11402   11402   11401   11404   11403   11401   11404
   11407   11405   11406   11406   11405   11408   11407   11405   11408
   11411   11409   11410   11410   11409   11412   11411   11409   11412
   11415   11413   11414   11414   11413   11416   11415   11413   11416
   11419   11417   11418   11418   11417   11420   11419   11417   11420
   11423   11421   11422   11422   11421   11424   11423   11421   11424
   11427   11425   11426   11426   11425   11428   11427   11425   11428
   11431   11429   11430   11430   11429   11432   11431   11429   11432
   11435   11433   11434   11434   11433   11436   11435   11433   11436
   11439   11437   11438   11438   11437   11440   11439   11437   11440
   11443   11441   11442   11442   11441   11444   11443   11441   11444
   11447   11445   11446   11446   11445   11448   11447   11445   11448
   11451   11449   11450   11450   11449   11452   11451   11449   11452
   11455   11453   11454   11454   11453   11456   11455   11453   11456
   11459   11457   11458   11458   11457   11460   11459   11457   11460
   11463   11461   11462   11462   11461   11464   11463   11461   11464
   11467   11465   11466   11466   11465   11468   11467   11465   11468
   11471   11469   11470   11470   11469   11472   11471   11469   11472
   11475   11473   11474   11474   11473   11476   11475   11473   11476
   11479   11477   11478   11478   11477   11480   11479   11477   11480
   11483   11481   11482   11482   11481   11484   11483   11481   11484
   11487   11485   11486   11486   11485   11488   11487   11485   11488
   11491   11489   11490   11490   11489   11492   11491   11489   11492
   11495   11493   11494   11494   11493   11496   11495   11493   11496
   11499   11497   11498   11498   11497   11500   11499   11497   11500
   11503   11501   11502   11502   11501   11504   11503   11501   11504
   11507   11505   11506   11506   11505   11508   11507   11505   11508
   11511   11509   11510   11510   11509   11512   11511   11509   11512
   11515   11513   11514   11514   11513   11516   11515   11513   11516
   11519   11517   11518   11518   11517   11520   11519   11517   11520
   11523   11521   11522   11522   11521   11524   11523   11521   11524
   11527   11525   11526   11526   11525   11528   11527   11525   11528
   11531   11529   11530   11530   11529   11532   11531   11529   11532
   11535   11533   11534   11534   11533   11536   11535   11533   11536
   11539   11537   11538   11538   11537   11540   11539   11537   11540
   11543   11541   11542   11542   11541   11544   11543   11541   11544
   11547   11545   11546   11546   11545   11548   11547   11545   11548
   11551   11549   11550   11550   11549   11552   11551   11549   11552
   11555   11553   11554   11554   11553   11556   11555   11553   11556
   11559   11557   11558   11558   11557   11560   11559   11557   11560
   11563   11561   11562   11562   11561   11564   11563   11561   11564
   11567   11565   11566   11566   11565   11568   11567   11565   11568
   11571   11569   11570   11570   11569   11572   11571   11569   11572
   11575   11573   11574   11574   11573   11576   11575   11573   11576
   11579   11577   11578   11578   11577   11580   11579   11577   11580
   11583   11581   11582   11582   11581   11584   11583   11581   11584
   11587   11585   11586   11586   11585   11588   11587   11585   11588
   11591   11589   11590   11590   11589   11592   11591   11589   11592
   11595   11593   11594   11594   11593   11596   11595   11593   11596
   11599   11597   11598   11598   11597   11600   11599   11597   11600
   11603   11601   11602   11602   11601   11604   11603   11601   11604
   11607   11605   11606   11606   11605   11608   11607   11605   11608
   11611   11609   11610   11610   11609   11612   11611   11609   11612
   11615   11613   11614   11614   11613   11616   11615   11613   11616
   11619   11617   11618   11618   11617   11620   11619   11617   11620
   11623   11621   11622   11622   11621   11624   11623   11621   11624
   11627   11625   11626   11626   11625   11628   11627   11625   11628
   11631   11629   11630   11630   11629   11632   11631   11629   11632
   11635   11633   11634   11634   11633   11636   11635   11633   11636
   11639   11637   11638   11638   11637   11640   11639   11637   11640
   11643   11641   11642   11642   11641   11644   11643   11641   11644
   11647   11645   11646   11646   11645   11648   11647   11645   11648
   11651   11649   11650   11650   11649   11652   11651   11649   11652
   11655   11653   11654   11654   11653   11656   11655   11653   11656
   11659   11657   11658   11658   11657   11660   11659   11657   11660
   11663   11661   11662   11662   11661   11664   11663   11661   11664
   11667   11665   11666   11666   11665   11668   11667   11665   11668
   11671   11669   11670   11670   11669   11672   11671   11669   11672
   11675   11673   11674   11674   11673   11676   11675   11673   11676
   11679   11677   11678   11678   11677   11680   11679   11677   11680
   11683   11681   11682   11682   11681   11684   11683   11681   11684
   11687   11685   11686   11686   11685   11688   11687   11685   11688
   11691   11689   11690   11690   11689   11692   11691   11689   11692
   11695   11693   11694   11694   11693   11696   11695   11693   11696
   11699   11697   11698   11698   11697   11700   11699   11697   11700
   11703   11701   11702   11702   11701   11704   11703   11701   11704
   11707   11705   11706   11706   11705   11708   11707   11705   11708
   11711   11709   11710   11710   11709   11712   11711   11709   11712
   11715   11713   11714   11714   11713   11716   11715   11713   11716
   11719   11717   11718   11718   11717   11720   11719   11717   11720
   11723   11721   11722   11722   11721   11724   11723   11721   11724
   11727   11725   11726   11726   11725   11728   11727   11725   11728
   11731   11729   11730   11730   11729   11732   11731   11729   11732
   11735   11733   11734   11734   11733   11736   11735   11733   11736
   11739   11737   11738   11738   11737   11740   11739   11737   11740
   11743   11741   11742   11742   11741   11744   11743   11741   11744
   11747   11745   11746   11746   11745   11748   11747   11745   11748
   11751   11749   11750   11750   11749   11752   11751   11749   11752
   11755   11753   11754   11754   11753   11756   11755   11753   11756
   11759   11757   11758   11758   11757   11760   11759   11757   11760
   11763   11761   11762   11762   11761   11764   11763   11761   11764
   11767   11765   11766   11766   11765   11768   11767   11765   11768
   11771   11769   11770   11770   11769   11772   11771   11769   11772
   11775   11773   11774   11774   11773   11776   11775   11773   11776
   11779   11777   11778   11778   11777   11780   11779   11777   11780
   11783   11781   11782   11782   11781   11784   11783   11781   11784
   11787   11785   11786   11786   11785   11788   11787   11785   11788
   11791   11789   11790   11790   11789   11792   11791   11789   11792
   11795   11793   11794   11794   11793   11796   11795   11793   11796
   11799   11797   11798   11798   11797   11800   11799   11797   11800
   11803   11801   11802   11802   11801   11804   11803   11801   11804
   11807   11805   11806   11806   11805   11808   11807   11805   11808
   11811   11809   11810   11810   11809   11812   11811   11809   11812
   11815   11813   11814   11814   11813   11816   11815   11813   11816
   11819   11817   11818   11818   11817   11820   11819   11817   11820
   11823   11821   11822   11822   11821   11824   11823   11821   11824
   11827   11825   11826   11826   11825   11828   11827   11825   11828
   11831   11829   11830   11830   11829   11832   11831   11829   11832
   11835   11833   11834   11834   11833   11836   11835   11833   11836
   11839   11837   11838   11838   11837   11840   11839   11837   11840
   11843   11841   11842   11842   11841   11844   11843   11841   11844
   11847   11845   11846   11846   11845   11848   11847   11845   11848
   11851   11849   11850   11850   11849   11852   11851   11849   11852
   11855   11853   11854   11854   11853   11856   11855   11853   11856
   11859   11857   11858   11858   11857   11860   11859   11857   11860
   11863   11861   11862   11862   11861   11864   11863   11861   11864
   11867   11865   11866   11866   11865   11868   11867   11865   11868
   11871   11869   11870   11870   11869   11872   11871   11869   11872
   11875   11873   11874   11874   11873   11876   11875   11873   11876
   11879   11877   11878   11878   11877   11880   11879   11877   11880
   11883   11881   11882   11882   11881   11884   11883   11881   11884
   11887   11885   11886   11886   11885   11888   11887   11885   11888
   11891   11889   11890   11890   11889   11892   11891   11889   11892
   11895   11893   11894   11894   11893   11896   11895   11893   11896
   11899   11897   11898   11898   11897   11900   11899   11897   11900
   11903   11901   11902   11902   11901   11904   11903   11901   11904
   11907   11905   11906   11906   11905   11908   11907   11905   11908
   11911   11909   11910   11910   11909   11912   11911   11909   11912
   11915   11913   11914   11914   11913   11916   11915   11913   11916
   11919   11917   11918   11918   11917   11920   11919   11917   11920
   11923   11921   11922   11922   11921   11924   11923   11921   11924
   11927   11925   11926   11926   11925   11928   11927   11925   11928
   11931   11929   11930   11930   11929   11932   11931   11929   11932
   11935   11933   11934   11934   11933   11936   11935   11933   11936
   11939   11937   11938   11938   11937   11940   11939   11937   11940
   11943   11941   11942   11942   11941   11944   11943   11941   11944
   11947   11945   11946   11946   11945   11948   11947   11945   11948
   11951   11949   11950   11950   11949   11952   11951   11949   11952
   11955   11953   11954   11954   11953   11956   11955   11953   11956
   11959   11957   11958   11958   11957   11960   11959   11957   11960
   11963   11961   11962   11962   11961   11964   11963   11961   11964
   11967   11965   11966   11966   11965   11968   11967   11965   11968
   11971   11969   11970   11970   11969   11972   11971   11969   11972
   11975   11973   11974   11974   11973   11976   11975   11973   11976
   11979   11977   11978   11978   11977   11980   11979   11977   11980
   11983   11981   11982   11982   11981   11984   11983   11981   11984
   11987   11985   11986   11986   11985   11988   11987   11985   11988
   11991   11989   11990   11990   11989   11992   11991   11989   11992
   11995   11993   11994   11994   11993   11996   11995   11993   11996
   11999   11997   11998   11998   11997   12000   11999   11997   12000
   12003   12001   12002   12002   12001   12004   12003   12001   12004
   12007   12005   12006   12006   12005   12008   12007   12005   12008
   12011   12009   12010   12010   12009   12012   12011   12009   12012
   12015   12013   12014   12014   12013   12016   12015   12013   12016
   12019   12017   12018   12018   12017   12020   12019   12017   12020
   12023   12021   12022   12022   12021   12024   12023   12021   12024
   12027   12025   12026   12026   12025   12028   12027   12025   12028
   12031   12029   12030   12030   12029   12032   12031   12029   12032
   12035   12033   12034   12034   12033   12036   12035   12033   12036
   12039   12037   12038   12038   12037   12040   12039   12037   12040
   12043   12041   12042   12042   12041   12044   12043   12041   12044
   12047   12045   12046   12046   12045   12048   12047   12045   12048
   12051   12049   12050   12050   12049   12052   12051   12049   12052
   12055   12053   12054   12054   12053   12056   12055   12053   12056
   12059   12057   12058   12058   12057   12060   12059   12057   12060
   12063   12061   12062   12062   12061   12064   12063   12061   12064
   12067   12065   12066   12066   12065   12068   12067   12065   12068
   12071   12069   12070   12070   12069   12072   12071   12069   12072
   12075   12073   12074   12074   12073   12076   12075   12073   12076
   12079   12077   12078   12078   12077   12080   12079   12077   12080
   12083   12081   12082   12082   12081   12084   12083   12081   12084
   12087   12085   12086   12086   12085   12088   12087   12085   12088
   12091   12089   12090   12090   12089   12092   12091   12089   12092
   12095   12093   12094   12094   12093   12096   12095   12093   12096
   12099   12097   12098   12098   12097   12100   12099   12097   12100
   12103   12101   12102   12102   12101   12104   12103   12101   12104
   12107   12105   12106   12106   12105   12108   12107   12105   12108
   12111   12109   12110   12110   12109   12112   12111   12109   12112
   12115   12113   12114   12114   12113   12116   12115   12113   12116
   12119   12117   12118   12118   12117   12120   12119   12117   12120
   12123   12121   12122   12122   12121   12124   12123   12121   12124
   12127   12125   12126   12126   12125   12128   12127   12125   12128
   12131   12129   12130   12130   12129   12132   12131   12129   12132
   12135   12133   12134   12134   12133   12136   12135   12133   12136
   12139   12137   12138   12138   12137   12140   12139   12137   12140
   12143   12141   12142   12142   12141   12144   12143   12141   12144
   12147   12145   12146   12146   12145   12148   12147   12145   12148
   12151   12149   12150   12150   12149   12152   12151   12149   12152
   12155   12153   12154   12154   12153   12156   12155   12153   12156
   12159   12157   12158   12158   12157   12160   12159   12157   12160
   12163   12161   12162   12162   12161   12164   12163   12161   12164
   12167   12165   12166   12166   12165   12168   12167   12165   12168
   12171   12169   12170   12170   12169   12172   12171   12169   12172
   12175   12173   12174   12174   12173   12176   12175   12173   12176
   12179   12177   12178   12178   12177   12180   12179   12177   12180
   12183   12181   12182   12182   12181   12184   12183   12181   12184
   12187   12185   12186   12186   12185   12188   12187   12185   12188
   12191   12189   12190   12190   12189   12192   12191   12189   12192
   12195   12193   12194   12194   12193   12196   12195   12193   12196
   12199   12197   12198   12198   12197   12200   12199   12197   12200
   12203   12201   12202   12202   12201   12204   12203   12201   12204
   12207   12205   12206   12206   12205   12208   12207   12205   12208
   12211   12209   12210   12210   12209   12212   12211   12209   12212
   12215   12213   12214   12214   12213   12216   12215   12213   12216
   12219   12217   12218   12218   12217   12220   12219   12217   12220
   12223   12221   12222   12222   12221   12224   12223   12221   12224
   12227   12225   12226   12226   12225   12228   12227   12225   12228
   12231   12229   12230   12230   12229   12232   12231   12229   12232
   12235   12233   12234   12234   12233   12236   12235   12233   12236
   12239   12237   12238   12238   12237   12240   12239   12237   12240
   12243   12241   12242   12242   12241   12244   12243   12241   12244
   12247   12245   12246   12246   12245   12248   12247   12245   12248
   12251   12249   12250   12250   12249   12252   12251   12249   12252
   12255   12253   12254   12254   12253   12256   12255   12253   12256
   12259   12257   12258   12258   12257   12260   12259   12257   12260
   12263   12261   12262   12262   12261   12264   12263   12261   12264
   12267   12265   12266   12266   12265   12268   12267   12265   12268
   12271   12269   12270   12270   12269   12272   12271   12269   12272
   12275   12273   12274   12274   12273   12276   12275   12273   12276
   12279   12277   12278   12278   12277   12280   12279   12277   12280
   12283   12281   12282   12282   12281   12284   12283   12281   12284
   12287   12285   12286   12286   12285   12288   12287   12285   12288
   12291   12289   12290   12290   12289   12292   12291   12289   12292
   12295   12293   12294   12294   12293   12296   12295   12293   12296
   12299   12297   12298   12298   12297   12300   12299   12297   12300
   12303   12301   12302   12302   12301   12304   12303   12301   12304
   12307   12305   12306   12306   12305   12308   12307   12305   12308
   12311   12309   12310   12310   12309   12312   12311   12309   12312
   12315   12313   12314   12314   12313   12316   12315   12313   12316
   12319   12317   12318   12318   12317   12320   12319   12317   12320
   12323   12321   12322   12322   12321   12324   12323   12321   12324
   12327   12325   12326   12326   12325   12328   12327   12325   12328
   12331   12329   12330   12330   12329   12332   12331   12329   12332
   12335   12333   12334   12334   12333   12336   12335   12333   12336
   12339   12337   12338   12338   12337   12340   12339   12337   12340
   12343   12341   12342   12342   12341   12344   12343   12341   12344
   12347   12345   12346   12346   12345   12348   12347   12345   12348
   12351   12349   12350   12350   12349   12352   12351   12349   12352
   12355   12353   12354   12354   12353   12356   12355   12353   12356
   12359   12357   12358   12358   12357   12360   12359   12357   12360
   12363   12361   12362   12362   12361   12364   12363   12361   12364
   12367   12365   12366   12366   12365   12368   12367   12365   12368
   12371   12369   12370   12370   12369   12372   12371   12369   12372
   12375   12373   12374   12374   12373   12376   12375   12373   12376
   12379   12377   12378   12378   12377   12380   12379   12377   12380
   12383   12381   12382   12382   12381   12384   12383   12381   12384
   12387   12385   12386   12386   12385   12388   12387   12385   12388
   12391   12389   12390   12390   12389   12392   12391   12389   12392
   12395   12393   12394   12394   12393   12396   12395   12393   12396
   12399   12397   12398   12398   12397   12400   12399   12397   12400
   12403   12401   12402   12402   12401   12404   12403   12401   12404
   12407   12405   12406   12406   12405   12408   12407   12405   12408
   12411   12409   12410   12410   12409   12412   12411   12409   12412
   12415   12413   12414   12414   12413   12416   12415   12413   12416
   12419   12417   12418   12418   12417   12420   12419   12417   12420
   12423   12421   12422   12422   12421   12424   12423   12421   12424
   12427   12425   12426   12426   12425   12428   12427   12425   12428
   12431   12429   12430   12430   12429   12432   12431   12429   12432
   12435   12433   12434   12434   12433   12436   12435   12433   12436
   12439   12437   12438   12438   12437   12440   12439   12437   12440
   12443   12441   12442   12442   12441   12444   12443   12441   12444
   12447   12445   12446   12446   12445   12448   12447   12445   12448
   12451   12449   12450   12450   12449   12452   12451   12449   12452
   12455   12453   12454   12454   12453   12456   12455   12453   12456
   12459   12457   12458   12458   12457   12460   12459   12457   12460
   12463   12461   12462   12462   12461   12464   12463   12461   12464
   12467   12465   12466   12466   12465   12468   12467   12465   12468
   12471   12469   12470   12470   12469   12472   12471   12469   12472
   12475   12473   12474   12474   12473   12476   12475   12473   12476
   12479   12477   12478   12478   12477   12480   12479   12477   12480
   12483   12481   12482   12482   12481   12484   12483   12481   12484
   12487   12485   12486   12486   12485   12488   12487   12485   12488
   12491   12489   12490   12490   12489   12492   12491   12489   12492
   12495   12493   12494   12494   12493   12496   12495   12493   12496
   12499   12497   12498   12498   12497   12500   12499   12497   12500
   12503   12501   12502   12502   12501   12504   12503   12501   12504
   12507   12505   12506   12506   12505   12508   12507   12505   12508
   12511   12509   12510   12510   12509   12512   12511   12509   12512
   12515   12513   12514   12514   12513   12516   12515   12513   12516
   12519   12517   12518   12518   12517   12520   12519   12517   12520
   12523   12521   12522   12522   12521   12524   12523   12521   12524
   12527   12525   12526   12526   12525   12528   12527   12525   12528
   12531   12529   12530   12530   12529   12532   12531   12529   12532
   12535   12533   12534   12534   12533   12536   12535   12533   12536
   12539   12537   12538   12538   12537   12540   12539   12537   12540
   12543   12541   12542   12542   12541   12544   12543   12541   12544
   12547   12545   12546   12546   12545   12548   12547   12545   12548
   12551   12549   12550   12550   12549   12552   12551   12549   12552
   12555   12553   12554   12554   12553   12556   12555   12553   12556
   12559   12557   12558   12558   12557   12560   12559   12557   12560
   12563   12561   12562   12562   12561   12564   12563   12561   12564
   12567   12565   12566   12566   12565   12568   12567   12565   12568
   12571   12569   12570   12570   12569   12572   12571   12569   12572
   12575   12573   12574   12574   12573   12576   12575   12573   12576
   12579   12577   12578   12578   12577   12580   12579   12577   12580
   12583   12581   12582   12582   12581   12584   12583   12581   12584
   12587   12585   12586   12586   12585   12588   12587   12585   12588
   12591   12589   12590   12590   12589   12592   12591   12589   12592
   12595   12593   12594   12594   12593   12596   12595   12593   12596
   12599   12597   12598   12598   12597   12600   12599   12597   12600
   12603   12601   12602   12602   12601   12604   12603   12601   12604
   12607   12605   12606   12606   12605   12608   12607   12605   12608
   12611   12609   12610   12610   12609   12612   12611   12609   12612
   12615   12613   12614   12614   12613   12616   12615   12613   12616
   12619   12617   12618   12618   12617   12620   12619   12617   12620
   12623   12621   12622   12622   12621   12624   12623   12621   12624
   12627   12625   12626   12626   12625   12628   12627   12625   12628
   12631   12629   12630   12630   12629   12632   12631   12629   12632
   12635   12633   12634   12634   12633   12636   12635   12633   12636
   12639   12637   12638   12638   12637   12640   12639   12637   12640
   12643   12641   12642   12642   12641   12644   12643   12641   12644
   12647   12645   12646   12646   12645   12648   12647   12645   12648
   12651   12649   12650   12650   12649   12652   12651   12649   12652
   12655   12653   12654   12654   12653   12656   12655   12653   12656
   12659   12657   12658   12658   12657   12660   12659   12657   12660
   12663   12661   12662   12662   12661   12664   12663   12661   12664
   12667   12665   12666   12666   12665   12668   12667   12665   12668
   12671   12669   12670   12670   12669   12672   12671   12669   12672
   12675   12673   12674   12674   12673   12676   12675   12673   12676
   12679   12677   12678   12678   12677   12680   12679   12677   12680
   12683   12681   12682   12682   12681   12684   12683   12681   12684
   12687   12685   12686   12686   12685   12688   12687   12685   12688
   12691   12689   12690   12690   12689   12692   12691   12689   12692
   12695   12693   12694   12694   12693   12696   12695   12693   12696
   12699   12697   12698   12698   12697   12700   12699   12697   12700
   12703   12701   12702   12702   12701   12704   12703   12701   12704
   12707   12705   12706   12706   12705   12708   12707   12705   12708
   12711   12709   12710   12710   12709   12712   12711   12709   12712
   12715   12713   12714   12714   12713   12716   12715   12713   12716
   12719   12717   12718   12718   12717   12720   12719   12717   12720
   12723   12721   12722   12722   12721   12724   12723   12721   12724
   12727   12725   12726   12726   12725   12728   12727   12725   12728
   12731   12729   12730   12730   12729   12732   12731   12729   12732
   12735   12733   12734   12734   12733   12736   12735   12733   12736
   12739   12737   12738   12738   12737   12740   12739   12737   12740
   12743   12741   12742   12742   12741   12744   12743   12741   12744
   12747   12745   12746   12746   12745   12748   12747   12745   12748
   12751   12749   12750   12750   12749   12752   12751   12749   12752
   12755   12753   12754   12754   12753   12756   12755   12753   12756
   12759   12757   12758   12758   12757   12760   12759   12757   12760
   12763   12761   12762   12762   12761   12764   12763   12761   12764
   12767   12765   12766   12766   12765   12768   12767   12765   12768
   12771   12769   12770   12770   12769   12772   12771   12769   12772
   12775   12773   12774   12774   12773   12776   12775   12773   12776
   12779   12777   12778   12778   12777   12780   12779   12777   12780
   12783   12781   12782   12782   12781   12784   12783   12781   12784
   12787   12785   12786   12786   12785   12788   12787   12785   12788
   12791   12789   12790   12790   12789   12792   12791   12789   12792
   12795   12793   12794   12794   12793   12796   12795   12793   12796
   12799   12797   12798   12798   12797   12800   12799   12797   12800
   12803   12801   12802   12802   12801   12804   12803   12801   12804
   12807   12805   12806   12806   12805   12808   12807   12805   12808
   12811   12809   12810   12810   12809   12812   12811   12809   12812
   12815   12813   12814   12814   12813   12816   12815   12813   12816
   12819   12817   12818   12818   12817   12820   12819   12817   12820
   12823   12821   12822   12822   12821   12824   12823   12821   12824
   12827   12825   12826   12826   12825   12828   12827   12825   12828
   12831   12829   12830   12830   12829   12832   12831   12829   12832
   12835   12833   12834   12834   12833   12836   12835   12833   12836
   12839   12837   12838   12838   12837   12840   12839   12837   12840
   12843   12841   12842   12842   12841   12844   12843   12841   12844
   12847   12845   12846   12846   12845   12848   12847   12845   12848
   12851   12849   12850   12850   12849   12852   12851   12849   12852
   12855   12853   12854   12854   12853   12856   12855   12853   12856
   12859   12857   12858   12858   12857   12860   12859   12857   12860
   12863   12861   12862   12862   12861   12864   12863   12861   12864
   12867   12865   12866   12866   12865   12868   12867   12865   12868
   12871   12869   12870   12870   12869   12872   12871   12869   12872
   12875   12873   12874   12874   12873   12876   12875   12873   12876
   12879   12877   12878   12878   12877   12880   12879   12877   12880
   12883   12881   12882   12882   12881   12884   12883   12881   12884
   12887   12885   12886   12886   12885   12888   12887   12885   12888
   12891   12889   12890   12890   12889   12892   12891   12889   12892
   12895   12893   12894   12894   12893   12896   12895   12893   12896
   12899   12897   12898   12898   12897   12900   12899   12897   12900
   12903   12901   12902   12902   12901   12904   12903   12901   12904
   12907   12905   12906   12906   12905   12908   12907   12905   12908
   12911   12909   12910   12910   12909   12912   12911   12909   12912
   12915   12913   12914   12914   12913   12916   12915   12913   12916
   12919   12917   12918   12918   12917   12920   12919   12917   12920
   12923   12921   12922   12922   12921   12924   12923   12921   12924
   12927   12925   12926   12926   12925   12928   12927   12925   12928
   12931   12929   12930   12930   12929   12932   12931   12929   12932
   12935   12933   12934   12934   12933   12936   12935   12933   12936
   12939   12937   12938   12938   12937   12940   12939   12937   12940
   12943   12941   12942   12942   12941   12944   12943   12941   12944
   12947   12945   12946   12946   12945   12948   12947   12945   12948
   12951   12949   12950   12950   12949   12952   12951   12949   12952
   12955   12953   12954   12954   12953   12956   12955   12953   12956
   12959   12957   12958   12958   12957   12960   12959   12957   12960
   12963   12961   12962   12962   12961   12964   12963   12961   12964
   12967   12965   12966   12966   12965   12968   12967   12965   12968
   12971   12969   12970   12970   12969   12972   12971   12969   12972
   12975   12973   12974   12974   12973   12976   12975   12973   12976
   12979   12977   12978   12978   12977   12980   12979   12977   12980
   12983   12981   12982   12982   12981   12984   12983   12981   12984
   12987   12985   12986   12986   12985   12988   12987   12985   12988
   12991   12989   12990   12990   12989   12992   12991   12989   12992
   12995   12993   12994   12994   12993   12996   12995   12993   12996
   12999   12997   12998   12998   12997   13000   12999   12997   13000
   13003   13001   13002   13002   13001   13004   13003   13001   13004
   13007   13005   13006   13006   13005   13008   13007   13005   13008
   13011   13009   13010   13010   13009   13012   13011   13009   13012
   13015   13013   13014   13014   13013   13016   13015   13013   13016
   13019   13017   13018   13018   13017   13020   13019   13017   13020
   13023   13021   13022   13022   13021   13024   13023   13021   13024
   13027   13025   13026   13026   13025   13028   13027   13025   13028
   13031   13029   13030   13030   13029   13032   13031   13029   13032
   13035   13033   13034   13034   13033   13036   13035   13033   13036
   13039   13037   13038   13038   13037   13040   13039   13037   13040
   13043   13041   13042   13042   13041   13044   13043   13041   13044
   13047   13045   13046   13046   13045   13048   13047   13045   13048
   13051   13049   13050   13050   13049   13052   13051   13049   13052
   13055   13053   13054   13054   13053   13056   13055   13053   13056
   13059   13057   13058   13058   13057   13060   13059   13057   13060
   13063   13061   13062   13062   13061   13064   13063   13061   13064
   13067   13065   13066   13066   13065   13068   13067   13065   13068
   13071   13069   13070   13070   13069   13072   13071   13069   13072
   13075   13073   13074   13074   13073   13076   13075   13073   13076
   13079   13077   13078   13078   13077   13080   13079   13077   13080
   13083   13081   13082   13082   13081   13084   13083   13081   13084
   13087   13085   13086   13086   13085   13088   13087   13085   13088
   13091   13089   13090   13090   13089   13092   13091   13089   13092
   13095   13093   13094   13094   13093   13096   13095   13093   13096
   13099   13097   13098   13098   13097   13100   13099   13097   13100
   13103   13101   13102   13102   13101   13104   13103   13101   13104
   13107   13105   13106   13106   13105   13108   13107   13105   13108
   13111   13109   13110   13110   13109   13112   13111   13109   13112
   13115   13113   13114   13114   13113   13116   13115   13113   13116
   13119   13117   13118   13118   13117   13120   13119   13117   13120
   13123   13121   13122   13122   13121   13124   13123   13121   13124
   13127   13125   13126   13126   13125   13128   13127   13125   13128
   13131   13129   13130   13130   13129   13132   13131   13129   13132
   13135   13133   13134   13134   13133   13136   13135   13133   13136
   13139   13137   13138   13138   13137   13140   13139   13137   13140
   13143   13141   13142   13142   13141   13144   13143   13141   13144
   13147   13145   13146   13146   13145   13148   13147   13145   13148
   13151   13149   13150   13150   13149   13152   13151   13149   13152
   13155   13153   13154   13154   13153   13156   13155   13153   13156
   13159   13157   13158   13158   13157   13160   13159   13157   13160
   13163   13161   13162   13162   13161   13164   13163   13161   13164
   13167   13165   13166   13166   13165   13168   13167   13165   13168
   13171   13169   13170   13170   13169   13172   13171   13169   13172
   13175   13173   13174   13174   13173   13176   13175   13173   13176
   13179   13177   13178   13178   13177   13180   13179   13177   13180
   13183   13181   13182   13182   13181   13184   13183   13181   13184
   13187   13185   13186   13186   13185   13188   13187   13185   13188
   13191   13189   13190   13190   13189   13192   13191   13189   13192
   13195   13193   13194   13194   13193   13196   13195   13193   13196
   13199   13197   13198   13198   13197   13200   13199   13197   13200
   13203   13201   13202   13202   13201   13204   13203   13201   13204
   13207   13205   13206   13206   13205   13208   13207   13205   13208
   13211   13209   13210   13210   13209   13212   13211   13209   13212
   13215   13213   13214   13214   13213   13216   13215   13213   13216
   13219   13217   13218   13218   13217   13220   13219   13217   13220
   13223   13221   13222   13222   13221   13224   13223   13221   13224
   13227   13225   13226   13226   13225   13228   13227   13225   13228
   13231   13229   13230   13230   13229   13232   13231   13229   13232
   13235   13233   13234   13234   13233   13236   13235   13233   13236
   13239   13237   13238   13238   13237   13240   13239   13237   13240
   13243   13241   13242   13242   13241   13244   13243   13241   13244
   13247   13245   13246   13246   13245   13248   13247   13245   13248
   13251   13249   13250   13250   13249   13252   13251   13249   13252
   13255   13253   13254   13254   13253   13256   13255   13253   13256
   13259   13257   13258   13258   13257   13260   13259   13257   13260
   13263   13261   13262   13262   13261   13264   13263   13261   13264
   13267   13265   13266   13266   13265   13268   13267   13265   13268
   13271   13269   13270   13270   13269   13272   13271   13269   13272
   13275   13273   13274   13274   13273   13276   13275   13273   13276
   13279   13277   13278   13278   13277   13280   13279   13277   13280
   13283   13281   13282   13282   13281   13284   13283   13281   13284
   13287   13285   13286   13286   13285   13288   13287   13285   13288
   13291   13289   13290   13290   13289   13292   13291   13289   13292
   13295   13293   13294   13294   13293   13296   13295   13293   13296
   13299   13297   13298   13298   13297   13300   13299   13297   13300
   13303   13301   13302   13302   13301   13304   13303   13301   13304
   13307   13305   13306   13306   13305   13308   13307   13305   13308
   13311   13309   13310   13310   13309   13312   13311   13309   13312
   13315   13313   13314   13314   13313   13316   13315   13313   13316
   13319   13317   13318   13318   13317   13320   13319   13317   13320
   13323   13321   13322   13322   13321   13324   13323   13321   13324
   13327   13325   13326   13326   13325   13328   13327   13325   13328
   13331   13329   13330   13330   13329   13332   13331   13329   13332
   13335   13333   13334   13334   13333   13336   13335   13333   13336
   13339   13337   13338   13338   13337   13340   13339   13337   13340
   13343   13341   13342   13342   13341   13344   13343   13341   13344
   13347   13345   13346   13346   13345   13348   13347   13345   13348
   13351   13349   13350   13350   13349   13352   13351   13349   13352
   13355   13353   13354   13354   13353   13356   13355   13353   13356
   13359   13357   13358   13358   13357   13360   13359   13357   13360
   13363   13361   13362   13362   13361   13364   13363   13361   13364
   13367   13365   13366   13366   13365   13368   13367   13365   13368
   13371   13369   13370   13370   13369   13372   13371   13369   13372
   13375   13373   13374   13374   13373   13376   13375   13373   13376
   13379   13377   13378   13378   13377   13380   13379   13377   13380
   13383   13381   13382   13382   13381   13384   13383   13381   13384
   13387   13385   13386   13386   13385   13388   13387   13385   13388
   13391   13389   13390   13390   13389   13392   13391   13389   13392
   13395   13393   13394   13394   13393   13396   13395   13393   13396
   13399   13397   13398   13398   13397   13400   13399   13397   13400
   13403   13401   13402   13402   13401   13404   13403   13401   13404
   13407   13405   13406   13406   13405   13408   13407   13405   13408
   13411   13409   13410   13410   13409   13412   13411   13409   13412
   13415   13413   13414   13414   13413   13416   13415   13413   13416
   13419   13417   13418   13418   13417   13420   13419   13417   13420
   13423   13421   13422   13422   13421   13424   13423   13421   13424
   13427   13425   13426   13426   13425   13428   13427   13425   13428
   13431   13429   13430   13430   13429   13432   13431   13429   13432
   13435   13433   13434   13434   13433   13436   13435   13433   13436
   13439   13437   13438   13438   13437   13440   13439   13437   13440
   13443   13441   13442   13442   13441   13444   13443   13441   13444
   13447   13445   13446   13446   13445   13448   13447   13445   13448
   13451   13449   13450   13450   13449   13452   13451   13449   13452
   13455   13453   13454   13454   13453   13456   13455   13453   13456
   13459   13457   13458   13458   13457   13460   13459   13457   13460
   13463   13461   13462   13462   13461   13464   13463   13461   13464
   13467   13465   13466   13466   13465   13468   13467   13465   13468
   13471   13469   13470   13470   13469   13472   13471   13469   13472
   13475   13473   13474   13474   13473   13476   13475   13473   13476
   13479   13477   13478   13478   13477   13480   13479   13477   13480
   13483   13481   13482   13482   13481   13484   13483   13481   13484
   13487   13485   13486   13486   13485   13488   13487   13485   13488
   13491   13489   13490   13490   13489   13492   13491   13489   13492
   13495   13493   13494   13494   13493   13496   13495   13493   13496
   13499   13497   13498   13498   13497   13500   13499   13497   13500
   13503   13501   13502   13502   13501   13504   13503   13501   13504
   13507   13505   13506   13506   13505   13508   13507   13505   13508
   13511   13509   13510   13510   13509   13512   13511   13509   13512
   13515   13513   13514   13514   13513   13516   13515   13513   13516
   13519   13517   13518   13518   13517   13520   13519   13517   13520
   13523   13521   13522   13522   13521   13524   13523   13521   13524
   13527   13525   13526   13526   13525   13528   13527   13525   13528
   13531   13529   13530   13530   13529   13532   13531   13529   13532
   13535   13533   13534   13534   13533   13536   13535   13533   13536
   13539   13537   13538   13538   13537   13540   13539   13537   13540
   13543   13541   13542   13542   13541   13544   13543   13541   13544
   13547   13545   13546   13546   13545   13548   13547   13545   13548
   13551   13549   13550   13550   13549   13552   13551   13549   13552
   13555   13553   13554   13554   13553   13556   13555   13553   13556
   13559   13557   13558   13558   13557   13560   13559   13557   13560
   13563   13561   13562   13562   13561   13564   13563   13561   13564
   13567   13565   13566   13566   13565   13568   13567   13565   13568
   13571   13569   13570   13570   13569   13572   13571   13569   13572
   13575   13573   13574   13574   13573   13576   13575   13573   13576
   13579   13577   13578   13578   13577   13580   13579   13577   13580
   13583   13581   13582   13582   13581   13584   13583   13581   13584
   13587   13585   13586   13586   13585   13588   13587   13585   13588
   13591   13589   13590   13590   13589   13592   13591   13589   13592
   13595   13593   13594   13594   13593   13596   13595   13593   13596
   13599   13597   13598   13598   13597   13600   13599   13597   13600
   13603   13601   13602   13602   13601   13604   13603   13601   13604
   13607   13605   13606   13606   13605   13608   13607   13605   13608
   13611   13609   13610   13610   13609   13612   13611   13609   13612
   13615   13613   13614   13614   13613   13616   13615   13613   13616
   13619   13617   13618   13618   13617   13620   13619   13617   13620
   13623   13621   13622   13622   13621   13624   13623   13621   13624
   13627   13625   13626   13626   13625   13628   13627   13625   13628
   13631   13629   13630   13630   13629   13632   13631   13629   13632
   13635   13633   13634   13634   13633   13636   13635   13633   13636
   13639   13637   13638   13638   13637   13640   13639   13637   13640
   13643   13641   13642   13642   13641   13644   13643   13641   13644
   13647   13645   13646   13646   13645   13648   13647   13645   13648
   13651   13649   13650   13650   13649   13652   13651   13649   13652
   13655   13653   13654   13654   13653   13656   13655   13653   13656
   13659   13657   13658   13658   13657   13660   13659   13657   13660
   13663   13661   13662   13662   13661   13664   13663   13661   13664
   13667   13665   13666   13666   13665   13668   13667   13665   13668
   13671   13669   13670   13670   13669   13672   13671   13669   13672
   13675   13673   13674   13674   13673   13676   13675   13673   13676
   13679   13677   13678   13678   13677   13680   13679   13677   13680
   13683   13681   13682   13682   13681   13684   13683   13681   13684
   13687   13685   13686   13686   13685   13688   13687   13685   13688
   13691   13689   13690   13690   13689   13692   13691   13689   13692
   13695   13693   13694   13694   13693   13696   13695   13693   13696
   13699   13697   13698   13698   13697   13700   13699   13697   13700
   13703   13701   13702   13702   13701   13704   13703   13701   13704
   13707   13705   13706   13706   13705   13708   13707   13705   13708
   13711   13709   13710   13710   13709   13712   13711   13709   13712
   13715   13713   13714   13714   13713   13716   13715   13713   13716
   13719   13717   13718   13718   13717   13720   13719   13717   13720
   13723   13721   13722   13722   13721   13724   13723   13721   13724
   13727   13725   13726   13726   13725   13728   13727   13725   13728
   13731   13729   13730   13730   13729   13732   13731   13729   13732
   13735   13733   13734   13734   13733   13736   13735   13733   13736
   13739   13737   13738   13738   13737   13740   13739   13737   13740
   13743   13741   13742   13742   13741   13744   13743   13741   13744
   13747   13745   13746   13746   13745   13748   13747   13745   13748
   13751   13749   13750   13750   13749   13752   13751   13749   13752
   13755   13753   13754   13754   13753   13756   13755   13753   13756
   13759   13757   13758   13758   13757   13760   13759   13757   13760
   13763   13761   13762   13762   13761   13764   13763   13761   13764
   13767   13765   13766   13766   13765   13768   13767   13765   13768
   13771   13769   13770   13770   13769   13772   13771   13769   13772
   13775   13773   13774   13774   13773   13776   13775   13773   13776
   13779   13777   13778   13778   13777   13780   13779   13777   13780
   13783   13781   13782   13782   13781   13784   13783   13781   13784
   13787   13785   13786   13786   13785   13788   13787   13785   13788
   13791   13789   13790   13790   13789   13792   13791   13789   13792
   13795   13793   13794   13794   13793   13796   13795   13793   13796
   13799   13797   13798   13798   13797   13800   13799   13797   13800
   13803   13801   13802   13802   13801   13804   13803   13801   13804
   13807   13805   13806   13806   13805   13808   13807   13805   13808
   13811   13809   13810   13810   13809   13812   13811   13809   13812
   13815   13813   13814   13814   13813   13816   13815   13813   13816
   13819   13817   13818   13818   13817   13820   13819   13817   13820
   13823   13821   13822   13822   13821   13824   13823   13821   13824
   13827   13825   13826   13826   13825   13828   13827   13825   13828
   13831   13829   13830   13830   13829   13832   13831   13829   13832
   13835   13833   13834   13834   13833   13836   13835   13833   13836
   13839   13837   13838   13838   13837   13840   13839   13837   13840
   13843   13841   13842   13842   13841   13844   13843   13841   13844
   13847   13845   13846   13846   13845   13848   13847   13845   13848
   13851   13849   13850   13850   13849   13852   13851   13849   13852
   13855   13853   13854   13854   13853   13856   13855   13853   13856
   13859   13857   13858   13858   13857   13860   13859   13857   13860
   13863   13861   13862   13862   13861   13864   13863   13861   13864
   13867   13865   13866   13866   13865   13868   13867   13865   13868
   13871   13869   13870   13870   13869   13872   13871   13869   13872
   13875   13873   13874   13874   13873   13876   13875   13873   13876
   13879   13877   13878   13878   13877   13880   13879   13877   13880
   13883   13881   13882   13882   13881   13884   13883   13881   13884
   13887   13885   13886   13886   13885   13888   13887   13885   13888
   13891   13889   13890   13890   13889   13892   13891   13889   13892
   13895   13893   13894   13894   13893   13896   13895   13893   13896
   13899   13897   13898   13898   13897   13900   13899   13897   13900
   13903   13901   13902   13902   13901   13904   13903   13901   13904
   13907   13905   13906   13906   13905   13908   13907   13905   13908
   13911   13909   13910   13910   13909   13912   13911   13909   13912
   13915   13913   13914   13914   13913   13916   13915   13913   13916
   13919   13917   13918   13918   13917   13920   13919   13917   13920
   13923   13921   13922   13922   13921   13924   13923   13921   13924
   13927   13925   13926   13926   13925   13928   13927   13925   13928
   13931   13929   13930   13930   13929   13932   13931   13929   13932
   13935   13933   13934   13934   13933   13936   13935   13933   13936
   13939   13937   13938   13938   13937   13940   13939   13937   13940
   13943   13941   13942   13942   13941   13944   13943   13941   13944
   13947   13945   13946   13946   13945   13948   13947   13945   13948
   13951   13949   13950   13950   13949   13952   13951   13949   13952
   13955   13953   13954   13954   13953   13956   13955   13953   13956
   13959   13957   13958   13958   13957   13960   13959   13957   13960
   13963   13961   13962   13962   13961   13964   13963   13961   13964
   13967   13965   13966   13966   13965   13968   13967   13965   13968
   13971   13969   13970   13970   13969   13972   13971   13969   13972
   13975   13973   13974   13974   13973   13976   13975   13973   13976
   13979   13977   13978   13978   13977   13980   13979   13977   13980
   13983   13981   13982   13982   13981   13984   13983   13981   13984
   13987   13985   13986   13986   13985   13988   13987   13985   13988
   13991   13989   13990   13990   13989   13992   13991   13989   13992
   13995   13993   13994   13994   13993   13996   13995   13993   13996
   13999   13997   13998   13998   13997   14000   13999   13997   14000
   14003   14001   14002   14002   14001   14004   14003   14001   14004
   14007   14005   14006   14006   14005   14008   14007   14005   14008
   14011   14009   14010   14010   14009   14012   14011   14009   14012
   14015   14013   14014   14014   14013   14016   14015   14013   14016
   14019   14017   14018   14018   14017   14020   14019   14017   14020
   14023   14021   14022   14022   14021   14024   14023   14021   14024
   14027   14025   14026   14026   14025   14028   14027   14025   14028
   14031   14029   14030   14030   14029   14032   14031   14029   14032
   14035   14033   14034   14034   14033   14036   14035   14033   14036
   14039   14037   14038   14038   14037   14040   14039   14037   14040
   14043   14041   14042   14042   14041   14044   14043   14041   14044
   14047   14045   14046   14046   14045   14048   14047   14045   14048
   14051   14049   14050   14050   14049   14052   14051   14049   14052
   14055   14053   14054   14054   14053   14056   14055   14053   14056
   14059   14057   14058   14058   14057   14060   14059   14057   14060
   14063   14061   14062   14062   14061   14064   14063   14061   14064
   14067   14065   14066   14066   14065   14068   14067   14065   14068
   14071   14069   14070   14070   14069   14072   14071   14069   14072
   14075   14073   14074   14074   14073   14076   14075   14073   14076
   14079   14077   14078   14078   14077   14080   14079   14077   14080
   14083   14081   14082   14082   14081   14084   14083   14081   14084
   14087   14085   14086   14086   14085   14088   14087   14085   14088
   14091   14089   14090   14090   14089   14092   14091   14089   14092
   14095   14093   14094   14094   14093   14096   14095   14093   14096
   14099   14097   14098   14098   14097   14100   14099   14097   14100
   14103   14101   14102   14102   14101   14104   14103   14101   14104
   14107   14105   14106   14106   14105   14108   14107   14105   14108
   14111   14109   14110   14110   14109   14112   14111   14109   14112
   14115   14113   14114   14114   14113   14116   14115   14113   14116
   14119   14117   14118   14118   14117   14120   14119   14117   14120
   14123   14121   14122   14122   14121   14124   14123   14121   14124
   14127   14125   14126   14126   14125   14128   14127   14125   14128
   14131   14129   14130   14130   14129   14132   14131   14129   14132
   14135   14133   14134   14134   14133   14136   14135   14133   14136
   14139   14137   14138   14138   14137   14140   14139   14137   14140
   14143   14141   14142   14142   14141   14144   14143   14141   14144
   14147   14145   14146   14146   14145   14148   14147   14145   14148
   14151   14149   14150   14150   14149   14152   14151   14149   14152
   14155   14153   14154   14154   14153   14156   14155   14153   14156
   14159   14157   14158   14158   14157   14160   14159   14157   14160
   14163   14161   14162   14162   14161   14164   14163   14161   14164
   14167   14165   14166   14166   14165   14168   14167   14165   14168
   14171   14169   14170   14170   14169   14172   14171   14169   14172
   14175   14173   14174   14174   14173   14176   14175   14173   14176
   14179   14177   14178   14178   14177   14180   14179   14177   14180
   14183   14181   14182   14182   14181   14184   14183   14181   14184
   14187   14185   14186   14186   14185   14188   14187   14185   14188
   14191   14189   14190   14190   14189   14192   14191   14189   14192
   14195   14193   14194   14194   14193   14196   14195   14193   14196
   14199   14197   14198   14198   14197   14200   14199   14197   14200
   14203   14201   14202   14202   14201   14204   14203   14201   14204
   14207   14205   14206   14206   14205   14208   14207   14205   14208
   14211   14209   14210   14210   14209   14212   14211   14209   14212
   14215   14213   14214   14214   14213   14216   14215   14213   14216
   14219   14217   14218   14218   14217   14220   14219   14217   14220
   14223   14221   14222   14222   14221   14224   14223   14221   14224
   14227   14225   14226   14226   14225   14228   14227   14225   14228
   14231   14229   14230   14230   14229   14232   14231   14229   14232
   14235   14233   14234   14234   14233   14236   14235   14233   14236
   14239   14237   14238   14238   14237   14240   14239   14237   14240
   14243   14241   14242   14242   14241   14244   14243   14241   14244
   14247   14245   14246   14246   14245   14248   14247   14245   14248
   14251   14249   14250   14250   14249   14252   14251   14249   14252
   14255   14253   14254   14254   14253   14256   14255   14253   14256
   14259   14257   14258   14258   14257   14260   14259   14257   14260
   14263   14261   14262   14262   14261   14264   14263   14261   14264
   14267   14265   14266   14266   14265   14268   14267   14265   14268
   14271   14269   14270   14270   14269   14272   14271   14269   14272
   14275   14273   14274   14274   14273   14276   14275   14273   14276
   14279   14277   14278   14278   14277   14280   14279   14277   14280
   14283   14281   14282   14282   14281   14284   14283   14281   14284
   14287   14285   14286   14286   14285   14288   14287   14285   14288
   14291   14289   14290   14290   14289   14292   14291   14289   14292
   14295   14293   14294   14294   14293   14296   14295   14293   14296
   14299   14297   14298   14298   14297   14300   14299   14297   14300
   14303   14301   14302   14302   14301   14304   14303   14301   14304
   14307   14305   14306   14306   14305   14308   14307   14305   14308
   14311   14309   14310   14310   14309   14312   14311   14309   14312
   14315   14313   14314   14314   14313   14316   14315   14313   14316
   14319   14317   14318   14318   14317   14320   14319   14317   14320
   14323   14321   14322   14322   14321   14324   14323   14321   14324
   14327   14325   14326   14326   14325   14328   14327   14325   14328
   14331   14329   14330   14330   14329   14332   14331   14329   14332
   14335   14333   14334   14334   14333   14336   14335   14333   14336
   14339   14337   14338   14338   14337   14340   14339   14337   14340
   14343   14341   14342   14342   14341   14344   14343   14341   14344
   14347   14345   14346   14346   14345   14348   14347   14345   14348
   14351   14349   14350   14350   14349   14352   14351   14349   14352
   14355   14353   14354   14354   14353   14356   14355   14353   14356
   14359   14357   14358   14358   14357   14360   14359   14357   14360
   14363   14361   14362   14362   14361   14364   14363   14361   14364
   14367   14365   14366   14366   14365   14368   14367   14365   14368
   14371   14369   14370   14370   14369   14372   14371   14369   14372
   14375   14373   14374   14374   14373   14376   14375   14373   14376
   14379   14377   14378   14378   14377   14380   14379   14377   14380
   14383   14381   14382   14382   14381   14384   14383   14381   14384
   14387   14385   14386   14386   14385   14388   14387   14385   14388
   14391   14389   14390   14390   14389   14392   14391   14389   14392
   14395   14393   14394   14394   14393   14396   14395   14393   14396
   14399   14397   14398   14398   14397   14400   14399   14397   14400
   14403   14401   14402   14402   14401   14404   14403   14401   14404
   14407   14405   14406   14406   14405   14408   14407   14405   14408
   14411   14409   14410   14410   14409   14412   14411   14409   14412
   14415   14413   14414   14414   14413   14416   14415   14413   14416
   14419   14417   14418   14418   14417   14420   14419   14417   14420
   14423   14421   14422   14422   14421   14424   14423   14421   14424
   14427   14425   14426   14426   14425   14428   14427   14425   14428
   14431   14429   14430   14430   14429   14432   14431   14429   14432
   14435   14433   14434   14434   14433   14436   14435   14433   14436
   14439   14437   14438   14438   14437   14440   14439   14437   14440
   14443   14441   14442   14442   14441   14444   14443   14441   14444
   14447   14445   14446   14446   14445   14448   14447   14445   14448
   14451   14449   14450   14450   14449   14452   14451   14449   14452
   14455   14453   14454   14454   14453   14456   14455   14453   14456
   14459   14457   14458   14458   14457   14460   14459   14457   14460
   14463   14461   14462   14462   14461   14464   14463   14461   14464
   14467   14465   14466   14466   14465   14468   14467   14465   14468
   14471   14469   14470   14470   14469   14472   14471   14469   14472
   14475   14473   14474   14474   14473   14476   14475   14473   14476
   14479   14477   14478   14478   14477   14480   14479   14477   14480
   14483   14481   14482   14482   14481   14484   14483   14481   14484
   14487   14485   14486   14486   14485   14488   14487   14485   14488
   14491   14489   14490   14490   14489   14492   14491   14489   14492
   14495   14493   14494   14494   14493   14496   14495   14493   14496
   14499   14497   14498   14498   14497   14500   14499   14497   14500
   14503   14501   14502   14502   14501   14504   14503   14501   14504
   14507   14505   14506   14506   14505   14508   14507   14505   14508
   14511   14509   14510   14510   14509   14512   14511   14509   14512
   14515   14513   14514   14514   14513   14516   14515   14513   14516
   14519   14517   14518   14518   14517   14520   14519   14517   14520
   14523   14521   14522   14522   14521   14524   14523   14521   14524
   14527   14525   14526   14526   14525   14528   14527   14525   14528
   14531   14529   14530   14530   14529   14532   14531   14529   14532
   14535   14533   14534   14534   14533   14536   14535   14533   14536
   14539   14537   14538   14538   14537   14540   14539   14537   14540
   14543   14541   14542   14542   14541   14544   14543   14541   14544
   14547   14545   14546   14546   14545   14548   14547   14545   14548
   14551   14549   14550   14550   14549   14552   14551   14549   14552
   14555   14553   14554   14554   14553   14556   14555   14553   14556
   14559   14557   14558   14558   14557   14560   14559   14557   14560
   14563   14561   14562   14562   14561   14564   14563   14561   14564
   14567   14565   14566   14566   14565   14568   14567   14565   14568
   14571   14569   14570   14570   14569   14572   14571   14569   14572
   14575   14573   14574   14574   14573   14576   14575   14573   14576
   14579   14577   14578   14578   14577   14580   14579   14577   14580
   14583   14581   14582   14582   14581   14584   14583   14581   14584
   14587   14585   14586   14586   14585   14588   14587   14585   14588
   14591   14589   14590   14590   14589   14592   14591   14589   14592
   14595   14593   14594   14594   14593   14596   14595   14593   14596
   14599   14597   14598   14598   14597   14600   14599   14597   14600
   14603   14601   14602   14602   14601   14604   14603   14601   14604
   14607   14605   14606   14606   14605   14608   14607   14605   14608
   14611   14609   14610   14610   14609   14612   14611   14609   14612
   14615   14613   14614   14614   14613   14616   14615   14613   14616
   14619   14617   14618   14618   14617   14620   14619   14617   14620
   14623   14621   14622   14622   14621   14624   14623   14621   14624
   14627   14625   14626   14626   14625   14628   14627   14625   14628
   14631   14629   14630   14630   14629   14632   14631   14629   14632
   14635   14633   14634   14634   14633   14636   14635   14633   14636
   14639   14637   14638   14638   14637   14640   14639   14637   14640
   14643   14641   14642   14642   14641   14644   14643   14641   14644
   14647   14645   14646   14646   14645   14648   14647   14645   14648
   14651   14649   14650   14650   14649   14652   14651   14649   14652
   14655   14653   14654   14654   14653   14656   14655   14653   14656
   14659   14657   14658   14658   14657   14660   14659   14657   14660
   14663   14661   14662   14662   14661   14664   14663   14661   14664
   14667   14665   14666   14666   14665   14668   14667   14665   14668
   14671   14669   14670   14670   14669   14672   14671   14669   14672
   14675   14673   14674   14674   14673   14676   14675   14673   14676
   14679   14677   14678   14678   14677   14680   14679   14677   14680
   14683   14681   14682   14682   14681   14684   14683   14681   14684
   14687   14685   14686   14686   14685   14688   14687   14685   14688
   14691   14689   14690   14690   14689   14692   14691   14689   14692
   14695   14693   14694   14694   14693   14696   14695   14693   14696
   14699   14697   14698   14698   14697   14700   14699   14697   14700
   14703   14701   14702   14702   14701   14704   14703   14701   14704
   14707   14705   14706   14706   14705   14708   14707   14705   14708
   14711   14709   14710   14710   14709   14712   14711   14709   14712
   14715   14713   14714   14714   14713   14716   14715   14713   14716
   14719   14717   14718   14718   14717   14720   14719   14717   14720
   14723   14721   14722   14722   14721   14724   14723   14721   14724
   14727   14725   14726   14726   14725   14728   14727   14725   14728
   14731   14729   14730   14730   14729   14732   14731   14729   14732
   14735   14733   14734   14734   14733   14736   14735   14733   14736
   14739   14737   14738   14738   14737   14740   14739   14737   14740
   14743   14741   14742   14742   14741   14744   14743   14741   14744
   14747   14745   14746   14746   14745   14748   14747   14745   14748
   14751   14749   14750   14750   14749   14752   14751   14749   14752
   14755   14753   14754   14754   14753   14756   14755   14753   14756
   14759   14757   14758   14758   14757   14760   14759   14757   14760
   14763   14761   14762   14762   14761   14764   14763   14761   14764
   14767   14765   14766   14766   14765   14768   14767   14765   14768
   14771   14769   14770   14770   14769   14772   14771   14769   14772
   14775   14773   14774   14774   14773   14776   14775   14773   14776
   14779   14777   14778   14778   14777   14780   14779   14777   14780
   14783   14781   14782   14782   14781   14784   14783   14781   14784
   14787   14785   14786   14786   14785   14788   14787   14785   14788
   14791   14789   14790   14790   14789   14792   14791   14789   14792
   14795   14793   14794   14794   14793   14796   14795   14793   14796
   14799   14797   14798   14798   14797   14800   14799   14797   14800
   14803   14801   14802   14802   14801   14804   14803   14801   14804
   14807   14805   14806   14806   14805   14808   14807   14805   14808
   14811   14809   14810   14810   14809   14812   14811   14809   14812
   14815   14813   14814   14814   14813   14816   14815   14813   14816
   14819   14817   14818   14818   14817   14820   14819   14817   14820
   14823   14821   14822   14822   14821   14824   14823   14821   14824
   14827   14825   14826   14826   14825   14828   14827   14825   14828
   14831   14829   14830   14830   14829   14832   14831   14829   14832
   14835   14833   14834   14834   14833   14836   14835   14833   14836
   14839   14837   14838   14838   14837   14840   14839   14837   14840
   14843   14841   14842   14842   14841   14844   14843   14841   14844
   14847   14845   14846   14846   14845   14848   14847   14845   14848
   14851   14849   14850   14850   14849   14852   14851   14849   14852
   14855   14853   14854   14854   14853   14856   14855   14853   14856
   14859   14857   14858   14858   14857   14860   14859   14857   14860
   14863   14861   14862   14862   14861   14864   14863   14861   14864
   14867   14865   14866   14866   14865   14868   14867   14865   14868
   14871   14869   14870   14870   14869   14872   14871   14869   14872
   14875   14873   14874   14874   14873   14876   14875   14873   14876
   14879   14877   14878   14878   14877   14880   14879   14877   14880
   14883   14881   14882   14882   14881   14884   14883   14881   14884
   14887   14885   14886   14886   14885   14888   14887   14885   14888
   14891   14889   14890   14890   14889   14892   14891   14889   14892
   14895   14893   14894   14894   14893   14896   14895   14893   14896
   14899   14897   14898   14898   14897   14900   14899   14897   14900
   14903   14901   14902   14902   14901   14904   14903   14901   14904
   14907   14905   14906   14906   14905   14908   14907   14905   14908
   14911   14909   14910   14910   14909   14912   14911   14909   14912
   14915   14913   14914   14914   14913   14916   14915   14913   14916
   14919   14917   14918   14918   14917   14920   14919   14917   14920
   14923   14921   14922   14922   14921   14924   14923   14921   14924
   14927   14925   14926   14926   14925   14928   14927   14925   14928
   14931   14929   14930   14930   14929   14932   14931   14929   14932
   14935   14933   14934   14934   14933   14936   14935   14933   14936
   14939   14937   14938   14938   14937   14940   14939   14937   14940
   14943   14941   14942   14942   14941   14944   14943   14941   14944
   14947   14945   14946   14946   14945   14948   14947   14945   14948
   14951   14949   14950   14950   14949   14952   14951   14949   14952
   14955   14953   14954   14954   14953   14956   14955   14953   14956
   14959   14957   14958   14958   14957   14960   14959   14957   14960
   14963   14961   14962   14962   14961   14964   14963   14961   14964
   14967   14965   14966   14966   14965   14968   14967   14965   14968
   14971   14969   14970   14970   14969   14972   14971   14969   14972
   14975   14973   14974   14974   14973   14976   14975   14973   14976
   14979   14977   14978   14978   14977   14980   14979   14977   14980
   14983   14981   14982   14982   14981   14984   14983   14981   14984
   14987   14985   14986   14986   14985   14988   14987   14985   14988
   14991   14989   14990   14990   14989   14992   14991   14989   14992
   14995   14993   14994   14994   14993   14996   14995   14993   14996
   14999   14997   14998   14998   14997   15000   14999   14997   15000
   15003   15001   15002   15002   15001   15004   15003   15001   15004
   15007   15005   15006   15006   15005   15008   15007   15005   15008
   15011   15009   15010   15010   15009   15012   15011   15009   15012
   15015   15013   15014   15014   15013   15016   15015   15013   15016
   15019   15017   15018   15018   15017   15020   15019   15017   15020
   15023   15021   15022   15022   15021   15024   15023   15021   15024
   15027   15025   15026   15026   15025   15028   15027   15025   15028
   15031   15029   15030   15030   15029   15032   15031   15029   15032
   15035   15033   15034   15034   15033   15036   15035   15033   15036
   15039   15037   15038   15038   15037   15040   15039   15037   15040
   15043   15041   15042   15042   15041   15044   15043   15041   15044
   15047   15045   15046   15046   15045   15048   15047   15045   15048
   15051   15049   15050   15050   15049   15052   15051   15049   15052
   15055   15053   15054   15054   15053   15056   15055   15053   15056
   15059   15057   15058   15058   15057   15060   15059   15057   15060
   15063   15061   15062   15062   15061   15064   15063   15061   15064
   15067   15065   15066   15066   15065   15068   15067   15065   15068
   15071   15069   15070   15070   15069   15072   15071   15069   15072
   15075   15073   15074   15074   15073   15076   15075   15073   15076
   15079   15077   15078   15078   15077   15080   15079   15077   15080
   15083   15081   15082   15082   15081   15084   15083   15081   15084
   15087   15085   15086   15086   15085   15088   15087   15085   15088
   15091   15089   15090   15090   15089   15092   15091   15089   15092
   15095   15093   15094   15094   15093   15096   15095   15093   15096
   15099   15097   15098   15098   15097   15100   15099   15097   15100
   15103   15101   15102   15102   15101   15104   15103   15101   15104
   15107   15105   15106   15106   15105   15108   15107   15105   15108
   15111   15109   15110   15110   15109   15112   15111   15109   15112
   15115   15113   15114   15114   15113   15116   15115   15113   15116
   15119   15117   15118   15118   15117   15120   15119   15117   15120
   15123   15121   15122   15122   15121   15124   15123   15121   15124
   15127   15125   15126   15126   15125   15128   15127   15125   15128
   15131   15129   15130   15130   15129   15132   15131   15129   15132
   15135   15133   15134   15134   15133   15136   15135   15133   15136
   15139   15137   15138   15138   15137   15140   15139   15137   15140
   15143   15141   15142   15142   15141   15144   15143   15141   15144
   15147   15145   15146   15146   15145   15148   15147   15145   15148
   15151   15149   15150   15150   15149   15152   15151   15149   15152
   15155   15153   15154   15154   15153   15156   15155   15153   15156
   15159   15157   15158   15158   15157   15160   15159   15157   15160
   15163   15161   15162   15162   15161   15164   15163   15161   15164
   15167   15165   15166   15166   15165   15168   15167   15165   15168
   15171   15169   15170   15170   15169   15172   15171   15169   15172
   15175   15173   15174   15174   15173   15176   15175   15173   15176
   15179   15177   15178   15178   15177   15180   15179   15177   15180
   15183   15181   15182   15182   15181   15184   15183   15181   15184
   15187   15185   15186   15186   15185   15188   15187   15185   15188
   15191   15189   15190   15190   15189   15192   15191   15189   15192
   15195   15193   15194   15194   15193   15196   15195   15193   15196
   15199   15197   15198   15198   15197   15200   15199   15197   15200
   15203   15201   15202   15202   15201   15204   15203   15201   15204
   15207   15205   15206   15206   15205   15208   15207   15205   15208
   15211   15209   15210   15210   15209   15212   15211   15209   15212
   15215   15213   15214   15214   15213   15216   15215   15213   15216
   15219   15217   15218   15218   15217   15220   15219   15217   15220
   15223   15221   15222   15222   15221   15224   15223   15221   15224
   15227   15225   15226   15226   15225   15228   15227   15225   15228
   15231   15229   15230   15230   15229   15232   15231   15229   15232
   15235   15233   15234   15234   15233   15236   15235   15233   15236
   15239   15237   15238   15238   15237   15240   15239   15237   15240
   15243   15241   15242   15242   15241   15244   15243   15241   15244
   15247   15245   15246   15246   15245   15248   15247   15245   15248
   15251   15249   15250   15250   15249   15252   15251   15249   15252
   15255   15253   15254   15254   15253   15256   15255   15253   15256
   15259   15257   15258   15258   15257   15260   15259   15257   15260
   15263   15261   15262   15262   15261   15264   15263   15261   15264
   15267   15265   15266   15266   15265   15268   15267   15265   15268
   15271   15269   15270   15270   15269   15272   15271   15269   15272
   15275   15273   15274   15274   15273   15276   15275   15273   15276
   15279   15277   15278   15278   15277   15280   15279   15277   15280
   15283   15281   15282   15282   15281   15284   15283   15281   15284
   15287   15285   15286   15286   15285   15288   15287   15285   15288
   15291   15289   15290   15290   15289   15292   15291   15289   15292
   15295   15293   15294   15294   15293   15296   15295   15293   15296
   15299   15297   15298   15298   15297   15300   15299   15297   15300
   15303   15301   15302   15302   15301   15304   15303   15301   15304
   15307   15305   15306   15306   15305   15308   15307   15305   15308
   15311   15309   15310   15310   15309   15312   15311   15309   15312
   15315   15313   15314   15314   15313   15316   15315   15313   15316
   15319   15317   15318   15318   15317   15320   15319   15317   15320
   15323   15321   15322   15322   15321   15324   15323   15321   15324
   15327   15325   15326   15326   15325   15328   15327   15325   15328
   15331   15329   15330   15330   15329   15332   15331   15329   15332
   15335   15333   15334   15334   15333   15336   15335   15333   15336
   15339   15337   15338   15338   15337   15340   15339   15337   15340
   15343   15341   15342   15342   15341   15344   15343   15341   15344
   15347   15345   15346   15346   15345   15348   15347   15345   15348
   15351   15349   15350   15350   15349   15352   15351   15349   15352
   15355   15353   15354   15354   15353   15356   15355   15353   15356
   15359   15357   15358   15358   15357   15360   15359   15357   15360
   15363   15361   15362   15362   15361   15364   15363   15361   15364
   15367   15365   15366   15366   15365   15368   15367   15365   15368
   15371   15369   15370   15370   15369   15372   15371   15369   15372
   15375   15373   15374   15374   15373   15376   15375   15373   15376
   15379   15377   15378   15378   15377   15380   15379   15377   15380
   15383   15381   15382   15382   15381   15384   15383   15381   15384
   15387   15385   15386   15386   15385   15388   15387   15385   15388
   15391   15389   15390   15390   15389   15392   15391   15389   15392
   15395   15393   15394   15394   15393   15396   15395   15393   15396
   15399   15397   15398   15398   15397   15400   15399   15397   15400
   15403   15401   15402   15402   15401   15404   15403   15401   15404
   15407   15405   15406   15406   15405   15408   15407   15405   15408
   15411   15409   15410   15410   15409   15412   15411   15409   15412
   15415   15413   15414   15414   15413   15416   15415   15413   15416
   15419   15417   15418   15418   15417   15420   15419   15417   15420
   15423   15421   15422   15422   15421   15424   15423   15421   15424
   15427   15425   15426   15426   15425   15428   15427   15425   15428
   15431   15429   15430   15430   15429   15432   15431   15429   15432
   15435   15433   15434   15434   15433   15436   15435   15433   15436
   15439   15437   15438   15438   15437   15440   15439   15437   15440
   15443   15441   15442   15442   15441   15444   15443   15441   15444
   15447   15445   15446   15446   15445   15448   15447   15445   15448
   15451   15449   15450   15450   15449   15452   15451   15449   15452
   15455   15453   15454   15454   15453   15456   15455   15453   15456
   15459   15457   15458   15458   15457   15460   15459   15457   15460
   15463   15461   15462   15462   15461   15464   15463   15461   15464
   15467   15465   15466   15466   15465   15468   15467   15465   15468
   15471   15469   15470   15470   15469   15472   15471   15469   15472
   15475   15473   15474   15474   15473   15476   15475   15473   15476
   15479   15477   15478   15478   15477   15480   15479   15477   15480
   15483   15481   15482   15482   15481   15484   15483   15481   15484
   15487   15485   15486   15486   15485   15488   15487   15485   15488
   15491   15489   15490   15490   15489   15492   15491   15489   15492
   15495   15493   15494   15494   15493   15496   15495   15493   15496
   15499   15497   15498   15498   15497   15500   15499   15497   15500
   15503   15501   15502   15502   15501   15504   15503   15501   15504
   15507   15505   15506   15506   15505   15508   15507   15505   15508
   15511   15509   15510   15510   15509   15512   15511   15509   15512
   15515   15513   15514   15514   15513   15516   15515   15513   15516
   15519   15517   15518   15518   15517   15520   15519   15517   15520
   15523   15521   15522   15522   15521   15524   15523   15521   15524
   15527   15525   15526   15526   15525   15528   15527   15525   15528
   15531   15529   15530   15530   15529   15532   15531   15529   15532
   15535   15533   15534   15534   15533   15536   15535   15533   15536
   15539   15537   15538   15538   15537   15540   15539   15537   15540
   15543   15541   15542   15542   15541   15544   15543   15541   15544
   15547   15545   15546   15546   15545   15548   15547   15545   15548
   15551   15549   15550   15550   15549   15552   15551   15549   15552
   15555   15553   15554   15554   15553   15556   15555   15553   15556
   15559   15557   15558   15558   15557   15560   15559   15557   15560
   15563   15561   15562   15562   15561   15564   15563   15561   15564
   15567   15565   15566   15566   15565   15568   15567   15565   15568
   15571   15569   15570   15570   15569   15572   15571   15569   15572
   15575   15573   15574   15574   15573   15576   15575   15573   15576
   15579   15577   15578   15578   15577   15580   15579   15577   15580
   15583   15581   15582   15582   15581   15584   15583   15581   15584
   15587   15585   15586   15586   15585   15588   15587   15585   15588
   15591   15589   15590   15590   15589   15592   15591   15589   15592
   15595   15593   15594   15594   15593   15596   15595   15593   15596
   15599   15597   15598   15598   15597   15600   15599   15597   15600
   15603   15601   15602   15602   15601   15604   15603   15601   15604
   15607   15605   15606   15606   15605   15608   15607   15605   15608
   15611   15609   15610   15610   15609   15612   15611   15609   15612
   15615   15613   15614   15614   15613   15616   15615   15613   15616
   15619   15617   15618   15618   15617   15620   15619   15617   15620
   15623   15621   15622   15622   15621   15624   15623   15621   15624
   15627   15625   15626   15626   15625   15628   15627   15625   15628
   15631   15629   15630   15630   15629   15632   15631   15629   15632
   15635   15633   15634   15634   15633   15636   15635   15633   15636
   15639   15637   15638   15638   15637   15640   15639   15637   15640
   15643   15641   15642   15642   15641   15644   15643   15641   15644
   15647   15645   15646   15646   15645   15648   15647   15645   15648
   15651   15649   15650   15650   15649   15652   15651   15649   15652
   15655   15653   15654   15654   15653   15656   15655   15653   15656
   15659   15657   15658   15658   15657   15660   15659   15657   15660
   15663   15661   15662   15662   15661   15664   15663   15661   15664
   15667   15665   15666   15666   15665   15668   15667   15665   15668
   15671   15669   15670   15670   15669   15672   15671   15669   15672
   15675   15673   15674   15674   15673   15676   15675   15673   15676
   15679   15677   15678   15678   15677   15680   15679   15677   15680
   15683   15681   15682   15682   15681   15684   15683   15681   15684
   15687   15685   15686   15686   15685   15688   15687   15685   15688
   15691   15689   15690   15690   15689   15692   15691   15689   15692
   15695   15693   15694   15694   15693   15696   15695   15693   15696
   15699   15697   15698   15698   15697   15700   15699   15697   15700
   15703   15701   15702   15702   15701   15704   15703   15701   15704
   15707   15705   15706   15706   15705   15708   15707   15705   15708
   15711   15709   15710   15710   15709   15712   15711   15709   15712
   15715   15713   15714   15714   15713   15716   15715   15713   15716
   15719   15717   15718   15718   15717   15720   15719   15717   15720
   15723   15721   15722   15722   15721   15724   15723   15721   15724
   15727   15725   15726   15726   15725   15728   15727   15725   15728
   15731   15729   15730   15730   15729   15732   15731   15729   15732
   15735   15733   15734   15734   15733   15736   15735   15733   15736
   15739   15737   15738   15738   15737   15740   15739   15737   15740
   15743   15741   15742   15742   15741   15744   15743   15741   15744
   15747   15745   15746   15746   15745   15748   15747   15745   15748
   15751   15749   15750   15750   15749   15752   15751   15749   15752
   15755   15753   15754   15754   15753   15756   15755   15753   15756
   15759   15757   15758   15758   15757   15760   15759   15757   15760
   15763   15761   15762   15762   15761   15764   15763   15761   15764
   15767   15765   15766   15766   15765   15768   15767   15765   15768
   15771   15769   15770   15770   15769   15772   15771   15769   15772
   15775   15773   15774   15774   15773   15776   15775   15773   15776
   15779   15777   15778   15778   15777   15780   15779   15777   15780
   15783   15781   15782   15782   15781   15784   15783   15781   15784
   15787   15785   15786   15786   15785   15788   15787   15785   15788
   15791   15789   15790   15790   15789   15792   15791   15789   15792
   15795   15793   15794   15794   15793   15796   15795   15793   15796
   15799   15797   15798   15798   15797   15800   15799   15797   15800
   15803   15801   15802   15802   15801   15804   15803   15801   15804
   15807   15805   15806   15806   15805   15808   15807   15805   15808
   15811   15809   15810   15810   15809   15812   15811   15809   15812
   15815   15813   15814   15814   15813   15816   15815   15813   15816
   15819   15817   15818   15818   15817   15820   15819   15817   15820
   15823   15821   15822   15822   15821   15824   15823   15821   15824
   15827   15825   15826   15826   15825   15828   15827   15825   15828
   15831   15829   15830   15830   15829   15832   15831   15829   15832
   15835   15833   15834   15834   15833   15836   15835   15833   15836
   15839   15837   15838   15838   15837   15840   15839   15837   15840
   15843   15841   15842   15842   15841   15844   15843   15841   15844
   15847   15845   15846   15846   15845   15848   15847   15845   15848
   15851   15849   15850   15850   15849   15852   15851   15849   15852
   15855   15853   15854   15854   15853   15856   15855   15853   15856
   15859   15857   15858   15858   15857   15860   15859   15857   15860
   15863   15861   15862   15862   15861   15864   15863   15861   15864
   15867   15865   15866   15866   15865   15868   15867   15865   15868
   15871   15869   15870   15870   15869   15872   15871   15869   15872
   15875   15873   15874   15874   15873   15876   15875   15873   15876
   15879   15877   15878   15878   15877   15880   15879   15877   15880
   15883   15881   15882   15882   15881   15884   15883   15881   15884
   15887   15885   15886   15886   15885   15888   15887   15885   15888
   15891   15889   15890   15890   15889   15892   15891   15889   15892
   15895   15893   15894   15894   15893   15896   15895   15893   15896
   15899   15897   15898   15898   15897   15900   15899   15897   15900
   15903   15901   15902   15902   15901   15904   15903   15901   15904
   15907   15905   15906   15906   15905   15908   15907   15905   15908
   15911   15909   15910   15910   15909   15912   15911   15909   15912
   15915   15913   15914   15914   15913   15916   15915   15913   15916
   15919   15917   15918   15918   15917   15920   15919   15917   15920
   15923   15921   15922   15922   15921   15924   15923   15921   15924
   15927   15925   15926   15926   15925   15928   15927   15925   15928
   15931   15929   15930   15930   15929   15932   15931   15929   15932
   15935   15933   15934   15934   15933   15936   15935   15933   15936
   15939   15937   15938   15938   15937   15940   15939   15937   15940
   15943   15941   15942   15942   15941   15944   15943   15941   15944
   15947   15945   15946   15946   15945   15948   15947   15945   15948
   15951   15949   15950   15950   15949   15952   15951   15949   15952
   15955   15953   15954   15954   15953   15956   15955   15953   15956
   15959   15957   15958   15958   15957   15960   15959   15957   15960
   15963   15961   15962   15962   15961   15964   15963   15961   15964
   15967   15965   15966   15966   15965   15968   15967   15965   15968
   15971   15969   15970   15970   15969   15972   15971   15969   15972
   15975   15973   15974   15974   15973   15976   15975   15973   15976
   15979   15977   15978   15978   15977   15980   15979   15977   15980
   15983   15981   15982   15982   15981   15984   15983   15981   15984
   15987   15985   15986   15986   15985   15988   15987   15985   15988
   15991   15989   15990   15990   15989   15992   15991   15989   15992
   15995   15993   15994   15994   15993   15996   15995   15993   15996
   15999   15997   15998   15998   15997   16000   15999   15997   16000
   16003   16001   16002   16002   16001   16004   16003   16001   16004
   16007   16005   16006   16006   16005   16008   16007   16005   16008
   16011   16009   16010   16010   16009   16012   16011   16009   16012
   16015   16013   16014   16014   16013   16016   16015   16013   16016
   16019   16017   16018   16018   16017   16020   16019   16017   16020
   16023   16021   16022   16022   16021   16024   16023   16021   16024
   16027   16025   16026   16026   16025   16028   16027   16025   16028
   16031   16029   16030   16030   16029   16032   16031   16029   16032
   16035   16033   16034   16034   16033   16036   16035   16033   16036
   16039   16037   16038   16038   16037   16040   16039   16037   16040
   16043   16041   16042   16042   16041   16044   16043   16041   16044
   16047   16045   16046   16046   16045   16048   16047   16045   16048
   16051   16049   16050   16050   16049   16052   16051   16049   16052
   16055   16053   16054   16054   16053   16056   16055   16053   16056
   16059   16057   16058   16058   16057   16060   16059   16057   16060
   16063   16061   16062   16062   16061   16064   16063   16061   16064
   16067   16065   16066   16066   16065   16068   16067   16065   16068
   16071   16069   16070   16070   16069   16072   16071   16069   16072
   16075   16073   16074   16074   16073   16076   16075   16073   16076
   16079   16077   16078   16078   16077   16080   16079   16077   16080
   16083   16081   16082   16082   16081   16084   16083   16081   16084
   16087   16085   16086   16086   16085   16088   16087   16085   16088
   16091   16089   16090   16090   16089   16092   16091   16089   16092
   16095   16093   16094   16094   16093   16096   16095   16093   16096
   16099   16097   16098   16098   16097   16100   16099   16097   16100
   16103   16101   16102   16102   16101   16104   16103   16101   16104
   16107   16105   16106   16106   16105   16108   16107   16105   16108
   16111   16109   16110   16110   16109   16112   16111   16109   16112
   16115   16113   16114   16114   16113   16116   16115   16113   16116
   16119   16117   16118   16118   16117   16120   16119   16117   16120
   16123   16121   16122   16122   16121   16124   16123   16121   16124
   16127   16125   16126   16126   16125   16128   16127   16125   16128
   16131   16129   16130   16130   16129   16132   16131   16129   16132
   16135   16133   16134   16134   16133   16136   16135   16133   16136
   16139   16137   16138   16138   16137   16140   16139   16137   16140
   16143   16141   16142   16142   16141   16144   16143   16141   16144
   16147   16145   16146   16146   16145   16148   16147   16145   16148
   16151   16149   16150   16150   16149   16152   16151   16149   16152
   16155   16153   16154   16154   16153   16156   16155   16153   16156
   16159   16157   16158   16158   16157   16160   16159   16157   16160
   16163   16161   16162   16162   16161   16164   16163   16161   16164
   16167   16165   16166   16166   16165   16168   16167   16165   16168
   16171   16169   16170   16170   16169   16172   16171   16169   16172
   16175   16173   16174   16174   16173   16176   16175   16173   16176
   16179   16177   16178   16178   16177   16180   16179   16177   16180
   16183   16181   16182   16182   16181   16184   16183   16181   16184
   16187   16185   16186   16186   16185   16188   16187   16185   16188
   16191   16189   16190   16190   16189   16192   16191   16189   16192
   16195   16193   16194   16194   16193   16196   16195   16193   16196
   16199   16197   16198   16198   16197   16200   16199   16197   16200
   16203   16201   16202   16202   16201   16204   16203   16201   16204
   16207   16205   16206   16206   16205   16208   16207   16205   16208
   16211   16209   16210   16210   16209   16212   16211   16209   16212
   16215   16213   16214   16214   16213   16216   16215   16213   16216
   16219   16217   16218   16218   16217   16220   16219   16217   16220
   16223   16221   16222   16222   16221   16224   16223   16221   16224
   16227   16225   16226   16226   16225   16228   16227   16225   16228
   16231   16229   16230   16230   16229   16232   16231   16229   16232
   16235   16233   16234   16234   16233   16236   16235   16233   16236
   16239   16237   16238   16238   16237   16240   16239   16237   16240
   16243   16241   16242   16242   16241   16244   16243   16241   16244
   16247   16245   16246   16246   16245   16248   16247   16245   16248
   16251   16249   16250   16250   16249   16252   16251   16249   16252
   16255   16253   16254   16254   16253   16256   16255   16253   16256
   16259   16257   16258   16258   16257   16260   16259   16257   16260
   16263   16261   16262   16262   16261   16264   16263   16261   16264
   16267   16265   16266   16266   16265   16268   16267   16265   16268
   16271   16269   16270   16270   16269   16272   16271   16269   16272
   16275   16273   16274   16274   16273   16276   16275   16273   16276
   16279   16277   16278   16278   16277   16280   16279   16277   16280
   16283   16281   16282   16282   16281   16284   16283   16281   16284
   16287   16285   16286   16286   16285   16288   16287   16285   16288
   16291   16289   16290   16290   16289   16292   16291   16289   16292
   16295   16293   16294   16294   16293   16296   16295   16293   16296
   16299   16297   16298   16298   16297   16300   16299   16297   16300
   16303   16301   16302   16302   16301   16304   16303   16301   16304
   16307   16305   16306   16306   16305   16308   16307   16305   16308
   16311   16309   16310   16310   16309   16312   16311   16309   16312
   16315   16313   16314   16314   16313   16316   16315   16313   16316
   16319   16317   16318   16318   16317   16320   16319   16317   16320
   16323   16321   16322   16322   16321   16324   16323   16321   16324
   16327   16325   16326   16326   16325   16328   16327   16325   16328
   16331   16329   16330   16330   16329   16332   16331   16329   16332
   16335   16333   16334   16334   16333   16336   16335   16333   16336
   16339   16337   16338   16338   16337   16340   16339   16337   16340
   16343   16341   16342   16342   16341   16344   16343   16341   16344
   16347   16345   16346   16346   16345   16348   16347   16345   16348
   16351   16349   16350   16350   16349   16352   16351   16349   16352
   16355   16353   16354   16354   16353   16356   16355   16353   16356
   16359   16357   16358   16358   16357   16360   16359   16357   16360
   16363   16361   16362   16362   16361   16364   16363   16361   16364
   16367   16365   16366   16366   16365   16368   16367   16365   16368
   16371   16369   16370   16370   16369   16372   16371   16369   16372
   16375   16373   16374   16374   16373   16376   16375   16373   16376
   16379   16377   16378   16378   16377   16380   16379   16377   16380
   16383   16381   16382   16382   16381   16384   16383   16381   16384
   16387   16385   16386   16386   16385   16388   16387   16385   16388
   16391   16389   16390   16390   16389   16392   16391   16389   16392
   16395   16393   16394   16394   16393   16396   16395   16393   16396
   16399   16397   16398   16398   16397   16400   16399   16397   16400
   16403   16401   16402   16402   16401   16404   16403   16401   16404
   16407   16405   16406   16406   16405   16408   16407   16405   16408
   16411   16409   16410   16410   16409   16412   16411   16409   16412
   16415   16413   16414   16414   16413   16416   16415   16413   16416
   16419   16417   16418   16418   16417   16420   16419   16417   16420
   16423   16421   16422   16422   16421   16424   16423   16421   16424
   16427   16425   16426   16426   16425   16428   16427   16425   16428
   16431   16429   16430   16430   16429   16432   16431   16429   16432
   16435   16433   16434   16434   16433   16436   16435   16433   16436
   16439   16437   16438   16438   16437   16440   16439   16437   16440
   16443   16441   16442   16442   16441   16444   16443   16441   16444
   16447   16445   16446   16446   16445   16448   16447   16445   16448
   16451   16449   16450   16450   16449   16452   16451   16449   16452
   16455   16453   16454   16454   16453   16456   16455   16453   16456
   16459   16457   16458   16458   16457   16460   16459   16457   16460
   16463   16461   16462   16462   16461   16464   16463   16461   16464
   16467   16465   16466   16466   16465   16468   16467   16465   16468
   16471   16469   16470   16470   16469   16472   16471   16469   16472
   16475   16473   16474   16474   16473   16476   16475   16473   16476
   16479   16477   16478   16478   16477   16480   16479   16477   16480
   16483   16481   16482   16482   16481   16484   16483   16481   16484
   16487   16485   16486   16486   16485   16488   16487   16485   16488
   16491   16489   16490   16490   16489   16492   16491   16489   16492
   16495   16493   16494   16494   16493   16496   16495   16493   16496
   16499   16497   16498   16498   16497   16500   16499   16497   16500
   16503   16501   16502   16502   16501   16504   16503   16501   16504
   16507   16505   16506   16506   16505   16508   16507   16505   16508
   16511   16509   16510   16510   16509   16512   16511   16509   16512
   16515   16513   16514   16514   16513   16516   16515   16513   16516
   16519   16517   16518   16518   16517   16520   16519   16517   16520
   16523   16521   16522   16522   16521   16524   16523   16521   16524
   16527   16525   16526   16526   16525   16528   16527   16525   16528
   16531   16529   16530   16530   16529   16532   16531   16529   16532
   16535   16533   16534   16534   16533   16536   16535   16533   16536
   16539   16537   16538   16538   16537   16540   16539   16537   16540
   16543   16541   16542   16542   16541   16544   16543   16541   16544
   16547   16545   16546   16546   16545   16548   16547   16545   16548
   16551   16549   16550   16550   16549   16552   16551   16549   16552
   16555   16553   16554   16554   16553   16556   16555   16553   16556
   16559   16557   16558   16558   16557   16560   16559   16557   16560
   16563   16561   16562   16562   16561   16564   16563   16561   16564
   16567   16565   16566   16566   16565   16568   16567   16565   16568
   16571   16569   16570   16570   16569   16572   16571   16569   16572
   16575   16573   16574   16574   16573   16576   16575   16573   16576
   16579   16577   16578   16578   16577   16580   16579   16577   16580
   16583   16581   16582   16582   16581   16584   16583   16581   16584
   16587   16585   16586   16586   16585   16588   16587   16585   16588
   16591   16589   16590   16590   16589   16592   16591   16589   16592
   16595   16593   16594   16594   16593   16596   16595   16593   16596
   16599   16597   16598   16598   16597   16600   16599   16597   16600
   16603   16601   16602   16602   16601   16604   16603   16601   16604
   16607   16605   16606   16606   16605   16608   16607   16605   16608
   16611   16609   16610   16610   16609   16612   16611   16609   16612
   16615   16613   16614   16614   16613   16616   16615   16613   16616
   16619   16617   16618   16618   16617   16620   16619   16617   16620
   16623   16621   16622   16622   16621   16624   16623   16621   16624
   16627   16625   16626   16626   16625   16628   16627   16625   16628
   16631   16629   16630   16630   16629   16632   16631   16629   16632
   16635   16633   16634   16634   16633   16636   16635   16633   16636
   16639   16637   16638   16638   16637   16640   16639   16637   16640
   16643   16641   16642   16642   16641   16644   16643   16641   16644
   16647   16645   16646   16646   16645   16648   16647   16645   16648
   16651   16649   16650   16650   16649   16652   16651   16649   16652
   16655   16653   16654   16654   16653   16656   16655   16653   16656
   16659   16657   16658   16658   16657   16660   16659   16657   16660
   16663   16661   16662   16662   16661   16664   16663   16661   16664
   16667   16665   16666   16666   16665   16668   16667   16665   16668
   16671   16669   16670   16670   16669   16672   16671   16669   16672
   16675   16673   16674   16674   16673   16676   16675   16673   16676
   16679   16677   16678   16678   16677   16680   16679   16677   16680
   16683   16681   16682   16682   16681   16684   16683   16681   16684
   16687   16685   16686   16686   16685   16688   16687   16685   16688
   16691   16689   16690   16690   16689   16692   16691   16689   16692
   16695   16693   16694   16694   16693   16696   16695   16693   16696
   16699   16697   16698   16698   16697   16700   16699   16697   16700
   16703   16701   16702   16702   16701   16704   16703   16701   16704
   16707   16705   16706   16706   16705   16708   16707   16705   16708
   16711   16709   16710   16710   16709   16712   16711   16709   16712
   16715   16713   16714   16714   16713   16716   16715   16713   16716
   16719   16717   16718   16718   16717   16720   16719   16717   16720
   16723   16721   16722   16722   16721   16724   16723   16721   16724
   16727   16725   16726   16726   16725   16728   16727   16725   16728
   16731   16729   16730   16730   16729   16732   16731   16729   16732
   16735   16733   16734   16734   16733   16736   16735   16733   16736
   16739   16737   16738   16738   16737   16740   16739   16737   16740
   16743   16741   16742   16742   16741   16744   16743   16741   16744
   16747   16745   16746   16746   16745   16748   16747   16745   16748
   16751   16749   16750   16750   16749   16752   16751   16749   16752
   16755   16753   16754   16754   16753   16756   16755   16753   16756
   16759   16757   16758   16758   16757   16760   16759   16757   16760
   16763   16761   16762   16762   16761   16764   16763   16761   16764
   16767   16765   16766   16766   16765   16768   16767   16765   16768
   16771   16769   16770   16770   16769   16772   16771   16769   16772
   16775   16773   16774   16774   16773   16776   16775   16773   16776
   16779   16777   16778   16778   16777   16780   16779   16777   16780
   16783   16781   16782   16782   16781   16784   16783   16781   16784
   16787   16785   16786   16786   16785   16788   16787   16785   16788
   16791   16789   16790   16790   16789   16792   16791   16789   16792
   16795   16793   16794   16794   16793   16796   16795   16793   16796
   16799   16797   16798   16798   16797   16800   16799   16797   16800
   16803   16801   16802   16802   16801   16804   16803   16801   16804
   16807   16805   16806   16806   16805   16808   16807   16805   16808
   16811   16809   16810   16810   16809   16812   16811   16809   16812
   16815   16813   16814   16814   16813   16816   16815   16813   16816
   16819   16817   16818   16818   16817   16820   16819   16817   16820
   16823   16821   16822   16822   16821   16824   16823   16821   16824
   16827   16825   16826   16826   16825   16828   16827   16825   16828
   16831   16829   16830   16830   16829   16832   16831   16829   16832
   16835   16833   16834   16834   16833   16836   16835   16833   16836
   16839   16837   16838   16838   16837   16840   16839   16837   16840
   16843   16841   16842   16842   16841   16844   16843   16841   16844
   16847   16845   16846   16846   16845   16848   16847   16845   16848
   16851   16849   16850   16850   16849   16852   16851   16849   16852
   16855   16853   16854   16854   16853   16856   16855   16853   16856
   16859   16857   16858   16858   16857   16860   16859   16857   16860
   16863   16861   16862   16862   16861   16864   16863   16861   16864
   16867   16865   16866   16866   16865   16868   16867   16865   16868
   16871   16869   16870   16870   16869   16872   16871   16869   16872
   16875   16873   16874   16874   16873   16876   16875   16873   16876
   16879   16877   16878   16878   16877   16880   16879   16877   16880
   16883   16881   16882   16882   16881   16884   16883   16881   16884
   16887   16885   16886   16886   16885   16888   16887   16885   16888
   16891   16889   16890   16890   16889   16892   16891   16889   16892
   16895   16893   16894   16894   16893   16896   16895   16893   16896
   16899   16897   16898   16898   16897   16900   16899   16897   16900
   16903   16901   16902   16902   16901   16904   16903   16901   16904
   16907   16905   16906   16906   16905   16908   16907   16905   16908
   16911   16909   16910   16910   16909   16912   16911   16909   16912
   16915   16913   16914   16914   16913   16916   16915   16913   16916
   16919   16917   16918   16918   16917   16920   16919   16917   16920
   16923   16921   16922   16922   16921   16924   16923   16921   16924
   16927   16925   16926   16926   16925   16928   16927   16925   16928
   16931   16929   16930   16930   16929   16932   16931   16929   16932
   16935   16933   16934   16934   16933   16936   16935   16933   16936
   16939   16937   16938   16938   16937   16940   16939   16937   16940
   16943   16941   16942   16942   16941   16944   16943   16941   16944
   16947   16945   16946   16946   16945   16948   16947   16945   16948
   16951   16949   16950   16950   16949   16952   16951   16949   16952
   16955   16953   16954   16954   16953   16956   16955   16953   16956
   16959   16957   16958   16958   16957   16960   16959   16957   16960
   16963   16961   16962   16962   16961   16964   16963   16961   16964
   16967   16965   16966   16966   16965   16968   16967   16965   16968
   16971   16969   16970   16970   16969   16972   16971   16969   16972
   16975   16973   16974   16974   16973   16976   16975   16973   16976
   16979   16977   16978   16978   16977   16980   16979   16977   16980
   16983   16981   16982   16982   16981   16984   16983   16981   16984
   16987   16985   16986   16986   16985   16988   16987   16985   16988
   16991   16989   16990   16990   16989   16992   16991   16989   16992
   16995   16993   16994   16994   16993   16996   16995   16993   16996
   16999   16997   16998   16998   16997   17000   16999   16997   17000
   17003   17001   17002   17002   17001   17004   17003   17001   17004
   17007   17005   17006   17006   17005   17008   17007   17005   17008
   17011   17009   17010   17010   17009   17012   17011   17009   17012
   17015   17013   17014   17014   17013   17016   17015   17013   17016
   17019   17017   17018   17018   17017   17020   17019   17017   17020
   17023   17021   17022   17022   17021   17024   17023   17021   17024
   17027   17025   17026   17026   17025   17028   17027   17025   17028
   17031   17029   17030   17030   17029   17032   17031   17029   17032
   17035   17033   17034   17034   17033   17036   17035   17033   17036
   17039   17037   17038   17038   17037   17040   17039   17037   17040
   17043   17041   17042   17042   17041   17044   17043   17041   17044
   17047   17045   17046   17046   17045   17048   17047   17045   17048
   17051   17049   17050   17050   17049   17052   17051   17049   17052
   17055   17053   17054   17054   17053   17056   17055   17053   17056
   17059   17057   17058   17058   17057   17060   17059   17057   17060
   17063   17061   17062   17062   17061   17064   17063   17061   17064
   17067   17065   17066   17066   17065   17068   17067   17065   17068
   17071   17069   17070   17070   17069   17072   17071   17069   17072
   17075   17073   17074   17074   17073   17076   17075   17073   17076
   17079   17077   17078   17078   17077   17080   17079   17077   17080
   17083   17081   17082   17082   17081   17084   17083   17081   17084
   17087   17085   17086   17086   17085   17088   17087   17085   17088
   17091   17089   17090   17090   17089   17092   17091   17089   17092
   17095   17093   17094   17094   17093   17096   17095   17093   17096
   17099   17097   17098   17098   17097   17100   17099   17097   17100
   17103   17101   17102   17102   17101   17104   17103   17101   17104
   17107   17105   17106   17106   17105   17108   17107   17105   17108
   17111   17109   17110   17110   17109   17112   17111   17109   17112
   17115   17113   17114   17114   17113   17116   17115   17113   17116
   17119   17117   17118   17118   17117   17120   17119   17117   17120
   17123   17121   17122   17122   17121   17124   17123   17121   17124
   17127   17125   17126   17126   17125   17128   17127   17125   17128
   17131   17129   17130   17130   17129   17132   17131   17129   17132
   17135   17133   17134   17134   17133   17136   17135   17133   17136
   17139   17137   17138   17138   17137   17140   17139   17137   17140
   17143   17141   17142   17142   17141   17144   17143   17141   17144
   17147   17145   17146   17146   17145   17148   17147   17145   17148
   17151   17149   17150   17150   17149   17152   17151   17149   17152
   17155   17153   17154   17154   17153   17156   17155   17153   17156
   17159   17157   17158   17158   17157   17160   17159   17157   17160
   17163   17161   17162   17162   17161   17164   17163   17161   17164
   17167   17165   17166   17166   17165   17168   17167   17165   17168
   17171   17169   17170   17170   17169   17172   17171   17169   17172
   17175   17173   17174   17174   17173   17176   17175   17173   17176
   17179   17177   17178   17178   17177   17180   17179   17177   17180
   17183   17181   17182   17182   17181   17184   17183   17181   17184
   17187   17185   17186   17186   17185   17188   17187   17185   17188
   17191   17189   17190   17190   17189   17192   17191   17189   17192
   17195   17193   17194   17194   17193   17196   17195   17193   17196
   17199   17197   17198   17198   17197   17200   17199   17197   17200
   17203   17201   17202   17202   17201   17204   17203   17201   17204
   17207   17205   17206   17206   17205   17208   17207   17205   17208
   17211   17209   17210   17210   17209   17212   17211   17209   17212
   17215   17213   17214   17214   17213   17216   17215   17213   17216
   17219   17217   17218   17218   17217   17220   17219   17217   17220
   17223   17221   17222   17222   17221   17224   17223   17221   17224
   17227   17225   17226   17226   17225   17228   17227   17225   17228
   17231   17229   17230   17230   17229   17232   17231   17229   17232
   17235   17233   17234   17234   17233   17236   17235   17233   17236
   17239   17237   17238   17238   17237   17240   17239   17237   17240
   17243   17241   17242   17242   17241   17244   17243   17241   17244
   17247   17245   17246   17246   17245   17248   17247   17245   17248
   17251   17249   17250   17250   17249   17252   17251   17249   17252
   17255   17253   17254   17254   17253   17256   17255   17253   17256
   17259   17257   17258   17258   17257   17260   17259   17257   17260
   17263   17261   17262   17262   17261   17264   17263   17261   17264
   17267   17265   17266   17266   17265   17268   17267   17265   17268
   17271   17269   17270   17270   17269   17272   17271   17269   17272
   17275   17273   17274   17274   17273   17276   17275   17273   17276
   17279   17277   17278   17278   17277   17280   17279   17277   17280
   17283   17281   17282   17282   17281   17284   17283   17281   17284
   17287   17285   17286   17286   17285   17288   17287   17285   17288
   17291   17289   17290   17290   17289   17292   17291   17289   17292
   17295   17293   17294   17294   17293   17296   17295   17293   17296
   17299   17297   17298   17298   17297   17300   17299   17297   17300
   17303   17301   17302   17302   17301   17304   17303   17301   17304
   17307   17305   17306   17306   17305   17308   17307   17305   17308
   17311   17309   17310   17310   17309   17312   17311   17309   17312
   17315   17313   17314   17314   17313   17316   17315   17313   17316
   17319   17317   17318   17318   17317   17320   17319   17317   17320
   17323   17321   17322   17322   17321   17324   17323   17321   17324
   17327   17325   17326   17326   17325   17328   17327   17325   17328
   17331   17329   17330   17330   17329   17332   17331   17329   17332
   17335   17333   17334   17334   17333   17336   17335   17333   17336
   17339   17337   17338   17338   17337   17340   17339   17337   17340
   17343   17341   17342   17342   17341   17344   17343   17341   17344
   17347   17345   17346   17346   17345   17348   17347   17345   17348
   17351   17349   17350   17350   17349   17352   17351   17349   17352
   17355   17353   17354   17354   17353   17356   17355   17353   17356
   17359   17357   17358   17358   17357   17360   17359   17357   17360
   17363   17361   17362   17362   17361   17364   17363   17361   17364
   17367   17365   17366   17366   17365   17368   17367   17365   17368
   17371   17369   17370   17370   17369   17372   17371   17369   17372
   17375   17373   17374   17374   17373   17376   17375   17373   17376
   17379   17377   17378   17378   17377   17380   17379   17377   17380
   17383   17381   17382   17382   17381   17384   17383   17381   17384
   17387   17385   17386   17386   17385   17388   17387   17385   17388
   17391   17389   17390   17390   17389   17392   17391   17389   17392
   17395   17393   17394   17394   17393   17396   17395   17393   17396
   17399   17397   17398   17398   17397   17400   17399   17397   17400
   17403   17401   17402   17402   17401   17404   17403   17401   17404
   17407   17405   17406   17406   17405   17408   17407   17405   17408
   17411   17409   17410   17410   17409   17412   17411   17409   17412
   17415   17413   17414   17414   17413   17416   17415   17413   17416
   17419   17417   17418   17418   17417   17420   17419   17417   17420
   17423   17421   17422   17422   17421   17424   17423   17421   17424
   17427   17425   17426   17426   17425   17428   17427   17425   17428
   17431   17429   17430   17430   17429   17432   17431   17429   17432
   17435   17433   17434   17434   17433   17436   17435   17433   17436
   17439   17437   17438   17438   17437   17440   17439   17437   17440
   17443   17441   17442   17442   17441   17444   17443   17441   17444
   17447   17445   17446   17446   17445   17448   17447   17445   17448
   17451   17449   17450   17450   17449   17452   17451   17449   17452
   17455   17453   17454   17454   17453   17456   17455   17453   17456
   17459   17457   17458   17458   17457   17460   17459   17457   17460
   17463   17461   17462   17462   17461   17464   17463   17461   17464
   17467   17465   17466   17466   17465   17468   17467   17465   17468
   17471   17469   17470   17470   17469   17472   17471   17469   17472
   17475   17473   17474   17474   17473   17476   17475   17473   17476
   17479   17477   17478   17478   17477   17480   17479   17477   17480
   17483   17481   17482   17482   17481   17484   17483   17481   17484
   17487   17485   17486   17486   17485   17488   17487   17485   17488
   17491   17489   17490   17490   17489   17492   17491   17489   17492
   17495   17493   17494   17494   17493   17496   17495   17493   17496
   17499   17497   17498   17498   17497   17500   17499   17497   17500
   17503   17501   17502   17502   17501   17504   17503   17501   17504
   17507   17505   17506   17506   17505   17508   17507   17505   17508
   17511   17509   17510   17510   17509   17512   17511   17509   17512
   17515   17513   17514   17514   17513   17516   17515   17513   17516
   17519   17517   17518   17518   17517   17520   17519   17517   17520
   17523   17521   17522   17522   17521   17524   17523   17521   17524
   17527   17525   17526   17526   17525   17528   17527   17525   17528
   17531   17529   17530   17530   17529   17532   17531   17529   17532
   17535   17533   17534   17534   17533   17536   17535   17533   17536
   17539   17537   17538   17538   17537   17540   17539   17537   17540
   17543   17541   17542   17542   17541   17544   17543   17541   17544
   17547   17545   17546   17546   17545   17548   17547   17545   17548
   17551   17549   17550   17550   17549   17552   17551   17549   17552
   17555   17553   17554   17554   17553   17556   17555   17553   17556
   17559   17557   17558   17558   17557   17560   17559   17557   17560
   17563   17561   17562   17562   17561   17564   17563   17561   17564
   17567   17565   17566   17566   17565   17568   17567   17565   17568
   17571   17569   17570   17570   17569   17572   17571   17569   17572
   17575   17573   17574   17574   17573   17576   17575   17573   17576
   17579   17577   17578   17578   17577   17580   17579   17577   17580
   17583   17581   17582   17582   17581   17584   17583   17581   17584
   17587   17585   17586   17586   17585   17588   17587   17585   17588
   17591   17589   17590   17590   17589   17592   17591   17589   17592
   17595   17593   17594   17594   17593   17596   17595   17593   17596
   17599   17597   17598   17598   17597   17600   17599   17597   17600
   17603   17601   17602   17602   17601   17604   17603   17601   17604
   17607   17605   17606   17606   17605   17608   17607   17605   17608
   17611   17609   17610   17610   17609   17612   17611   17609   17612
   17615   17613   17614   17614   17613   17616   17615   17613   17616
   17619   17617   17618   17618   17617   17620   17619   17617   17620
   17623   17621   17622   17622   17621   17624   17623   17621   17624
   17627   17625   17626   17626   17625   17628   17627   17625   17628
   17631   17629   17630   17630   17629   17632   17631   17629   17632
   17635   17633   17634   17634   17633   17636   17635   17633   17636
   17639   17637   17638   17638   17637   17640   17639   17637   17640
   17643   17641   17642   17642   17641   17644   17643   17641   17644
   17647   17645   17646   17646   17645   17648   17647   17645   17648
   17651   17649   17650   17650   17649   17652   17651   17649   17652
   17655   17653   17654   17654   17653   17656   17655   17653   17656
   17659   17657   17658   17658   17657   17660   17659   17657   17660
   17663   17661   17662   17662   17661   17664   17663   17661   17664
   17667   17665   17666   17666   17665   17668   17667   17665   17668
   17671   17669   17670   17670   17669   17672   17671   17669   17672
   17675   17673   17674   17674   17673   17676   17675   17673   17676
   17679   17677   17678   17678   17677   17680   17679   17677   17680
   17683   17681   17682   17682   17681   17684   17683   17681   17684
   17687   17685   17686   17686   17685   17688   17687   17685   17688
   17691   17689   17690   17690   17689   17692   17691   17689   17692
   17695   17693   17694   17694   17693   17696   17695   17693   17696
   17699   17697   17698   17698   17697   17700   17699   17697   17700
   17703   17701   17702   17702   17701   17704   17703   17701   17704
   17707   17705   17706   17706   17705   17708   17707   17705   17708
   17711   17709   17710   17710   17709   17712   17711   17709   17712
   17715   17713   17714   17714   17713   17716   17715   17713   17716
   17719   17717   17718   17718   17717   17720   17719   17717   17720
   17723   17721   17722   17722   17721   17724   17723   17721   17724
   17727   17725   17726   17726   17725   17728   17727   17725   17728
   17731   17729   17730   17730   17729   17732   17731   17729   17732
   17735   17733   17734   17734   17733   17736   17735   17733   17736
   17739   17737   17738   17738   17737   17740   17739   17737   17740
   17743   17741   17742   17742   17741   17744   17743   17741   17744
   17747   17745   17746   17746   17745   17748   17747   17745   17748
   17751   17749   17750   17750   17749   17752   17751   17749   17752
   17755   17753   17754   17754   17753   17756   17755   17753   17756
   17759   17757   17758   17758   17757   17760   17759   17757   17760
   17763   17761   17762   17762   17761   17764   17763   17761   17764
   17767   17765   17766   17766   17765   17768   17767   17765   17768
   17771   17769   17770   17770   17769   17772   17771   17769   17772
   17775   17773   17774   17774   17773   17776   17775   17773   17776
   17779   17777   17778   17778   17777   17780   17779   17777   17780
   17783   17781   17782   17782   17781   17784   17783   17781   17784
   17787   17785   17786   17786   17785   17788   17787   17785   17788
   17791   17789   17790   17790   17789   17792   17791   17789   17792
   17795   17793   17794   17794   17793   17796   17795   17793   17796
   17799   17797   17798   17798   17797   17800   17799   17797   17800
   17803   17801   17802   17802   17801   17804   17803   17801   17804
   17807   17805   17806   17806   17805   17808   17807   17805   17808
   17811   17809   17810   17810   17809   17812   17811   17809   17812
   17815   17813   17814   17814   17813   17816   17815   17813   17816
   17819   17817   17818   17818   17817   17820   17819   17817   17820
   17823   17821   17822   17822   17821   17824   17823   17821   17824
   17827   17825   17826   17826   17825   17828   17827   17825   17828
   17831   17829   17830   17830   17829   17832   17831   17829   17832
   17835   17833   17834   17834   17833   17836   17835   17833   17836
   17839   17837   17838   17838   17837   17840   17839   17837   17840
   17843   17841   17842   17842   17841   17844   17843   17841   17844
   17847   17845   17846   17846   17845   17848   17847   17845   17848
   17851   17849   17850   17850   17849   17852   17851   17849   17852
   17855   17853   17854   17854   17853   17856   17855   17853   17856
   17859   17857   17858   17858   17857   17860   17859   17857   17860
   17863   17861   17862   17862   17861   17864   17863   17861   17864
   17867   17865   17866   17866   17865   17868   17867   17865   17868
   17871   17869   17870   17870   17869   17872   17871   17869   17872
   17875   17873   17874   17874   17873   17876   17875   17873   17876
   17879   17877   17878   17878   17877   17880   17879   17877   17880
   17883   17881   17882   17882   17881   17884   17883   17881   17884
   17887   17885   17886   17886   17885   17888   17887   17885   17888
   17891   17889   17890   17890   17889   17892   17891   17889   17892
   17895   17893   17894   17894   17893   17896   17895   17893   17896
   17899   17897   17898   17898   17897   17900   17899   17897   17900
   17903   17901   17902   17902   17901   17904   17903   17901   17904
   17907   17905   17906   17906   17905   17908   17907   17905   17908
   17911   17909   17910   17910   17909   17912   17911   17909   17912
   17915   17913   17914   17914   17913   17916   17915   17913   17916
   17919   17917   17918   17918   17917   17920   17919   17917   17920
   17923   17921   17922   17922   17921   17924   17923   17921   17924
   17927   17925   17926   17926   17925   17928   17927   17925   17928
   17931   17929   17930   17930   17929   17932   17931   17929   17932
   17935   17933   17934   17934   17933   17936   17935   17933   17936
   17939   17937   17938   17938   17937   17940   17939   17937   17940
   17943   17941   17942   17942   17941   17944   17943   17941   17944
   17947   17945   17946   17946   17945   17948   17947   17945   17948
   17951   17949   17950   17950   17949   17952   17951   17949   17952
   17955   17953   17954   17954   17953   17956   17955   17953   17956
   17959   17957   17958   17958   17957   17960   17959   17957   17960
   17963   17961   17962   17962   17961   17964   17963   17961   17964
   17967   17965   17966   17966   17965   17968   17967   17965   17968
   17971   17969   17970   17970   17969   17972   17971   17969   17972
   17975   17973   17974   17974   17973   17976   17975   17973   17976
   17979   17977   17978   17978   17977   17980   17979   17977   17980
   17983   17981   17982   17982   17981   17984   17983   17981   17984
   17987   17985   17986   17986   17985   17988   17987   17985   17988
   17991   17989   17990   17990   17989   17992   17991   17989   17992
   17995   17993   17994   17994   17993   17996   17995   17993   17996
   17999   17997   17998   17998   17997   18000   17999   17997   18000
   18003   18001   18002   18002   18001   18004   18003   18001   18004
   18007   18005   18006   18006   18005   18008   18007   18005   18008
   18011   18009   18010   18010   18009   18012   18011   18009   18012
   18015   18013   18014   18014   18013   18016   18015   18013   18016
   18019   18017   18018   18018   18017   18020   18019   18017   18020
   18023   18021   18022   18022   18021   18024   18023   18021   18024
   18027   18025   18026   18026   18025   18028   18027   18025   18028
   18031   18029   18030   18030   18029   18032   18031   18029   18032
   18035   18033   18034   18034   18033   18036   18035   18033   18036
   18039   18037   18038   18038   18037   18040   18039   18037   18040
   18043   18041   18042   18042   18041   18044   18043   18041   18044
   18047   18045   18046   18046   18045   18048   18047   18045   18048
   18051   18049   18050   18050   18049   18052   18051   18049   18052
   18055   18053   18054   18054   18053   18056   18055   18053   18056
   18059   18057   18058   18058   18057   18060   18059   18057   18060
   18063   18061   18062   18062   18061   18064   18063   18061   18064
   18067   18065   18066   18066   18065   18068   18067   18065   18068
   18071   18069   18070   18070   18069   18072   18071   18069   18072
   18075   18073   18074   18074   18073   18076   18075   18073   18076
   18079   18077   18078   18078   18077   18080   18079   18077   18080
   18083   18081   18082   18082   18081   18084   18083   18081   18084
   18087   18085   18086   18086   18085   18088   18087   18085   18088
   18091   18089   18090   18090   18089   18092   18091   18089   18092
   18095   18093   18094   18094   18093   18096   18095   18093   18096
   18099   18097   18098   18098   18097   18100   18099   18097   18100
   18103   18101   18102   18102   18101   18104   18103   18101   18104
   18107   18105   18106   18106   18105   18108   18107   18105   18108
   18111   18109   18110   18110   18109   18112   18111   18109   18112
   18115   18113   18114   18114   18113   18116   18115   18113   18116
   18119   18117   18118   18118   18117   18120   18119   18117   18120
   18123   18121   18122   18122   18121   18124   18123   18121   18124
   18127   18125   18126   18126   18125   18128   18127   18125   18128
   18131   18129   18130   18130   18129   18132   18131   18129   18132
   18135   18133   18134   18134   18133   18136   18135   18133   18136
   18139   18137   18138   18138   18137   18140   18139   18137   18140
   18143   18141   18142   18142   18141   18144   18143   18141   18144
   18147   18145   18146   18146   18145   18148   18147   18145   18148
   18151   18149   18150   18150   18149   18152   18151   18149   18152
   18155   18153   18154   18154   18153   18156   18155   18153   18156
   18159   18157   18158   18158   18157   18160   18159   18157   18160
   18163   18161   18162   18162   18161   18164   18163   18161   18164
   18167   18165   18166   18166   18165   18168   18167   18165   18168
   18171   18169   18170   18170   18169   18172   18171   18169   18172
   18175   18173   18174   18174   18173   18176   18175   18173   18176
   18179   18177   18178   18178   18177   18180   18179   18177   18180
   18183   18181   18182   18182   18181   18184   18183   18181   18184
   18187   18185   18186   18186   18185   18188   18187   18185   18188
   18191   18189   18190   18190   18189   18192   18191   18189   18192
   18195   18193   18194   18194   18193   18196   18195   18193   18196
   18199   18197   18198   18198   18197   18200   18199   18197   18200
   18203   18201   18202   18202   18201   18204   18203   18201   18204
   18207   18205   18206   18206   18205   18208   18207   18205   18208
   18211   18209   18210   18210   18209   18212   18211   18209   18212
   18215   18213   18214   18214   18213   18216   18215   18213   18216
   18219   18217   18218   18218   18217   18220   18219   18217   18220
   18223   18221   18222   18222   18221   18224   18223   18221   18224
   18227   18225   18226   18226   18225   18228   18227   18225   18228
   18231   18229   18230   18230   18229   18232   18231   18229   18232
   18235   18233   18234   18234   18233   18236   18235   18233   18236
   18239   18237   18238   18238   18237   18240   18239   18237   18240
   18243   18241   18242   18242   18241   18244   18243   18241   18244
   18247   18245   18246   18246   18245   18248   18247   18245   18248
   18251   18249   18250   18250   18249   18252   18251   18249   18252
   18255   18253   18254   18254   18253   18256   18255   18253   18256
   18259   18257   18258   18258   18257   18260   18259   18257   18260
   18263   18261   18262   18262   18261   18264   18263   18261   18264
   18267   18265   18266   18266   18265   18268   18267   18265   18268
   18271   18269   18270   18270   18269   18272   18271   18269   18272
   18275   18273   18274   18274   18273   18276   18275   18273   18276
   18279   18277   18278   18278   18277   18280   18279   18277   18280
   18283   18281   18282   18282   18281   18284   18283   18281   18284
   18287   18285   18286   18286   18285   18288   18287   18285   18288
   18291   18289   18290   18290   18289   18292   18291   18289   18292
   18295   18293   18294   18294   18293   18296   18295   18293   18296
   18299   18297   18298   18298   18297   18300   18299   18297   18300
   18303   18301   18302   18302   18301   18304   18303   18301   18304
   18307   18305   18306   18306   18305   18308   18307   18305   18308
   18311   18309   18310   18310   18309   18312   18311   18309   18312
   18315   18313   18314   18314   18313   18316   18315   18313   18316
   18319   18317   18318   18318   18317   18320   18319   18317   18320
   18323   18321   18322   18322   18321   18324   18323   18321   18324
   18327   18325   18326   18326   18325   18328   18327   18325   18328
   18331   18329   18330   18330   18329   18332   18331   18329   18332
   18335   18333   18334   18334   18333   18336   18335   18333   18336
   18339   18337   18338   18338   18337   18340   18339   18337   18340
   18343   18341   18342   18342   18341   18344   18343   18341   18344
   18347   18345   18346   18346   18345   18348   18347   18345   18348
   18351   18349   18350   18350   18349   18352   18351   18349   18352
   18355   18353   18354   18354   18353   18356   18355   18353   18356
   18359   18357   18358   18358   18357   18360   18359   18357   18360
   18363   18361   18362   18362   18361   18364   18363   18361   18364
   18367   18365   18366   18366   18365   18368   18367   18365   18368
   18371   18369   18370   18370   18369   18372   18371   18369   18372
   18375   18373   18374   18374   18373   18376   18375   18373   18376
   18379   18377   18378   18378   18377   18380   18379   18377   18380
   18383   18381   18382   18382   18381   18384   18383   18381   18384
   18387   18385   18386   18386   18385   18388   18387   18385   18388
   18391   18389   18390   18390   18389   18392   18391   18389   18392
   18395   18393   18394   18394   18393   18396   18395   18393   18396
   18399   18397   18398   18398   18397   18400   18399   18397   18400
   18403   18401   18402   18402   18401   18404   18403   18401   18404
   18407   18405   18406   18406   18405   18408   18407   18405   18408
   18411   18409   18410   18410   18409   18412   18411   18409   18412
   18415   18413   18414   18414   18413   18416   18415   18413   18416
   18419   18417   18418   18418   18417   18420   18419   18417   18420
   18423   18421   18422   18422   18421   18424   18423   18421   18424
   18427   18425   18426   18426   18425   18428   18427   18425   18428
   18431   18429   18430   18430   18429   18432   18431   18429   18432
   18435   18433   18434   18434   18433   18436   18435   18433   18436
   18439   18437   18438   18438   18437   18440   18439   18437   18440
   18443   18441   18442   18442   18441   18444   18443   18441   18444
   18447   18445   18446   18446   18445   18448   18447   18445   18448
   18451   18449   18450   18450   18449   18452   18451   18449   18452
   18455   18453   18454   18454   18453   18456   18455   18453   18456
   18459   18457   18458   18458   18457   18460   18459   18457   18460
   18463   18461   18462   18462   18461   18464   18463   18461   18464
   18467   18465   18466   18466   18465   18468   18467   18465   18468
   18471   18469   18470   18470   18469   18472   18471   18469   18472
   18475   18473   18474   18474   18473   18476   18475   18473   18476
   18479   18477   18478   18478   18477   18480   18479   18477   18480
   18483   18481   18482   18482   18481   18484   18483   18481   18484
   18487   18485   18486   18486   18485   18488   18487   18485   18488
   18491   18489   18490   18490   18489   18492   18491   18489   18492
   18495   18493   18494   18494   18493   18496   18495   18493   18496
   18499   18497   18498   18498   18497   18500   18499   18497   18500
   18503   18501   18502   18502   18501   18504   18503   18501   18504
   18507   18505   18506   18506   18505   18508   18507   18505   18508
   18511   18509   18510   18510   18509   18512   18511   18509   18512
   18515   18513   18514   18514   18513   18516   18515   18513   18516
   18519   18517   18518   18518   18517   18520   18519   18517   18520
   18523   18521   18522   18522   18521   18524   18523   18521   18524
   18527   18525   18526   18526   18525   18528   18527   18525   18528
   18531   18529   18530   18530   18529   18532   18531   18529   18532
   18535   18533   18534   18534   18533   18536   18535   18533   18536
   18539   18537   18538   18538   18537   18540   18539   18537   18540
   18543   18541   18542   18542   18541   18544   18543   18541   18544
   18547   18545   18546   18546   18545   18548   18547   18545   18548
   18551   18549   18550   18550   18549   18552   18551   18549   18552
   18555   18553   18554   18554   18553   18556   18555   18553   18556
   18559   18557   18558   18558   18557   18560   18559   18557   18560
   18563   18561   18562   18562   18561   18564   18563   18561   18564
   18567   18565   18566   18566   18565   18568   18567   18565   18568
   18571   18569   18570   18570   18569   18572   18571   18569   18572
   18575   18573   18574   18574   18573   18576   18575   18573   18576
   18579   18577   18578   18578   18577   18580   18579   18577   18580
   18583   18581   18582   18582   18581   18584   18583   18581   18584
   18587   18585   18586   18586   18585   18588   18587   18585   18588
   18591   18589   18590   18590   18589   18592   18591   18589   18592
   18595   18593   18594   18594   18593   18596   18595   18593   18596
   18599   18597   18598   18598   18597   18600   18599   18597   18600
   18603   18601   18602   18602   18601   18604   18603   18601   18604
   18607   18605   18606   18606   18605   18608   18607   18605   18608
   18611   18609   18610   18610   18609   18612   18611   18609   18612
   18615   18613   18614   18614   18613   18616   18615   18613   18616
   18619   18617   18618   18618   18617   18620   18619   18617   18620
   18623   18621   18622   18622   18621   18624   18623   18621   18624
   18627   18625   18626   18626   18625   18628   18627   18625   18628
   18631   18629   18630   18630   18629   18632   18631   18629   18632
   18635   18633   18634   18634   18633   18636   18635   18633   18636
   18639   18637   18638   18638   18637   18640   18639   18637   18640
   18643   18641   18642   18642   18641   18644   18643   18641   18644
   18647   18645   18646   18646   18645   18648   18647   18645   18648
   18651   18649   18650   18650   18649   18652   18651   18649   18652
   18655   18653   18654   18654   18653   18656   18655   18653   18656
   18659   18657   18658   18658   18657   18660   18659   18657   18660
   18663   18661   18662   18662   18661   18664   18663   18661   18664
   18667   18665   18666   18666   18665   18668   18667   18665   18668
   18671   18669   18670   18670   18669   18672   18671   18669   18672
   18675   18673   18674   18674   18673   18676   18675   18673   18676
   18679   18677   18678   18678   18677   18680   18679   18677   18680
   18683   18681   18682   18682   18681   18684   18683   18681   18684
   18687   18685   18686   18686   18685   18688   18687   18685   18688
   18691   18689   18690   18690   18689   18692   18691   18689   18692
   18695   18693   18694   18694   18693   18696   18695   18693   18696
   18699   18697   18698   18698   18697   18700   18699   18697   18700
   18703   18701   18702   18702   18701   18704   18703   18701   18704
   18707   18705   18706   18706   18705   18708   18707   18705   18708
   18711   18709   18710   18710   18709   18712   18711   18709   18712
   18715   18713   18714   18714   18713   18716   18715   18713   18716
   18719   18717   18718   18718   18717   18720   18719   18717   18720
   18723   18721   18722   18722   18721   18724   18723   18721   18724
   18727   18725   18726   18726   18725   18728   18727   18725   18728
   18731   18729   18730   18730   18729   18732   18731   18729   18732
   18735   18733   18734   18734   18733   18736   18735   18733   18736
   18739   18737   18738   18738   18737   18740   18739   18737   18740
   18743   18741   18742   18742   18741   18744   18743   18741   18744
   18747   18745   18746   18746   18745   18748   18747   18745   18748
   18751   18749   18750   18750   18749   18752   18751   18749   18752
   18755   18753   18754   18754   18753   18756   18755   18753   18756
   18759   18757   18758   18758   18757   18760   18759   18757   18760
   18763   18761   18762   18762   18761   18764   18763   18761   18764
   18767   18765   18766   18766   18765   18768   18767   18765   18768
   18771   18769   18770   18770   18769   18772   18771   18769   18772
   18775   18773   18774   18774   18773   18776   18775   18773   18776
   18779   18777   18778   18778   18777   18780   18779   18777   18780
   18783   18781   18782   18782   18781   18784   18783   18781   18784
   18787   18785   18786   18786   18785   18788   18787   18785   18788
   18791   18789   18790   18790   18789   18792   18791   18789   18792
   18795   18793   18794   18794   18793   18796   18795   18793   18796
   18799   18797   18798   18798   18797   18800   18799   18797   18800
   18803   18801   18802   18802   18801   18804   18803   18801   18804
   18807   18805   18806   18806   18805   18808   18807   18805   18808
   18811   18809   18810   18810   18809   18812   18811   18809   18812
   18815   18813   18814   18814   18813   18816   18815   18813   18816
   18819   18817   18818   18818   18817   18820   18819   18817   18820
   18823   18821   18822   18822   18821   18824   18823   18821   18824
   18827   18825   18826   18826   18825   18828   18827   18825   18828
   18831   18829   18830   18830   18829   18832   18831   18829   18832
   18835   18833   18834   18834   18833   18836   18835   18833   18836
   18839   18837   18838   18838   18837   18840   18839   18837   18840
   18843   18841   18842   18842   18841   18844   18843   18841   18844
   18847   18845   18846   18846   18845   18848   18847   18845   18848
   18851   18849   18850   18850   18849   18852   18851   18849   18852
   18855   18853   18854   18854   18853   18856   18855   18853   18856
   18859   18857   18858   18858   18857   18860   18859   18857   18860
   18863   18861   18862   18862   18861   18864   18863   18861   18864
   18867   18865   18866   18866   18865   18868   18867   18865   18868
   18871   18869   18870   18870   18869   18872   18871   18869   18872
   18875   18873   18874   18874   18873   18876   18875   18873   18876
   18879   18877   18878   18878   18877   18880   18879   18877   18880
   18883   18881   18882   18882   18881   18884   18883   18881   18884
   18887   18885   18886   18886   18885   18888   18887   18885   18888
   18891   18889   18890   18890   18889   18892   18891   18889   18892
   18895   18893   18894   18894   18893   18896   18895   18893   18896
   18899   18897   18898   18898   18897   18900   18899   18897   18900
   18903   18901   18902   18902   18901   18904   18903   18901   18904
   18907   18905   18906   18906   18905   18908   18907   18905   18908
   18911   18909   18910   18910   18909   18912   18911   18909   18912
   18915   18913   18914   18914   18913   18916   18915   18913   18916
   18919   18917   18918   18918   18917   18920   18919   18917   18920
   18923   18921   18922   18922   18921   18924   18923   18921   18924
   18927   18925   18926   18926   18925   18928   18927   18925   18928
   18931   18929   18930   18930   18929   18932   18931   18929   18932
   18935   18933   18934   18934   18933   18936   18935   18933   18936
   18939   18937   18938   18938   18937   18940   18939   18937   18940
   18943   18941   18942   18942   18941   18944   18943   18941   18944
   18947   18945   18946   18946   18945   18948   18947   18945   18948
   18951   18949   18950   18950   18949   18952   18951   18949   18952
   18955   18953   18954   18954   18953   18956   18955   18953   18956
   18959   18957   18958   18958   18957   18960   18959   18957   18960
   18963   18961   18962   18962   18961   18964   18963   18961   18964
   18967   18965   18966   18966   18965   18968   18967   18965   18968
   18971   18969   18970   18970   18969   18972   18971   18969   18972
   18975   18973   18974   18974   18973   18976   18975   18973   18976
   18979   18977   18978   18978   18977   18980   18979   18977   18980
   18983   18981   18982   18982   18981   18984   18983   18981   18984
   18987   18985   18986   18986   18985   18988   18987   18985   18988
   18991   18989   18990   18990   18989   18992   18991   18989   18992
   18995   18993   18994   18994   18993   18996   18995   18993   18996
   18999   18997   18998   18998   18997   19000   18999   18997   19000
   19003   19001   19002   19002   19001   19004   19003   19001   19004
   19007   19005   19006   19006   19005   19008   19007   19005   19008
   19011   19009   19010   19010   19009   19012   19011   19009   19012
   19015   19013   19014   19014   19013   19016   19015   19013   19016
   19019   19017   19018   19018   19017   19020   19019   19017   19020
   19023   19021   19022   19022   19021   19024   19023   19021   19024
   19027   19025   19026   19026   19025   19028   19027   19025   19028
   19031   19029   19030   19030   19029   19032   19031   19029   19032
   19035   19033   19034   19034   19033   19036   19035   19033   19036
   19039   19037   19038   19038   19037   19040   19039   19037   19040
   19043   19041   19042   19042   19041   19044   19043   19041   19044
   19047   19045   19046   19046   19045   19048   19047   19045   19048
   19051   19049   19050   19050   19049   19052   19051   19049   19052
   19055   19053   19054   19054   19053   19056   19055   19053   19056
   19059   19057   19058   19058   19057   19060   19059   19057   19060
   19063   19061   19062   19062   19061   19064   19063   19061   19064
   19067   19065   19066   19066   19065   19068   19067   19065   19068
   19071   19069   19070   19070   19069   19072   19071   19069   19072
   19075   19073   19074   19074   19073   19076   19075   19073   19076
   19079   19077   19078   19078   19077   19080   19079   19077   19080
   19083   19081   19082   19082   19081   19084   19083   19081   19084
   19087   19085   19086   19086   19085   19088   19087   19085   19088
   19091   19089   19090   19090   19089   19092   19091   19089   19092
   19095   19093   19094   19094   19093   19096   19095   19093   19096
   19099   19097   19098   19098   19097   19100   19099   19097   19100
   19103   19101   19102   19102   19101   19104   19103   19101   19104
   19107   19105   19106   19106   19105   19108   19107   19105   19108
   19111   19109   19110   19110   19109   19112   19111   19109   19112
   19115   19113   19114   19114   19113   19116   19115   19113   19116
   19119   19117   19118   19118   19117   19120   19119   19117   19120
   19123   19121   19122   19122   19121   19124   19123   19121   19124
   19127   19125   19126   19126   19125   19128   19127   19125   19128
   19131   19129   19130   19130   19129   19132   19131   19129   19132
   19135   19133   19134   19134   19133   19136   19135   19133   19136
   19139   19137   19138   19138   19137   19140   19139   19137   19140
   19143   19141   19142   19142   19141   19144   19143   19141   19144
   19147   19145   19146   19146   19145   19148   19147   19145   19148
   19151   19149   19150   19150   19149   19152   19151   19149   19152
   19155   19153   19154   19154   19153   19156   19155   19153   19156
   19159   19157   19158   19158   19157   19160   19159   19157   19160
   19163   19161   19162   19162   19161   19164   19163   19161   19164
   19167   19165   19166   19166   19165   19168   19167   19165   19168
   19171   19169   19170   19170   19169   19172   19171   19169   19172
   19175   19173   19174   19174   19173   19176   19175   19173   19176
   19179   19177   19178   19178   19177   19180   19179   19177   19180
   19183   19181   19182   19182   19181   19184   19183   19181   19184
   19187   19185   19186   19186   19185   19188   19187   19185   19188
   19191   19189   19190   19190   19189   19192   19191   19189   19192
   19195   19193   19194   19194   19193   19196   19195   19193   19196
   19199   19197   19198   19198   19197   19200   19199   19197   19200
   19203   19201   19202   19202   19201   19204   19203   19201   19204
   19207   19205   19206   19206   19205   19208   19207   19205   19208
   19211   19209   19210   19210   19209   19212   19211   19209   19212
   19215   19213   19214   19214   19213   19216   19215   19213   19216
   19219   19217   19218   19218   19217   19220   19219   19217   19220
   19223   19221   19222   19222   19221   19224   19223   19221   19224
   19227   19225   19226   19226   19225   19228   19227   19225   19228
   19231   19229   19230   19230   19229   19232   19231   19229   19232
   19235   19233   19234   19234   19233   19236   19235   19233   19236
   19239   19237   19238   19238   19237   19240   19239   19237   19240
   19243   19241   19242   19242   19241   19244   19243   19241   19244
   19247   19245   19246   19246   19245   19248   19247   19245   19248
   19251   19249   19250   19250   19249   19252   19251   19249   19252
   19255   19253   19254   19254   19253   19256   19255   19253   19256
   19259   19257   19258   19258   19257   19260   19259   19257   19260
   19263   19261   19262   19262   19261   19264   19263   19261   19264
   19267   19265   19266   19266   19265   19268   19267   19265   19268
   19271   19269   19270   19270   19269   19272   19271   19269   19272
   19275   19273   19274   19274   19273   19276   19275   19273   19276
   19279   19277   19278   19278   19277   19280   19279   19277   19280
   19283   19281   19282   19282   19281   19284   19283   19281   19284
   19287   19285   19286   19286   19285   19288   19287   19285   19288
   19291   19289   19290   19290   19289   19292   19291   19289   19292
   19295   19293   19294   19294   19293   19296   19295   19293   19296
   19299   19297   19298   19298   19297   19300   19299   19297   19300
   19303   19301   19302   19302   19301   19304   19303   19301   19304
   19307   19305   19306   19306   19305   19308   19307   19305   19308
   19311   19309   19310   19310   19309   19312   19311   19309   19312
   19315   19313   19314   19314   19313   19316   19315   19313   19316
   19319   19317   19318   19318   19317   19320   19319   19317   19320
   19323   19321   19322   19322   19321   19324   19323   19321   19324
   19327   19325   19326   19326   19325   19328   19327   19325   19328
   19331   19329   19330   19330   19329   19332   19331   19329   19332
   19335   19333   19334   19334   19333   19336   19335   19333   19336
   19339   19337   19338   19338   19337   19340   19339   19337   19340
   19343   19341   19342   19342   19341   19344   19343   19341   19344
   19347   19345   19346   19346   19345   19348   19347   19345   19348
   19351   19349   19350   19350   19349   19352   19351   19349   19352
   19355   19353   19354   19354   19353   19356   19355   19353   19356
   19359   19357   19358   19358   19357   19360   19359   19357   19360
   19363   19361   19362   19362   19361   19364   19363   19361   19364
   19367   19365   19366   19366   19365   19368   19367   19365   19368
   19371   19369   19370   19370   19369   19372   19371   19369   19372
   19375   19373   19374   19374   19373   19376   19375   19373   19376
   19379   19377   19378   19378   19377   19380   19379   19377   19380
   19383   19381   19382   19382   19381   19384   19383   19381   19384
   19387   19385   19386   19386   19385   19388   19387   19385   19388
   19391   19389   19390   19390   19389   19392   19391   19389   19392
   19395   19393   19394   19394   19393   19396   19395   19393   19396
   19399   19397   19398   19398   19397   19400   19399   19397   19400
   19403   19401   19402   19402   19401   19404   19403   19401   19404
   19407   19405   19406   19406   19405   19408   19407   19405   19408
   19411   19409   19410   19410   19409   19412   19411   19409   19412
   19415   19413   19414   19414   19413   19416   19415   19413   19416
   19419   19417   19418   19418   19417   19420   19419   19417   19420
   19423   19421   19422   19422   19421   19424   19423   19421   19424
   19427   19425   19426   19426   19425   19428   19427   19425   19428
   19431   19429   19430   19430   19429   19432   19431   19429   19432
   19435   19433   19434   19434   19433   19436   19435   19433   19436
   19439   19437   19438   19438   19437   19440   19439   19437   19440
   19443   19441   19442   19442   19441   19444   19443   19441   19444
   19447   19445   19446   19446   19445   19448   19447   19445   19448
   19451   19449   19450   19450   19449   19452   19451   19449   19452
   19455   19453   19454   19454   19453   19456   19455   19453   19456
   19459   19457   19458   19458   19457   19460   19459   19457   19460
   19463   19461   19462   19462   19461   19464   19463   19461   19464
   19467   19465   19466   19466   19465   19468   19467   19465   19468
   19471   19469   19470   19470   19469   19472   19471   19469   19472
   19475   19473   19474   19474   19473   19476   19475   19473   19476
   19479   19477   19478   19478   19477   19480   19479   19477   19480
   19483   19481   19482   19482   19481   19484   19483   19481   19484
   19487   19485   19486   19486   19485   19488   19487   19485   19488
   19491   19489   19490   19490   19489   19492   19491   19489   19492
   19495   19493   19494   19494   19493   19496   19495   19493   19496
   19499   19497   19498   19498   19497   19500   19499   19497   19500
   19503   19501   19502   19502   19501   19504   19503   19501   19504
   19507   19505   19506   19506   19505   19508   19507   19505   19508
   19511   19509   19510   19510   19509   19512   19511   19509   19512
   19515   19513   19514   19514   19513   19516   19515   19513   19516
   19519   19517   19518   19518   19517   19520   19519   19517   19520
   19523   19521   19522   19522   19521   19524   19523   19521   19524
   19527   19525   19526   19526   19525   19528   19527   19525   19528
   19531   19529   19530   19530   19529   19532   19531   19529   19532
   19535   19533   19534   19534   19533   19536   19535   19533   19536
   19539   19537   19538   19538   19537   19540   19539   19537   19540
   19543   19541   19542   19542   19541   19544   19543   19541   19544
   19547   19545   19546   19546   19545   19548   19547   19545   19548
   19551   19549   19550   19550   19549   19552   19551   19549   19552
   19555   19553   19554   19554   19553   19556   19555   19553   19556
   19559   19557   19558   19558   19557   19560   19559   19557   19560
   19563   19561   19562   19562   19561   19564   19563   19561   19564
   19567   19565   19566   19566   19565   19568   19567   19565   19568
   19571   19569   19570   19570   19569   19572   19571   19569   19572
   19575   19573   19574   19574   19573   19576   19575   19573   19576
   19579   19577   19578   19578   19577   19580   19579   19577   19580
   19583   19581   19582   19582   19581   19584   19583   19581   19584
   19587   19585   19586   19586   19585   19588   19587   19585   19588
   19591   19589   19590   19590   19589   19592   19591   19589   19592
   19595   19593   19594   19594   19593   19596   19595   19593   19596
   19599   19597   19598   19598   19597   19600   19599   19597   19600
   19603   19601   19602   19602   19601   19604   19603   19601   19604
   19607   19605   19606   19606   19605   19608   19607   19605   19608
   19611   19609   19610   19610   19609   19612   19611   19609   19612
   19615   19613   19614   19614   19613   19616   19615   19613   19616
   19619   19617   19618   19618   19617   19620   19619   19617   19620
   19623   19621   19622   19622   19621   19624   19623   19621   19624
   19627   19625   19626   19626   19625   19628   19627   19625   19628
   19631   19629   19630   19630   19629   19632   19631   19629   19632
   19635   19633   19634   19634   19633   19636   19635   19633   19636
   19639   19637   19638   19638   19637   19640   19639   19637   19640
   19643   19641   19642   19642   19641   19644   19643   19641   19644
   19647   19645   19646   19646   19645   19648   19647   19645   19648
   19651   19649   19650   19650   19649   19652   19651   19649   19652
   19655   19653   19654   19654   19653   19656   19655   19653   19656
   19659   19657   19658   19658   19657   19660   19659   19657   19660
   19663   19661   19662   19662   19661   19664   19663   19661   19664
   19667   19665   19666   19666   19665   19668   19667   19665   19668
   19671   19669   19670   19670   19669   19672   19671   19669   19672
   19675   19673   19674   19674   19673   19676   19675   19673   19676
   19679   19677   19678   19678   19677   19680   19679   19677   19680
   19683   19681   19682   19682   19681   19684   19683   19681   19684
   19687   19685   19686   19686   19685   19688   19687   19685   19688
   19691   19689   19690   19690   19689   19692   19691   19689   19692
   19695   19693   19694   19694   19693   19696   19695   19693   19696
   19699   19697   19698   19698   19697   19700   19699   19697   19700
   19703   19701   19702   19702   19701   19704   19703   19701   19704
   19707   19705   19706   19706   19705   19708   19707   19705   19708
   19711   19709   19710   19710   19709   19712   19711   19709   19712
   19715   19713   19714   19714   19713   19716   19715   19713   19716
   19719   19717   19718   19718   19717   19720   19719   19717   19720
   19723   19721   19722   19722   19721   19724   19723   19721   19724
   19727   19725   19726   19726   19725   19728   19727   19725   19728
   19731   19729   19730   19730   19729   19732   19731   19729   19732
   19735   19733   19734   19734   19733   19736   19735   19733   19736
   19739   19737   19738   19738   19737   19740   19739   19737   19740
   19743   19741   19742   19742   19741   19744   19743   19741   19744
   19747   19745   19746   19746   19745   19748   19747   19745   19748
   19751   19749   19750   19750   19749   19752   19751   19749   19752
   19755   19753   19754   19754   19753   19756   19755   19753   19756
   19759   19757   19758   19758   19757   19760   19759   19757   19760
   19763   19761   19762   19762   19761   19764   19763   19761   19764
   19767   19765   19766   19766   19765   19768   19767   19765   19768
   19771   19769   19770   19770   19769   19772   19771   19769   19772
   19775   19773   19774   19774   19773   19776   19775   19773   19776
   19779   19777   19778   19778   19777   19780   19779   19777   19780
   19783   19781   19782   19782   19781   19784   19783   19781   19784
   19787   19785   19786   19786   19785   19788   19787   19785   19788
   19791   19789   19790   19790   19789   19792   19791   19789   19792
   19795   19793   19794   19794   19793   19796   19795   19793   19796
   19799   19797   19798   19798   19797   19800   19799   19797   19800
   19803   19801   19802   19802   19801   19804   19803   19801   19804
   19807   19805   19806   19806   19805   19808   19807   19805   19808
   19811   19809   19810   19810   19809   19812   19811   19809   19812
   19815   19813   19814   19814   19813   19816   19815   19813   19816
   19819   19817   19818   19818   19817   19820   19819   19817   19820
   19823   19821   19822   19822   19821   19824   19823   19821   19824
   19827   19825   19826   19826   19825   19828   19827   19825   19828
   19831   19829   19830   19830   19829   19832   19831   19829   19832
   19835   19833   19834   19834   19833   19836   19835   19833   19836
   19839   19837   19838   19838   19837   19840   19839   19837   19840
   19843   19841   19842   19842   19841   19844   19843   19841   19844
   19847   19845   19846   19846   19845   19848   19847   19845   19848
   19851   19849   19850   19850   19849   19852   19851   19849   19852
   19855   19853   19854   19854   19853   19856   19855   19853   19856
   19859   19857   19858   19858   19857   19860   19859   19857   19860
   19863   19861   19862   19862   19861   19864   19863   19861   19864
   19867   19865   19866   19866   19865   19868   19867   19865   19868
   19871   19869   19870   19870   19869   19872   19871   19869   19872
   19875   19873   19874   19874   19873   19876   19875   19873   19876
   19879   19877   19878   19878   19877   19880   19879   19877   19880
   19883   19881   19882   19882   19881   19884   19883   19881   19884
   19887   19885   19886   19886   19885   19888   19887   19885   19888
   19891   19889   19890   19890   19889   19892   19891   19889   19892
   19895   19893   19894   19894   19893   19896   19895   19893   19896
   19899   19897   19898   19898   19897   19900   19899   19897   19900
   19903   19901   19902   19902   19901   19904   19903   19901   19904
   19907   19905   19906   19906   19905   19908   19907   19905   19908
   19911   19909   19910   19910   19909   19912   19911   19909   19912
   19915   19913   19914   19914   19913   19916   19915   19913   19916
   19919   19917   19918   19918   19917   19920   19919   19917   19920
   19923   19921   19922   19922   19921   19924   19923   19921   19924
   19927   19925   19926   19926   19925   19928   19927   19925   19928
   19931   19929   19930   19930   19929   19932   19931   19929   19932
   19935   19933   19934   19934   19933   19936   19935   19933   19936
   19939   19937   19938   19938   19937   19940   19939   19937   19940
   19943   19941   19942   19942   19941   19944   19943   19941   19944
   19947   19945   19946   19946   19945   19948   19947   19945   19948
   19951   19949   19950   19950   19949   19952   19951   19949   19952
   19955   19953   19954   19954   19953   19956   19955   19953   19956
   19959   19957   19958   19958   19957   19960   19959   19957   19960
   19963   19961   19962   19962   19961   19964   19963   19961   19964
   19967   19965   19966   19966   19965   19968   19967   19965   19968
   19971   19969   19970   19970   19969   19972   19971   19969   19972
   19975   19973   19974   19974   19973   19976   19975   19973   19976
   19979   19977   19978   19978   19977   19980   19979   19977   19980
   19983   19981   19982   19982   19981   19984   19983   19981   19984
   19987   19985   19986   19986   19985   19988   19987   19985   19988
   19991   19989   19990   19990   19989   19992   19991   19989   19992
   19995   19993   19994   19994   19993   19996   19995   19993   19996
   19999   19997   19998   19998   19997   20000   19999   19997   20000
   20003   20001   20002   20002   20001   20004   20003   20001   20004
   20007   20005   20006   20006   20005   20008   20007   20005   20008
   20011   20009   20010   20010   20009   20012   20011   20009   20012
   20015   20013   20014   20014   20013   20016   20015   20013   20016
   20019   20017   20018   20018   20017   20020   20019   20017   20020
   20023   20021   20022   20022   20021   20024   20023   20021   20024
   20027   20025   20026   20026   20025   20028   20027   20025   20028
   20031   20029   20030   20030   20029   20032   20031   20029   20032
   20035   20033   20034   20034   20033   20036   20035   20033   20036
   20039   20037   20038   20038   20037   20040   20039   20037   20040
   20043   20041   20042   20042   20041   20044   20043   20041   20044
   20047   20045   20046   20046   20045   20048   20047   20045   20048
   20051   20049   20050   20050   20049   20052   20051   20049   20052
   20055   20053   20054   20054   20053   20056   20055   20053   20056
   20059   20057   20058   20058   20057   20060   20059   20057   20060
   20063   20061   20062   20062   20061   20064   20063   20061   20064
   20067   20065   20066   20066   20065   20068   20067   20065   20068
   20071   20069   20070   20070   20069   20072   20071   20069   20072
   20075   20073   20074   20074   20073   20076   20075   20073   20076
   20079   20077   20078   20078   20077   20080   20079   20077   20080
   20083   20081   20082   20082   20081   20084   20083   20081   20084
   20087   20085   20086   20086   20085   20088   20087   20085   20088
   20091   20089   20090   20090   20089   20092   20091   20089   20092
   20095   20093   20094   20094   20093   20096   20095   20093   20096
   20099   20097   20098   20098   20097   20100   20099   20097   20100
   20103   20101   20102   20102   20101   20104   20103   20101   20104
   20107   20105   20106   20106   20105   20108   20107   20105   20108
   20111   20109   20110   20110   20109   20112   20111   20109   20112
   20115   20113   20114   20114   20113   20116   20115   20113   20116
   20119   20117   20118   20118   20117   20120   20119   20117   20120
   20123   20121   20122   20122   20121   20124   20123   20121   20124
   20127   20125   20126   20126   20125   20128   20127   20125   20128
   20131   20129   20130   20130   20129   20132   20131   20129   20132
   20135   20133   20134   20134   20133   20136   20135   20133   20136
   20139   20137   20138   20138   20137   20140   20139   20137   20140
   20143   20141   20142   20142   20141   20144   20143   20141   20144
   20147   20145   20146   20146   20145   20148   20147   20145   20148
   20151   20149   20150   20150   20149   20152   20151   20149   20152
   20155   20153   20154   20154   20153   20156   20155   20153   20156
   20159   20157   20158   20158   20157   20160   20159   20157   20160
   20163   20161   20162   20162   20161   20164   20163   20161   20164
   20167   20165   20166   20166   20165   20168   20167   20165   20168
   20171   20169   20170   20170   20169   20172   20171   20169   20172
   20175   20173   20174   20174   20173   20176   20175   20173   20176
   20179   20177   20178   20178   20177   20180   20179   20177   20180
   20183   20181   20182   20182   20181   20184   20183   20181   20184
   20187   20185   20186   20186   20185   20188   20187   20185   20188
   20191   20189   20190   20190   20189   20192   20191   20189   20192
   20195   20193   20194   20194   20193   20196   20195   20193   20196
   20199   20197   20198   20198   20197   20200   20199   20197   20200
   20203   20201   20202   20202   20201   20204   20203   20201   20204
   20207   20205   20206   20206   20205   20208   20207   20205   20208
   20211   20209   20210   20210   20209   20212   20211   20209   20212
   20215   20213   20214   20214   20213   20216   20215   20213   20216
   20219   20217   20218   20218   20217   20220   20219   20217   20220
   20223   20221   20222   20222   20221   20224   20223   20221   20224
   20227   20225   20226   20226   20225   20228   20227   20225   20228
   20231   20229   20230   20230   20229   20232   20231   20229   20232
   20235   20233   20234   20234   20233   20236   20235   20233   20236
   20239   20237   20238   20238   20237   20240   20239   20237   20240
   20243   20241   20242   20242   20241   20244   20243   20241   20244
   20247   20245   20246   20246   20245   20248   20247   20245   20248
   20251   20249   20250   20250   20249   20252   20251   20249   20252
   20255   20253   20254   20254   20253   20256   20255   20253   20256
   20259   20257   20258   20258   20257   20260   20259   20257   20260
   20263   20261   20262   20262   20261   20264   20263   20261   20264
   20267   20265   20266   20266   20265   20268   20267   20265   20268
   20271   20269   20270   20270   20269   20272   20271   20269   20272
   20275   20273   20274   20274   20273   20276   20275   20273   20276
   20279   20277   20278   20278   20277   20280   20279   20277   20280
   20283   20281   20282   20282   20281   20284   20283   20281   20284
   20287   20285   20286   20286   20285   20288   20287   20285   20288
   20291   20289   20290   20290   20289   20292   20291   20289   20292
   20295   20293   20294   20294   20293   20296   20295   20293   20296
   20299   20297   20298   20298   20297   20300   20299   20297   20300
   20303   20301   20302   20302   20301   20304   20303   20301   20304
   20307   20305   20306   20306   20305   20308   20307   20305   20308
   20311   20309   20310   20310   20309   20312   20311   20309   20312
   20315   20313   20314   20314   20313   20316   20315   20313   20316
   20319   20317   20318   20318   20317   20320   20319   20317   20320
   20323   20321   20322   20322   20321   20324   20323   20321   20324
   20327   20325   20326   20326   20325   20328   20327   20325   20328
   20331   20329   20330   20330   20329   20332   20331   20329   20332
   20335   20333   20334   20334   20333   20336   20335   20333   20336
   20339   20337   20338   20338   20337   20340   20339   20337   20340
   20343   20341   20342   20342   20341   20344   20343   20341   20344
   20347   20345   20346   20346   20345   20348   20347   20345   20348
   20351   20349   20350   20350   20349   20352   20351   20349   20352
   20355   20353   20354   20354   20353   20356   20355   20353   20356
   20359   20357   20358   20358   20357   20360   20359   20357   20360
   20363   20361   20362   20362   20361   20364   20363   20361   20364
   20367   20365   20366   20366   20365   20368   20367   20365   20368
   20371   20369   20370   20370   20369   20372   20371   20369   20372
   20375   20373   20374   20374   20373   20376   20375   20373   20376
   20379   20377   20378   20378   20377   20380   20379   20377   20380
   20383   20381   20382   20382   20381   20384   20383   20381   20384
   20387   20385   20386   20386   20385   20388   20387   20385   20388
   20391   20389   20390   20390   20389   20392   20391   20389   20392
   20395   20393   20394   20394   20393   20396   20395   20393   20396
   20399   20397   20398   20398   20397   20400   20399   20397   20400
   20403   20401   20402   20402   20401   20404   20403   20401   20404
   20407   20405   20406   20406   20405   20408   20407   20405   20408
   20411   20409   20410   20410   20409   20412   20411   20409   20412
   20415   20413   20414   20414   20413   20416   20415   20413   20416
   20419   20417   20418   20418   20417   20420   20419   20417   20420
   20423   20421   20422   20422   20421   20424   20423   20421   20424
   20427   20425   20426   20426   20425   20428   20427   20425   20428
   20431   20429   20430   20430   20429   20432   20431   20429   20432
   20435   20433   20434   20434   20433   20436   20435   20433   20436
   20439   20437   20438   20438   20437   20440   20439   20437   20440
   20443   20441   20442   20442   20441   20444   20443   20441   20444
   20447   20445   20446   20446   20445   20448   20447   20445   20448
   20451   20449   20450   20450   20449   20452   20451   20449   20452
   20455   20453   20454   20454   20453   20456   20455   20453   20456
   20459   20457   20458   20458   20457   20460   20459   20457   20460
   20463   20461   20462   20462   20461   20464   20463   20461   20464
   20467   20465   20466   20466   20465   20468   20467   20465   20468
   20471   20469   20470   20470   20469   20472   20471   20469   20472
   20475   20473   20474   20474   20473   20476   20475   20473   20476
   20479   20477   20478   20478   20477   20480   20479   20477   20480
   20483   20481   20482   20482   20481   20484   20483   20481   20484
   20487   20485   20486   20486   20485   20488   20487   20485   20488
   20491   20489   20490   20490   20489   20492   20491   20489   20492
   20495   20493   20494   20494   20493   20496   20495   20493   20496
   20499   20497   20498   20498   20497   20500   20499   20497   20500
   20503   20501   20502   20502   20501   20504   20503   20501   20504
   20507   20505   20506   20506   20505   20508   20507   20505   20508
   20511   20509   20510   20510   20509   20512   20511   20509   20512
   20515   20513   20514   20514   20513   20516   20515   20513   20516
   20519   20517   20518   20518   20517   20520   20519   20517   20520
   20523   20521   20522   20522   20521   20524   20523   20521   20524
   20527   20525   20526   20526   20525   20528   20527   20525   20528
   20531   20529   20530   20530   20529   20532   20531   20529   20532
   20535   20533   20534   20534   20533   20536   20535   20533   20536
   20539   20537   20538   20538   20537   20540   20539   20537   20540
   20543   20541   20542   20542   20541   20544   20543   20541   20544
   20547   20545   20546   20546   20545   20548   20547   20545   20548
   20551   20549   20550   20550   20549   20552   20551   20549   20552
   20555   20553   20554   20554   20553   20556   20555   20553   20556
   20559   20557   20558   20558   20557   20560   20559   20557   20560
   20563   20561   20562   20562   20561   20564   20563   20561   20564
   20567   20565   20566   20566   20565   20568   20567   20565   20568
   20571   20569   20570   20570   20569   20572   20571   20569   20572
   20575   20573   20574   20574   20573   20576   20575   20573   20576
   20579   20577   20578   20578   20577   20580   20579   20577   20580
   20583   20581   20582   20582   20581   20584   20583   20581   20584
   20587   20585   20586   20586   20585   20588   20587   20585   20588
   20591   20589   20590   20590   20589   20592   20591   20589   20592
   20595   20593   20594   20594   20593   20596   20595   20593   20596
   20599   20597   20598   20598   20597   20600   20599   20597   20600
   20603   20601   20602   20602   20601   20604   20603   20601   20604
   20607   20605   20606   20606   20605   20608   20607   20605   20608
   20611   20609   20610   20610   20609   20612   20611   20609   20612
   20615   20613   20614   20614   20613   20616   20615   20613   20616
   20619   20617   20618   20618   20617   20620   20619   20617   20620
   20623   20621   20622   20622   20621   20624   20623   20621   20624
   20627   20625   20626   20626   20625   20628   20627   20625   20628
   20631   20629   20630   20630   20629   20632   20631   20629   20632
   20635   20633   20634   20634   20633   20636   20635   20633   20636
   20639   20637   20638   20638   20637   20640   20639   20637   20640
   20643   20641   20642   20642   20641   20644   20643   20641   20644
   20647   20645   20646   20646   20645   20648   20647   20645   20648
   20651   20649   20650   20650   20649   20652   20651   20649   20652
   20655   20653   20654   20654   20653   20656   20655   20653   20656
   20659   20657   20658   20658   20657   20660   20659   20657   20660
   20663   20661   20662   20662   20661   20664   20663   20661   20664
   20667   20665   20666   20666   20665   20668   20667   20665   20668
   20671   20669   20670   20670   20669   20672   20671   20669   20672
   20675   20673   20674   20674   20673   20676   20675   20673   20676
   20679   20677   20678   20678   20677   20680   20679   20677   20680
   20683   20681   20682   20682   20681   20684   20683   20681   20684
   20687   20685   20686   20686   20685   20688   20687   20685   20688
   20691   20689   20690   20690   20689   20692   20691   20689   20692
   20695   20693   20694   20694   20693   20696   20695   20693   20696
   20699   20697   20698   20698   20697   20700   20699   20697   20700
   20703   20701   20702   20702   20701   20704   20703   20701   20704
   20707   20705   20706   20706   20705   20708   20707   20705   20708
   20711   20709   20710   20710   20709   20712   20711   20709   20712
   20715   20713   20714   20714   20713   20716   20715   20713   20716
   20719   20717   20718   20718   20717   20720   20719   20717   20720
   20723   20721   20722   20722   20721   20724   20723   20721   20724
   20727   20725   20726   20726   20725   20728   20727   20725   20728
   20731   20729   20730   20730   20729   20732   20731   20729   20732
   20735   20733   20734   20734   20733   20736   20735   20733   20736
   20739   20737   20738   20738   20737   20740   20739   20737   20740
   20743   20741   20742   20742   20741   20744   20743   20741   20744
   20747   20745   20746   20746   20745   20748   20747   20745   20748
   20751   20749   20750   20750   20749   20752   20751   20749   20752
   20755   20753   20754   20754   20753   20756   20755   20753   20756
   20759   20757   20758   20758   20757   20760   20759   20757   20760
   20763   20761   20762   20762   20761   20764   20763   20761   20764
   20767   20765   20766   20766   20765   20768   20767   20765   20768
   20771   20769   20770   20770   20769   20772   20771   20769   20772
   20775   20773   20774   20774   20773   20776   20775   20773   20776
   20779   20777   20778   20778   20777   20780   20779   20777   20780
   20783   20781   20782   20782   20781   20784   20783   20781   20784
   20787   20785   20786   20786   20785   20788   20787   20785   20788
   20791   20789   20790   20790   20789   20792   20791   20789   20792
   20795   20793   20794   20794   20793   20796   20795   20793   20796
   20799   20797   20798   20798   20797   20800   20799   20797   20800
   20803   20801   20802   20802   20801   20804   20803   20801   20804
   20807   20805   20806   20806   20805   20808   20807   20805   20808
   20811   20809   20810   20810   20809   20812   20811   20809   20812
   20815   20813   20814   20814   20813   20816   20815   20813   20816
   20819   20817   20818   20818   20817   20820   20819   20817   20820
   20823   20821   20822   20822   20821   20824   20823   20821   20824
   20827   20825   20826   20826   20825   20828   20827   20825   20828
   20831   20829   20830   20830   20829   20832   20831   20829   20832
   20835   20833   20834   20834   20833   20836   20835   20833   20836
   20839   20837   20838   20838   20837   20840   20839   20837   20840
   20843   20841   20842   20842   20841   20844   20843   20841   20844
   20847   20845   20846   20846   20845   20848   20847   20845   20848
   20851   20849   20850   20850   20849   20852   20851   20849   20852
   20855   20853   20854   20854   20853   20856   20855   20853   20856
   20859   20857   20858   20858   20857   20860   20859   20857   20860
   20863   20861   20862   20862   20861   20864   20863   20861   20864
   20867   20865   20866   20866   20865   20868   20867   20865   20868
   20871   20869   20870   20870   20869   20872   20871   20869   20872
   20875   20873   20874   20874   20873   20876   20875   20873   20876
   20879   20877   20878   20878   20877   20880   20879   20877   20880
   20883   20881   20882   20882   20881   20884   20883   20881   20884
   20887   20885   20886   20886   20885   20888   20887   20885   20888
   20891   20889   20890   20890   20889   20892   20891   20889   20892
   20895   20893   20894   20894   20893   20896   20895   20893   20896
   20899   20897   20898   20898   20897   20900   20899   20897   20900
   20903   20901   20902   20902   20901   20904   20903   20901   20904
   20907   20905   20906   20906   20905   20908   20907   20905   20908
   20911   20909   20910   20910   20909   20912   20911   20909   20912
   20915   20913   20914   20914   20913   20916   20915   20913   20916
   20919   20917   20918   20918   20917   20920   20919   20917   20920
   20923   20921   20922   20922   20921   20924   20923   20921   20924
   20927   20925   20926   20926   20925   20928   20927   20925   20928
   20931   20929   20930   20930   20929   20932   20931   20929   20932
   20935   20933   20934   20934   20933   20936   20935   20933   20936
   20939   20937   20938   20938   20937   20940   20939   20937   20940
   20943   20941   20942   20942   20941   20944   20943   20941   20944
   20947   20945   20946   20946   20945   20948   20947   20945   20948
   20951   20949   20950   20950   20949   20952   20951   20949   20952
   20955   20953   20954   20954   20953   20956   20955   20953   20956
   20959   20957   20958   20958   20957   20960   20959   20957   20960
   20963   20961   20962   20962   20961   20964   20963   20961   20964
   20967   20965   20966   20966   20965   20968   20967   20965   20968
   20971   20969   20970   20970   20969   20972   20971   20969   20972
   20975   20973   20974   20974   20973   20976   20975   20973   20976
   20979   20977   20978   20978   20977   20980   20979   20977   20980
   20983   20981   20982   20982   20981   20984   20983   20981   20984
   20987   20985   20986   20986   20985   20988   20987   20985   20988
   20991   20989   20990   20990   20989   20992   20991   20989   20992
   20995   20993   20994   20994   20993   20996   20995   20993   20996
   20999   20997   20998   20998   20997   21000   20999   20997   21000
   21003   21001   21002   21002   21001   21004   21003   21001   21004
   21007   21005   21006   21006   21005   21008   21007   21005   21008
   21011   21009   21010   21010   21009   21012   21011   21009   21012
   21015   21013   21014   21014   21013   21016   21015   21013   21016
   21019   21017   21018   21018   21017   21020   21019   21017   21020
   21023   21021   21022   21022   21021   21024   21023   21021   21024
   21027   21025   21026   21026   21025   21028   21027   21025   21028
   21031   21029   21030   21030   21029   21032   21031   21029   21032
   21035   21033   21034   21034   21033   21036   21035   21033   21036
   21039   21037   21038   21038   21037   21040   21039   21037   21040
   21043   21041   21042   21042   21041   21044   21043   21041   21044
   21047   21045   21046   21046   21045   21048   21047   21045   21048
   21051   21049   21050   21050   21049   21052   21051   21049   21052
   21055   21053   21054   21054   21053   21056   21055   21053   21056
   21059   21057   21058   21058   21057   21060   21059   21057   21060
   21063   21061   21062   21062   21061   21064   21063   21061   21064
   21067   21065   21066   21066   21065   21068   21067   21065   21068
   21071   21069   21070   21070   21069   21072   21071   21069   21072
   21075   21073   21074   21074   21073   21076   21075   21073   21076
   21079   21077   21078   21078   21077   21080   21079   21077   21080
   21083   21081   21082   21082   21081   21084   21083   21081   21084
   21087   21085   21086   21086   21085   21088   21087   21085   21088
   21091   21089   21090   21090   21089   21092   21091   21089   21092
   21095   21093   21094   21094   21093   21096   21095   21093   21096
   21099   21097   21098   21098   21097   21100   21099   21097   21100
   21103   21101   21102   21102   21101   21104   21103   21101   21104
   21107   21105   21106   21106   21105   21108   21107   21105   21108
   21111   21109   21110   21110   21109   21112   21111   21109   21112
   21115   21113   21114   21114   21113   21116   21115   21113   21116
   21119   21117   21118   21118   21117   21120   21119   21117   21120
   21123   21121   21122   21122   21121   21124   21123   21121   21124
   21127   21125   21126   21126   21125   21128   21127   21125   21128
   21131   21129   21130   21130   21129   21132   21131   21129   21132
   21135   21133   21134   21134   21133   21136   21135   21133   21136
   21139   21137   21138   21138   21137   21140   21139   21137   21140
   21143   21141   21142   21142   21141   21144   21143   21141   21144
   21147   21145   21146   21146   21145   21148   21147   21145   21148
   21151   21149   21150   21150   21149   21152   21151   21149   21152
   21155   21153   21154   21154   21153   21156   21155   21153   21156
   21159   21157   21158   21158   21157   21160   21159   21157   21160
   21163   21161   21162   21162   21161   21164   21163   21161   21164
   21167   21165   21166   21166   21165   21168   21167   21165   21168
   21171   21169   21170   21170   21169   21172   21171   21169   21172
   21175   21173   21174   21174   21173   21176   21175   21173   21176
   21179   21177   21178   21178   21177   21180   21179   21177   21180
   21183   21181   21182   21182   21181   21184   21183   21181   21184
   21187   21185   21186   21186   21185   21188   21187   21185   21188
   21191   21189   21190   21190   21189   21192   21191   21189   21192
   21195   21193   21194   21194   21193   21196   21195   21193   21196
   21199   21197   21198   21198   21197   21200   21199   21197   21200
   21203   21201   21202   21202   21201   21204   21203   21201   21204
   21207   21205   21206   21206   21205   21208   21207   21205   21208
   21211   21209   21210   21210   21209   21212   21211   21209   21212
   21215   21213   21214   21214   21213   21216   21215   21213   21216
   21219   21217   21218   21218   21217   21220   21219   21217   21220
   21223   21221   21222   21222   21221   21224   21223   21221   21224
   21227   21225   21226   21226   21225   21228   21227   21225   21228
   21231   21229   21230   21230   21229   21232   21231   21229   21232
   21235   21233   21234   21234   21233   21236   21235   21233   21236
   21239   21237   21238   21238   21237   21240   21239   21237   21240
   21243   21241   21242   21242   21241   21244   21243   21241   21244
   21247   21245   21246   21246   21245   21248   21247   21245   21248
   21251   21249   21250   21250   21249   21252   21251   21249   21252
   21255   21253   21254   21254   21253   21256   21255   21253   21256
   21259   21257   21258   21258   21257   21260   21259   21257   21260
   21263   21261   21262   21262   21261   21264   21263   21261   21264
   21267   21265   21266   21266   21265   21268   21267   21265   21268
   21271   21269   21270   21270   21269   21272   21271   21269   21272
   21275   21273   21274   21274   21273   21276   21275   21273   21276
   21279   21277   21278   21278   21277   21280   21279   21277   21280
   21283   21281   21282   21282   21281   21284   21283   21281   21284
   21287   21285   21286   21286   21285   21288   21287   21285   21288
   21291   21289   21290   21290   21289   21292   21291   21289   21292
   21295   21293   21294   21294   21293   21296   21295   21293   21296
   21299   21297   21298   21298   21297   21300   21299   21297   21300
   21303   21301   21302   21302   21301   21304   21303   21301   21304
   21307   21305   21306   21306   21305   21308   21307   21305   21308
   21311   21309   21310   21310   21309   21312   21311   21309   21312
   21315   21313   21314   21314   21313   21316   21315   21313   21316
   21319   21317   21318   21318   21317   21320   21319   21317   21320
   21323   21321   21322   21322   21321   21324   21323   21321   21324
   21327   21325   21326   21326   21325   21328   21327   21325   21328
   21331   21329   21330   21330   21329   21332   21331   21329   21332
   21335   21333   21334   21334   21333   21336   21335   21333   21336
   21339   21337   21338   21338   21337   21340   21339   21337   21340
   21343   21341   21342   21342   21341   21344   21343   21341   21344
   21347   21345   21346   21346   21345   21348   21347   21345   21348
   21351   21349   21350   21350   21349   21352   21351   21349   21352
   21355   21353   21354   21354   21353   21356   21355   21353   21356
   21359   21357   21358   21358   21357   21360   21359   21357   21360
   21363   21361   21362   21362   21361   21364   21363   21361   21364
   21367   21365   21366   21366   21365   21368   21367   21365   21368
   21371   21369   21370   21370   21369   21372   21371   21369   21372
   21375   21373   21374   21374   21373   21376   21375   21373   21376
   21379   21377   21378   21378   21377   21380   21379   21377   21380
   21383   21381   21382   21382   21381   21384   21383   21381   21384
   21387   21385   21386   21386   21385   21388   21387   21385   21388
   21391   21389   21390   21390   21389   21392   21391   21389   21392
   21395   21393   21394   21394   21393   21396   21395   21393   21396
   21399   21397   21398   21398   21397   21400   21399   21397   21400
   21403   21401   21402   21402   21401   21404   21403   21401   21404
   21407   21405   21406   21406   21405   21408   21407   21405   21408
   21411   21409   21410   21410   21409   21412   21411   21409   21412
   21415   21413   21414   21414   21413   21416   21415   21413   21416
   21419   21417   21418   21418   21417   21420   21419   21417   21420
   21423   21421   21422   21422   21421   21424   21423   21421   21424
   21427   21425   21426   21426   21425   21428   21427   21425   21428
   21431   21429   21430   21430   21429   21432   21431   21429   21432
   21435   21433   21434   21434   21433   21436   21435   21433   21436
   21439   21437   21438   21438   21437   21440   21439   21437   21440
   21443   21441   21442   21442   21441   21444   21443   21441   21444
   21447   21445   21446   21446   21445   21448   21447   21445   21448
   21451   21449   21450   21450   21449   21452   21451   21449   21452
   21455   21453   21454   21454   21453   21456   21455   21453   21456
   21459   21457   21458   21458   21457   21460   21459   21457   21460
   21463   21461   21462   21462   21461   21464   21463   21461   21464
   21467   21465   21466   21466   21465   21468   21467   21465   21468
   21471   21469   21470   21470   21469   21472   21471   21469   21472
   21475   21473   21474   21474   21473   21476   21475   21473   21476
   21479   21477   21478   21478   21477   21480   21479   21477   21480
   21483   21481   21482   21482   21481   21484   21483   21481   21484
   21487   21485   21486   21486   21485   21488   21487   21485   21488
   21491   21489   21490   21490   21489   21492   21491   21489   21492
   21495   21493   21494   21494   21493   21496   21495   21493   21496
   21499   21497   21498   21498   21497   21500   21499   21497   21500
   21503   21501   21502   21502   21501   21504   21503   21501   21504
   21507   21505   21506   21506   21505   21508   21507   21505   21508
   21511   21509   21510   21510   21509   21512   21511   21509   21512
   21515   21513   21514   21514   21513   21516   21515   21513   21516
   21519   21517   21518   21518   21517   21520   21519   21517   21520
   21523   21521   21522   21522   21521   21524   21523   21521   21524
   21527   21525   21526   21526   21525   21528   21527   21525   21528
   21531   21529   21530   21530   21529   21532   21531   21529   21532
   21535   21533   21534   21534   21533   21536   21535   21533   21536
   21539   21537   21538   21538   21537   21540   21539   21537   21540
   21543   21541   21542   21542   21541   21544   21543   21541   21544
   21547   21545   21546   21546   21545   21548   21547   21545   21548
   21551   21549   21550   21550   21549   21552   21551   21549   21552
   21555   21553   21554   21554   21553   21556   21555   21553   21556
   21559   21557   21558   21558   21557   21560   21559   21557   21560
   21563   21561   21562   21562   21561   21564   21563   21561   21564
   21567   21565   21566   21566   21565   21568   21567   21565   21568
   21571   21569   21570   21570   21569   21572   21571   21569   21572
   21575   21573   21574   21574   21573   21576   21575   21573   21576
   21579   21577   21578   21578   21577   21580   21579   21577   21580
   21583   21581   21582   21582   21581   21584   21583   21581   21584
   21587   21585   21586   21586   21585   21588   21587   21585   21588
   21591   21589   21590   21590   21589   21592   21591   21589   21592
   21595   21593   21594   21594   21593   21596   21595   21593   21596
   21599   21597   21598   21598   21597   21600   21599   21597   21600
   21603   21601   21602   21602   21601   21604   21603   21601   21604
   21607   21605   21606   21606   21605   21608   21607   21605   21608
   21611   21609   21610   21610   21609   21612   21611   21609   21612
   21615   21613   21614   21614   21613   21616   21615   21613   21616
   21619   21617   21618   21618   21617   21620   21619   21617   21620
   21623   21621   21622   21622   21621   21624   21623   21621   21624
   21627   21625   21626   21626   21625   21628   21627   21625   21628
   21631   21629   21630   21630   21629   21632   21631   21629   21632
   21635   21633   21634   21634   21633   21636   21635   21633   21636
   21639   21637   21638   21638   21637   21640   21639   21637   21640
   21643   21641   21642   21642   21641   21644   21643   21641   21644
   21647   21645   21646   21646   21645   21648   21647   21645   21648
   21651   21649   21650   21650   21649   21652   21651   21649   21652
   21655   21653   21654   21654   21653   21656   21655   21653   21656
   21659   21657   21658   21658   21657   21660   21659   21657   21660
   21663   21661   21662   21662   21661   21664   21663   21661   21664
   21667   21665   21666   21666   21665   21668   21667   21665   21668
   21671   21669   21670   21670   21669   21672   21671   21669   21672
   21675   21673   21674   21674   21673   21676   21675   21673   21676
   21679   21677   21678   21678   21677   21680   21679   21677   21680
   21683   21681   21682   21682   21681   21684   21683   21681   21684
   21687   21685   21686   21686   21685   21688   21687   21685   21688
   21691   21689   21690   21690   21689   21692   21691   21689   21692
   21695   21693   21694   21694   21693   21696   21695   21693   21696
   21699   21697   21698   21698   21697   21700   21699   21697   21700
   21703   21701   21702   21702   21701   21704   21703   21701   21704
   21707   21705   21706   21706   21705   21708   21707   21705   21708
   21711   21709   21710   21710   21709   21712   21711   21709   21712
   21715   21713   21714   21714   21713   21716   21715   21713   21716
   21719   21717   21718   21718   21717   21720   21719   21717   21720
   21723   21721   21722   21722   21721   21724   21723   21721   21724
   21727   21725   21726   21726   21725   21728   21727   21725   21728
   21731   21729   21730   21730   21729   21732   21731   21729   21732
   21735   21733   21734   21734   21733   21736   21735   21733   21736
   21739   21737   21738   21738   21737   21740   21739   21737   21740
   21743   21741   21742   21742   21741   21744   21743   21741   21744
   21747   21745   21746   21746   21745   21748   21747   21745   21748
   21751   21749   21750   21750   21749   21752   21751   21749   21752
   21755   21753   21754   21754   21753   21756   21755   21753   21756
   21759   21757   21758   21758   21757   21760   21759   21757   21760
   21763   21761   21762   21762   21761   21764   21763   21761   21764
   21767   21765   21766   21766   21765   21768   21767   21765   21768
   21771   21769   21770   21770   21769   21772   21771   21769   21772
   21775   21773   21774   21774   21773   21776   21775   21773   21776
   21779   21777   21778   21778   21777   21780   21779   21777   21780
   21783   21781   21782   21782   21781   21784   21783   21781   21784
   21787   21785   21786   21786   21785   21788   21787   21785   21788
   21791   21789   21790   21790   21789   21792   21791   21789   21792
   21795   21793   21794   21794   21793   21796   21795   21793   21796
   21799   21797   21798   21798   21797   21800   21799   21797   21800
   21803   21801   21802   21802   21801   21804   21803   21801   21804
   21807   21805   21806   21806   21805   21808   21807   21805   21808
   21811   21809   21810   21810   21809   21812   21811   21809   21812
   21815   21813   21814   21814   21813   21816   21815   21813   21816
   21819   21817   21818   21818   21817   21820   21819   21817   21820
   21823   21821   21822   21822   21821   21824   21823   21821   21824
   21827   21825   21826   21826   21825   21828   21827   21825   21828
   21831   21829   21830   21830   21829   21832   21831   21829   21832
   21835   21833   21834   21834   21833   21836   21835   21833   21836
   21839   21837   21838   21838   21837   21840   21839   21837   21840
   21843   21841   21842   21842   21841   21844   21843   21841   21844
   21847   21845   21846   21846   21845   21848   21847   21845   21848
   21851   21849   21850   21850   21849   21852   21851   21849   21852
   21855   21853   21854   21854   21853   21856   21855   21853   21856
   21859   21857   21858   21858   21857   21860   21859   21857   21860
   21863   21861   21862   21862   21861   21864   21863   21861   21864
   21867   21865   21866   21866   21865   21868   21867   21865   21868
   21871   21869   21870   21870   21869   21872   21871   21869   21872
   21875   21873   21874   21874   21873   21876   21875   21873   21876
   21879   21877   21878   21878   21877   21880   21879   21877   21880
   21883   21881   21882   21882   21881   21884   21883   21881   21884
   21887   21885   21886   21886   21885   21888   21887   21885   21888
   21891   21889   21890   21890   21889   21892   21891   21889   21892
   21895   21893   21894   21894   21893   21896   21895   21893   21896
   21899   21897   21898   21898   21897   21900   21899   21897   21900
   21903   21901   21902   21902   21901   21904   21903   21901   21904
   21907   21905   21906   21906   21905   21908   21907   21905   21908
   21911   21909   21910   21910   21909   21912   21911   21909   21912
   21915   21913   21914   21914   21913   21916   21915   21913   21916
   21919   21917   21918   21918   21917   21920   21919   21917   21920
   21923   21921   21922   21922   21921   21924   21923   21921   21924
   21927   21925   21926   21926   21925   21928   21927   21925   21928
   21931   21929   21930   21930   21929   21932   21931   21929   21932
   21935   21933   21934   21934   21933   21936   21935   21933   21936
   21939   21937   21938   21938   21937   21940   21939   21937   21940
   21943   21941   21942   21942   21941   21944   21943   21941   21944
   21947   21945   21946   21946   21945   21948   21947   21945   21948
   21951   21949   21950   21950   21949   21952   21951   21949   21952
   21955   21953   21954   21954   21953   21956   21955   21953   21956
   21959   21957   21958   21958   21957   21960   21959   21957   21960
   21963   21961   21962   21962   21961   21964   21963   21961   21964
   21967   21965   21966   21966   21965   21968   21967   21965   21968
   21971   21969   21970   21970   21969   21972   21971   21969   21972
   21975   21973   21974   21974   21973   21976   21975   21973   21976
   21979   21977   21978   21978   21977   21980   21979   21977   21980
   21983   21981   21982   21982   21981   21984   21983   21981   21984
   21987   21985   21986   21986   21985   21988   21987   21985   21988
   21991   21989   21990   21990   21989   21992   21991   21989   21992
   21995   21993   21994   21994   21993   21996   21995   21993   21996
   21999   21997   21998   21998   21997   22000   21999   21997   22000
   22003   22001   22002   22002   22001   22004   22003   22001   22004
   22007   22005   22006   22006   22005   22008   22007   22005   22008
   22011   22009   22010   22010   22009   22012   22011   22009   22012
   22015   22013   22014   22014   22013   22016   22015   22013   22016
   22019   22017   22018   22018   22017   22020   22019   22017   22020
   22023   22021   22022   22022   22021   22024   22023   22021   22024
   22027   22025   22026   22026   22025   22028   22027   22025   22028
   22031   22029   22030   22030   22029   22032   22031   22029   22032
   22035   22033   22034   22034   22033   22036   22035   22033   22036
   22039   22037   22038   22038   22037   22040   22039   22037   22040
   22043   22041   22042   22042   22041   22044   22043   22041   22044
   22047   22045   22046   22046   22045   22048   22047   22045   22048
   22051   22049   22050   22050   22049   22052   22051   22049   22052
   22055   22053   22054   22054   22053   22056   22055   22053   22056
   22059   22057   22058   22058   22057   22060   22059   22057   22060
   22063   22061   22062   22062   22061   22064   22063   22061   22064
   22067   22065   22066   22066   22065   22068   22067   22065   22068
   22071   22069   22070   22070   22069   22072   22071   22069   22072
   22075   22073   22074   22074   22073   22076   22075   22073   22076
   22079   22077   22078   22078   22077   22080   22079   22077   22080
   22083   22081   22082   22082   22081   22084   22083   22081   22084
   22087   22085   22086   22086   22085   22088   22087   22085   22088
   22091   22089   22090   22090   22089   22092   22091   22089   22092
   22095   22093   22094   22094   22093   22096   22095   22093   22096
   22099   22097   22098   22098   22097   22100   22099   22097   22100
   22103   22101   22102   22102   22101   22104   22103   22101   22104
   22107   22105   22106   22106   22105   22108   22107   22105   22108
   22111   22109   22110   22110   22109   22112   22111   22109   22112
   22115   22113   22114   22114   22113   22116   22115   22113   22116
   22119   22117   22118   22118   22117   22120   22119   22117   22120
   22123   22121   22122   22122   22121   22124   22123   22121   22124
   22127   22125   22126   22126   22125   22128   22127   22125   22128
   22131   22129   22130   22130   22129   22132   22131   22129   22132
   22135   22133   22134   22134   22133   22136   22135   22133   22136
   22139   22137   22138   22138   22137   22140   22139   22137   22140
   22143   22141   22142   22142   22141   22144   22143   22141   22144
   22147   22145   22146   22146   22145   22148   22147   22145   22148
   22151   22149   22150   22150   22149   22152   22151   22149   22152
   22155   22153   22154   22154   22153   22156   22155   22153   22156
   22159   22157   22158   22158   22157   22160   22159   22157   22160
   22163   22161   22162   22162   22161   22164   22163   22161   22164
   22167   22165   22166   22166   22165   22168   22167   22165   22168
   22171   22169   22170   22170   22169   22172   22171   22169   22172
   22175   22173   22174   22174   22173   22176   22175   22173   22176
   22179   22177   22178   22178   22177   22180   22179   22177   22180
   22183   22181   22182   22182   22181   22184   22183   22181   22184
   22187   22185   22186   22186   22185   22188   22187   22185   22188
   22191   22189   22190   22190   22189   22192   22191   22189   22192
   22195   22193   22194   22194   22193   22196   22195   22193   22196
   22199   22197   22198   22198   22197   22200   22199   22197   22200
   22203   22201   22202   22202   22201   22204   22203   22201   22204
   22207   22205   22206   22206   22205   22208   22207   22205   22208
   22211   22209   22210   22210   22209   22212   22211   22209   22212
   22215   22213   22214   22214   22213   22216   22215   22213   22216
   22219   22217   22218   22218   22217   22220   22219   22217   22220
   22223   22221   22222   22222   22221   22224   22223   22221   22224
   22227   22225   22226   22226   22225   22228   22227   22225   22228
   22231   22229   22230   22230   22229   22232   22231   22229   22232
   22235   22233   22234   22234   22233   22236   22235   22233   22236
   22239   22237   22238   22238   22237   22240   22239   22237   22240
   22243   22241   22242   22242   22241   22244   22243   22241   22244
   22247   22245   22246   22246   22245   22248   22247   22245   22248
   22251   22249   22250   22250   22249   22252   22251   22249   22252
   22255   22253   22254   22254   22253   22256   22255   22253   22256
   22259   22257   22258   22258   22257   22260   22259   22257   22260
   22263   22261   22262   22262   22261   22264   22263   22261   22264
   22267   22265   22266   22266   22265   22268   22267   22265   22268
   22271   22269   22270   22270   22269   22272   22271   22269   22272
   22275   22273   22274   22274   22273   22276   22275   22273   22276
   22279   22277   22278   22278   22277   22280   22279   22277   22280
   22283   22281   22282   22282   22281   22284   22283   22281   22284
   22287   22285   22286   22286   22285   22288   22287   22285   22288
   22291   22289   22290   22290   22289   22292   22291   22289   22292
   22295   22293   22294   22294   22293   22296   22295   22293   22296
   22299   22297   22298   22298   22297   22300   22299   22297   22300
   22303   22301   22302   22302   22301   22304   22303   22301   22304
   22307   22305   22306   22306   22305   22308   22307   22305   22308
   22311   22309   22310   22310   22309   22312   22311   22309   22312
   22315   22313   22314   22314   22313   22316   22315   22313   22316
   22319   22317   22318   22318   22317   22320   22319   22317   22320
   22323   22321   22322   22322   22321   22324   22323   22321   22324
   22327   22325   22326   22326   22325   22328   22327   22325   22328
   22331   22329   22330   22330   22329   22332   22331   22329   22332
   22335   22333   22334   22334   22333   22336   22335   22333   22336
   22339   22337   22338   22338   22337   22340   22339   22337   22340
   22343   22341   22342   22342   22341   22344   22343   22341   22344
   22347   22345   22346   22346   22345   22348   22347   22345   22348
   22351   22349   22350   22350   22349   22352   22351   22349   22352
   22355   22353   22354   22354   22353   22356   22355   22353   22356
   22359   22357   22358   22358   22357   22360   22359   22357   22360
   22363   22361   22362   22362   22361   22364   22363   22361   22364
   22367   22365   22366   22366   22365   22368   22367   22365   22368
   22371   22369   22370   22370   22369   22372   22371   22369   22372
   22375   22373   22374   22374   22373   22376   22375   22373   22376
   22379   22377   22378   22378   22377   22380   22379   22377   22380
   22383   22381   22382   22382   22381   22384   22383   22381   22384
   22387   22385   22386   22386   22385   22388   22387   22385   22388
   22391   22389   22390   22390   22389   22392   22391   22389   22392
   22395   22393   22394   22394   22393   22396   22395   22393   22396
   22399   22397   22398   22398   22397   22400   22399   22397   22400
   22403   22401   22402   22402   22401   22404   22403   22401   22404
   22407   22405   22406   22406   22405   22408   22407   22405   22408
   22411   22409   22410   22410   22409   22412   22411   22409   22412
   22415   22413   22414   22414   22413   22416   22415   22413   22416
   22419   22417   22418   22418   22417   22420   22419   22417   22420
   22423   22421   22422   22422   22421   22424   22423   22421   22424
   22427   22425   22426   22426   22425   22428   22427   22425   22428
   22431   22429   22430   22430   22429   22432   22431   22429   22432
   22435   22433   22434   22434   22433   22436   22435   22433   22436
   22439   22437   22438   22438   22437   22440   22439   22437   22440
   22443   22441   22442   22442   22441   22444   22443   22441   22444
   22447   22445   22446   22446   22445   22448   22447   22445   22448
   22451   22449   22450   22450   22449   22452   22451   22449   22452
   22455   22453   22454   22454   22453   22456   22455   22453   22456
   22459   22457   22458   22458   22457   22460   22459   22457   22460
   22463   22461   22462   22462   22461   22464   22463   22461   22464
   22467   22465   22466   22466   22465   22468   22467   22465   22468
   22471   22469   22470   22470   22469   22472   22471   22469   22472
   22475   22473   22474   22474   22473   22476   22475   22473   22476
   22479   22477   22478   22478   22477   22480   22479   22477   22480
   22483   22481   22482   22482   22481   22484   22483   22481   22484
   22487   22485   22486   22486   22485   22488   22487   22485   22488
   22491   22489   22490   22490   22489   22492   22491   22489   22492
   22495   22493   22494   22494   22493   22496   22495   22493   22496
   22499   22497   22498   22498   22497   22500   22499   22497   22500
   22503   22501   22502   22502   22501   22504   22503   22501   22504
   22507   22505   22506   22506   22505   22508   22507   22505   22508
   22511   22509   22510   22510   22509   22512   22511   22509   22512
   22515   22513   22514   22514   22513   22516   22515   22513   22516
   22519   22517   22518   22518   22517   22520   22519   22517   22520
   22523   22521   22522   22522   22521   22524   22523   22521   22524
   22527   22525   22526   22526   22525   22528   22527   22525   22528
   22531   22529   22530   22530   22529   22532   22531   22529   22532
   22535   22533   22534   22534   22533   22536   22535   22533   22536
   22539   22537   22538   22538   22537   22540   22539   22537   22540
   22543   22541   22542   22542   22541   22544   22543   22541   22544
   22547   22545   22546   22546   22545   22548   22547   22545   22548
   22551   22549   22550   22550   22549   22552   22551   22549   22552
   22555   22553   22554   22554   22553   22556   22555   22553   22556
   22559   22557   22558   22558   22557   22560   22559   22557   22560
   22563   22561   22562   22562   22561   22564   22563   22561   22564
   22567   22565   22566   22566   22565   22568   22567   22565   22568
   22571   22569   22570   22570   22569   22572   22571   22569   22572
   22575   22573   22574   22574   22573   22576   22575   22573   22576
   22579   22577   22578   22578   22577   22580   22579   22577   22580
   22583   22581   22582   22582   22581   22584   22583   22581   22584
   22587   22585   22586   22586   22585   22588   22587   22585   22588
   22591   22589   22590   22590   22589   22592   22591   22589   22592
   22595   22593   22594   22594   22593   22596   22595   22593   22596
   22599   22597   22598   22598   22597   22600   22599   22597   22600
   22603   22601   22602   22602   22601   22604   22603   22601   22604
   22607   22605   22606   22606   22605   22608   22607   22605   22608
   22611   22609   22610   22610   22609   22612   22611   22609   22612
   22615   22613   22614   22614   22613   22616   22615   22613   22616
   22619   22617   22618   22618   22617   22620   22619   22617   22620
   22623   22621   22622   22622   22621   22624   22623   22621   22624
   22627   22625   22626   22626   22625   22628   22627   22625   22628
   22631   22629   22630   22630   22629   22632   22631   22629   22632
   22635   22633   22634   22634   22633   22636   22635   22633   22636
   22639   22637   22638   22638   22637   22640   22639   22637   22640
   22643   22641   22642   22642   22641   22644   22643   22641   22644
   22647   22645   22646   22646   22645   22648   22647   22645   22648
   22651   22649   22650   22650   22649   22652   22651   22649   22652
   22655   22653   22654   22654   22653   22656   22655   22653   22656
   22659   22657   22658   22658   22657   22660   22659   22657   22660
   22663   22661   22662   22662   22661   22664   22663   22661   22664
   22667   22665   22666   22666   22665   22668   22667   22665   22668
   22671   22669   22670   22670   22669   22672   22671   22669   22672
   22675   22673   22674   22674   22673   22676   22675   22673   22676
   22679   22677   22678   22678   22677   22680   22679   22677   22680
   22683   22681   22682   22682   22681   22684   22683   22681   22684
   22687   22685   22686   22686   22685   22688   22687   22685   22688
   22691   22689   22690   22690   22689   22692   22691   22689   22692
   22695   22693   22694   22694   22693   22696   22695   22693   22696
   22699   22697   22698   22698   22697   22700   22699   22697   22700
   22703   22701   22702   22702   22701   22704   22703   22701   22704
   22707   22705   22706   22706   22705   22708   22707   22705   22708
   22711   22709   22710   22710   22709   22712   22711   22709   22712
   22715   22713   22714   22714   22713   22716   22715   22713   22716
   22719   22717   22718   22718   22717   22720   22719   22717   22720
   22723   22721   22722   22722   22721   22724   22723   22721   22724
   22727   22725   22726   22726   22725   22728   22727   22725   22728
   22731   22729   22730   22730   22729   22732   22731   22729   22732
   22735   22733   22734   22734   22733   22736   22735   22733   22736
   22739   22737   22738   22738   22737   22740   22739   22737   22740
   22743   22741   22742   22742   22741   22744   22743   22741   22744
   22747   22745   22746   22746   22745   22748   22747   22745   22748
   22751   22749   22750   22750   22749   22752   22751   22749   22752
   22755   22753   22754   22754   22753   22756   22755   22753   22756
   22759   22757   22758   22758   22757   22760   22759   22757   22760
   22763   22761   22762   22762   22761   22764   22763   22761   22764
   22767   22765   22766   22766   22765   22768   22767   22765   22768
   22771   22769   22770   22770   22769   22772   22771   22769   22772
   22775   22773   22774   22774   22773   22776   22775   22773   22776
   22779   22777   22778   22778   22777   22780   22779   22777   22780
   22783   22781   22782   22782   22781   22784   22783   22781   22784
   22787   22785   22786   22786   22785   22788   22787   22785   22788
   22791   22789   22790   22790   22789   22792   22791   22789   22792
   22795   22793   22794   22794   22793   22796   22795   22793   22796
   22799   22797   22798   22798   22797   22800   22799   22797   22800
   22803   22801   22802   22802   22801   22804   22803   22801   22804
   22807   22805   22806   22806   22805   22808   22807   22805   22808
   22811   22809   22810   22810   22809   22812   22811   22809   22812
   22815   22813   22814   22814   22813   22816   22815   22813   22816
   22819   22817   22818   22818   22817   22820   22819   22817   22820
   22823   22821   22822   22822   22821   22824   22823   22821   22824
   22827   22825   22826   22826   22825   22828   22827   22825   22828
   22831   22829   22830   22830   22829   22832   22831   22829   22832
   22835   22833   22834   22834   22833   22836   22835   22833   22836
   22839   22837   22838   22838   22837   22840   22839   22837   22840
   22843   22841   22842   22842   22841   22844   22843   22841   22844
   22847   22845   22846   22846   22845   22848   22847   22845   22848
   22851   22849   22850   22850   22849   22852   22851   22849   22852
   22855   22853   22854   22854   22853   22856   22855   22853   22856
   22859   22857   22858   22858   22857   22860   22859   22857   22860
   22863   22861   22862   22862   22861   22864   22863   22861   22864
   22867   22865   22866   22866   22865   22868   22867   22865   22868
   22871   22869   22870   22870   22869   22872   22871   22869   22872
   22875   22873   22874   22874   22873   22876   22875   22873   22876
   22879   22877   22878   22878   22877   22880   22879   22877   22880
   22883   22881   22882   22882   22881   22884   22883   22881   22884
   22887   22885   22886   22886   22885   22888   22887   22885   22888
   22891   22889   22890   22890   22889   22892   22891   22889   22892
   22895   22893   22894   22894   22893   22896   22895   22893   22896
   22899   22897   22898   22898   22897   22900   22899   22897   22900
   22903   22901   22902   22902   22901   22904   22903   22901   22904
   22907   22905   22906   22906   22905   22908   22907   22905   22908
   22911   22909   22910   22910   22909   22912   22911   22909   22912
   22915   22913   22914   22914   22913   22916   22915   22913   22916
   22919   22917   22918   22918   22917   22920   22919   22917   22920
   22923   22921   22922   22922   22921   22924   22923   22921   22924
   22927   22925   22926   22926   22925   22928   22927   22925   22928
   22931   22929   22930   22930   22929   22932   22931   22929   22932
   22935   22933   22934   22934   22933   22936   22935   22933   22936
   22939   22937   22938   22938   22937   22940   22939   22937   22940
   22943   22941   22942   22942   22941   22944   22943   22941   22944
   22947   22945   22946   22946   22945   22948   22947   22945   22948
   22951   22949   22950   22950   22949   22952   22951   22949   22952
   22955   22953   22954   22954   22953   22956   22955   22953   22956
   22959   22957   22958   22958   22957   22960   22959   22957   22960
   22963   22961   22962   22962   22961   22964   22963   22961   22964
   22967   22965   22966   22966   22965   22968   22967   22965   22968
   22971   22969   22970   22970   22969   22972   22971   22969   22972
   22975   22973   22974   22974   22973   22976   22975   22973   22976
   22979   22977   22978   22978   22977   22980   22979   22977   22980
   22983   22981   22982   22982   22981   22984   22983   22981   22984
   22987   22985   22986   22986   22985   22988   22987   22985   22988
   22991   22989   22990   22990   22989   22992   22991   22989   22992
   22995   22993   22994   22994   22993   22996   22995   22993   22996
   22999   22997   22998   22998   22997   23000   22999   22997   23000
   23003   23001   23002   23002   23001   23004   23003   23001   23004
   23007   23005   23006   23006   23005   23008   23007   23005   23008
   23011   23009   23010   23010   23009   23012   23011   23009   23012
   23015   23013   23014   23014   23013   23016   23015   23013   23016
   23019   23017   23018   23018   23017   23020   23019   23017   23020
   23023   23021   23022   23022   23021   23024   23023   23021   23024
   23027   23025   23026   23026   23025   23028   23027   23025   23028
   23031   23029   23030   23030   23029   23032   23031   23029   23032
   23035   23033   23034   23034   23033   23036   23035   23033   23036
   23039   23037   23038   23038   23037   23040   23039   23037   23040
   23043   23041   23042   23042   23041   23044   23043   23041   23044
   23047   23045   23046   23046   23045   23048   23047   23045   23048
   23051   23049   23050   23050   23049   23052   23051   23049   23052
   23055   23053   23054   23054   23053   23056   23055   23053   23056
   23059   23057   23058   23058   23057   23060   23059   23057   23060
   23063   23061   23062   23062   23061   23064   23063   23061   23064
   23067   23065   23066   23066   23065   23068   23067   23065   23068
   23071   23069   23070   23070   23069   23072   23071   23069   23072
   23075   23073   23074   23074   23073   23076   23075   23073   23076
   23079   23077   23078   23078   23077   23080   23079   23077   23080
   23083   23081   23082   23082   23081   23084   23083   23081   23084
   23087   23085   23086   23086   23085   23088   23087   23085   23088
   23091   23089   23090   23090   23089   23092   23091   23089   23092
   23095   23093   23094   23094   23093   23096   23095   23093   23096
   23099   23097   23098   23098   23097   23100   23099   23097   23100
   23103   23101   23102   23102   23101   23104   23103   23101   23104
   23107   23105   23106   23106   23105   23108   23107   23105   23108
   23111   23109   23110   23110   23109   23112   23111   23109   23112
   23115   23113   23114   23114   23113   23116   23115   23113   23116
   23119   23117   23118   23118   23117   23120   23119   23117   23120
   23123   23121   23122   23122   23121   23124   23123   23121   23124
   23127   23125   23126   23126   23125   23128   23127   23125   23128
   23131   23129   23130   23130   23129   23132   23131   23129   23132
   23135   23133   23134   23134   23133   23136   23135   23133   23136
   23139   23137   23138   23138   23137   23140   23139   23137   23140
   23143   23141   23142   23142   23141   23144   23143   23141   23144
   23147   23145   23146   23146   23145   23148   23147   23145   23148
   23151   23149   23150   23150   23149   23152   23151   23149   23152
   23155   23153   23154   23154   23153   23156   23155   23153   23156
   23159   23157   23158   23158   23157   23160   23159   23157   23160
   23163   23161   23162   23162   23161   23164   23163   23161   23164
   23167   23165   23166   23166   23165   23168   23167   23165   23168
   23171   23169   23170   23170   23169   23172   23171   23169   23172
   23175   23173   23174   23174   23173   23176   23175   23173   23176
   23179   23177   23178   23178   23177   23180   23179   23177   23180
   23183   23181   23182   23182   23181   23184   23183   23181   23184
   23187   23185   23186   23186   23185   23188   23187   23185   23188
   23191   23189   23190   23190   23189   23192   23191   23189   23192
   23195   23193   23194   23194   23193   23196   23195   23193   23196
   23199   23197   23198   23198   23197   23200   23199   23197   23200
   23203   23201   23202   23202   23201   23204   23203   23201   23204
   23207   23205   23206   23206   23205   23208   23207   23205   23208
   23211   23209   23210   23210   23209   23212   23211   23209   23212
   23215   23213   23214   23214   23213   23216   23215   23213   23216
   23219   23217   23218   23218   23217   23220   23219   23217   23220
   23223   23221   23222   23222   23221   23224   23223   23221   23224
   23227   23225   23226   23226   23225   23228   23227   23225   23228
   23231   23229   23230   23230   23229   23232   23231   23229   23232
   23235   23233   23234   23234   23233   23236   23235   23233   23236
   23239   23237   23238   23238   23237   23240   23239   23237   23240
   23243   23241   23242   23242   23241   23244   23243   23241   23244
   23247   23245   23246   23246   23245   23248   23247   23245   23248
   23251   23249   23250   23250   23249   23252   23251   23249   23252
   23255   23253   23254   23254   23253   23256   23255   23253   23256
   23259   23257   23258   23258   23257   23260   23259   23257   23260
   23263   23261   23262   23262   23261   23264   23263   23261   23264
   23267   23265   23266   23266   23265   23268   23267   23265   23268
   23271   23269   23270   23270   23269   23272   23271   23269   23272
   23275   23273   23274   23274   23273   23276   23275   23273   23276
   23279   23277   23278   23278   23277   23280   23279   23277   23280
   23283   23281   23282   23282   23281   23284   23283   23281   23284
   23287   23285   23286   23286   23285   23288   23287   23285   23288
   23291   23289   23290   23290   23289   23292   23291   23289   23292
   23295   23293   23294   23294   23293   23296   23295   23293   23296
   23299   23297   23298   23298   23297   23300   23299   23297   23300
   23303   23301   23302   23302   23301   23304   23303   23301   23304
   23307   23305   23306   23306   23305   23308   23307   23305   23308
   23311   23309   23310   23310   23309   23312   23311   23309   23312
   23315   23313   23314   23314   23313   23316   23315   23313   23316
   23319   23317   23318   23318   23317   23320   23319   23317   23320
   23323   23321   23322   23322   23321   23324   23323   23321   23324
   23327   23325   23326   23326   23325   23328   23327   23325   23328
   23331   23329   23330   23330   23329   23332   23331   23329   23332
   23335   23333   23334   23334   23333   23336   23335   23333   23336
   23339   23337   23338   23338   23337   23340   23339   23337   23340
   23343   23341   23342   23342   23341   23344   23343   23341   23344
   23347   23345   23346   23346   23345   23348   23347   23345   23348
   23351   23349   23350   23350   23349   23352   23351   23349   23352
   23355   23353   23354   23354   23353   23356   23355   23353   23356
   23359   23357   23358   23358   23357   23360   23359   23357   23360
   23363   23361   23362   23362   23361   23364   23363   23361   23364
   23367   23365   23366   23366   23365   23368   23367   23365   23368
   23371   23369   23370   23370   23369   23372   23371   23369   23372
   23375   23373   23374   23374   23373   23376   23375   23373   23376
   23379   23377   23378   23378   23377   23380   23379   23377   23380
   23383   23381   23382   23382   23381   23384   23383   23381   23384
   23387   23385   23386   23386   23385   23388   23387   23385   23388
   23391   23389   23390   23390   23389   23392   23391   23389   23392
   23395   23393   23394   23394   23393   23396   23395   23393   23396
   23399   23397   23398   23398   23397   23400   23399   23397   23400
   23403   23401   23402   23402   23401   23404   23403   23401   23404
   23407   23405   23406   23406   23405   23408   23407   23405   23408
   23411   23409   23410   23410   23409   23412   23411   23409   23412
   23415   23413   23414   23414   23413   23416   23415   23413   23416
   23419   23417   23418   23418   23417   23420   23419   23417   23420
   23423   23421   23422   23422   23421   23424   23423   23421   23424
   23427   23425   23426   23426   23425   23428   23427   23425   23428
   23431   23429   23430   23430   23429   23432   23431   23429   23432
   23435   23433   23434   23434   23433   23436   23435   23433   23436
   23439   23437   23438   23438   23437   23440   23439   23437   23440
   23443   23441   23442   23442   23441   23444   23443   23441   23444
   23447   23445   23446   23446   23445   23448   23447   23445   23448
   23451   23449   23450   23450   23449   23452   23451   23449   23452
   23455   23453   23454   23454   23453   23456   23455   23453   23456
   23459   23457   23458   23458   23457   23460   23459   23457   23460
   23463   23461   23462   23462   23461   23464   23463   23461   23464
   23467   23465   23466   23466   23465   23468   23467   23465   23468
   23471   23469   23470   23470   23469   23472   23471   23469   23472
   23475   23473   23474   23474   23473   23476   23475   23473   23476
   23479   23477   23478   23478   23477   23480   23479   23477   23480
   23483   23481   23482   23482   23481   23484   23483   23481   23484
   23487   23485   23486   23486   23485   23488   23487   23485   23488
   23491   23489   23490   23490   23489   23492   23491   23489   23492
   23495   23493   23494   23494   23493   23496   23495   23493   23496
   23499   23497   23498   23498   23497   23500   23499   23497   23500
   23503   23501   23502   23502   23501   23504   23503   23501   23504
   23507   23505   23506   23506   23505   23508   23507   23505   23508
   23511   23509   23510   23510   23509   23512   23511   23509   23512
   23515   23513   23514   23514   23513   23516   23515   23513   23516
   23519   23517   23518   23518   23517   23520   23519   23517   23520
   23523   23521   23522   23522   23521   23524   23523   23521   23524
   23527   23525   23526   23526   23525   23528   23527   23525   23528
   23531   23529   23530   23530   23529   23532   23531   23529   23532
   23535   23533   23534   23534   23533   23536   23535   23533   23536
   23539   23537   23538   23538   23537   23540   23539   23537   23540
   23543   23541   23542   23542   23541   23544   23543   23541   23544
   23547   23545   23546   23546   23545   23548   23547   23545   23548
   23551   23549   23550   23550   23549   23552   23551   23549   23552
   23555   23553   23554   23554   23553   23556   23555   23553   23556
   23559   23557   23558   23558   23557   23560   23559   23557   23560
   23563   23561   23562   23562   23561   23564   23563   23561   23564
   23567   23565   23566   23566   23565   23568   23567   23565   23568
   23571   23569   23570   23570   23569   23572   23571   23569   23572
   23575   23573   23574   23574   23573   23576   23575   23573   23576
   23579   23577   23578   23578   23577   23580   23579   23577   23580
   23583   23581   23582   23582   23581   23584   23583   23581   23584
   23587   23585   23586   23586   23585   23588   23587   23585   23588
   23591   23589   23590   23590   23589   23592   23591   23589   23592
   23595   23593   23594   23594   23593   23596   23595   23593   23596
   23599   23597   23598   23598   23597   23600   23599   23597   23600
   23603   23601   23602   23602   23601   23604   23603   23601   23604
   23607   23605   23606   23606   23605   23608   23607   23605   23608
   23611   23609   23610   23610   23609   23612   23611   23609   23612
   23615   23613   23614   23614   23613   23616   23615   23613   23616
   23619   23617   23618   23618   23617   23620   23619   23617   23620
   23623   23621   23622   23622   23621   23624   23623   23621   23624
   23627   23625   23626   23626   23625   23628   23627   23625   23628
   23631   23629   23630   23630   23629   23632   23631   23629   23632
   23635   23633   23634   23634   23633   23636   23635   23633   23636
   23639   23637   23638   23638   23637   23640   23639   23637   23640
   23643   23641   23642   23642   23641   23644   23643   23641   23644
   23647   23645   23646   23646   23645   23648   23647   23645   23648
   23651   23649   23650   23650   23649   23652   23651   23649   23652
   23655   23653   23654   23654   23653   23656   23655   23653   23656
   23659   23657   23658   23658   23657   23660   23659   23657   23660
   23663   23661   23662   23662   23661   23664   23663   23661   23664
   23667   23665   23666   23666   23665   23668   23667   23665   23668
   23671   23669   23670   23670   23669   23672   23671   23669   23672
   23675   23673   23674   23674   23673   23676   23675   23673   23676
   23679   23677   23678   23678   23677   23680   23679   23677   23680
   23683   23681   23682   23682   23681   23684   23683   23681   23684
   23687   23685   23686   23686   23685   23688   23687   23685   23688
   23691   23689   23690   23690   23689   23692   23691   23689   23692
   23695   23693   23694   23694   23693   23696   23695   23693   23696
   23699   23697   23698   23698   23697   23700   23699   23697   23700
   23703   23701   23702   23702   23701   23704   23703   23701   23704
   23707   23705   23706   23706   23705   23708   23707   23705   23708
   23711   23709   23710   23710   23709   23712   23711   23709   23712
   23715   23713   23714   23714   23713   23716   23715   23713   23716
   23719   23717   23718   23718   23717   23720   23719   23717   23720
   23723   23721   23722   23722   23721   23724   23723   23721   23724
   23727   23725   23726   23726   23725   23728   23727   23725   23728
   23731   23729   23730   23730   23729   23732   23731   23729   23732
   23735   23733   23734   23734   23733   23736   23735   23733   23736
   23739   23737   23738   23738   23737   23740   23739   23737   23740
   23743   23741   23742   23742   23741   23744   23743   23741   23744
   23747   23745   23746   23746   23745   23748   23747   23745   23748
   23751   23749   23750   23750   23749   23752   23751   23749   23752
   23755   23753   23754   23754   23753   23756   23755   23753   23756
   23759   23757   23758   23758   23757   23760   23759   23757   23760
   23763   23761   23762   23762   23761   23764   23763   23761   23764
   23767   23765   23766   23766   23765   23768   23767   23765   23768
   23771   23769   23770   23770   23769   23772   23771   23769   23772
   23775   23773   23774   23774   23773   23776   23775   23773   23776
   23779   23777   23778   23778   23777   23780   23779   23777   23780
   23783   23781   23782   23782   23781   23784   23783   23781   23784
   23787   23785   23786   23786   23785   23788   23787   23785   23788
   23791   23789   23790   23790   23789   23792   23791   23789   23792
   23795   23793   23794   23794   23793   23796   23795   23793   23796
   23799   23797   23798   23798   23797   23800   23799   23797   23800
   23803   23801   23802   23802   23801   23804   23803   23801   23804
   23807   23805   23806   23806   23805   23808   23807   23805   23808
   23811   23809   23810   23810   23809   23812   23811   23809   23812
   23815   23813   23814   23814   23813   23816   23815   23813   23816
   23819   23817   23818   23818   23817   23820   23819   23817   23820
   23823   23821   23822   23822   23821   23824   23823   23821   23824
   23827   23825   23826   23826   23825   23828   23827   23825   23828
   23831   23829   23830   23830   23829   23832   23831   23829   23832
   23835   23833   23834   23834   23833   23836   23835   23833   23836
   23839   23837   23838   23838   23837   23840   23839   23837   23840
   23843   23841   23842   23842   23841   23844   23843   23841   23844
   23847   23845   23846   23846   23845   23848   23847   23845   23848
   23851   23849   23850   23850   23849   23852   23851   23849   23852
   23855   23853   23854   23854   23853   23856   23855   23853   23856
   23859   23857   23858   23858   23857   23860   23859   23857   23860
   23863   23861   23862   23862   23861   23864   23863   23861   23864
   23867   23865   23866   23866   23865   23868   23867   23865   23868
   23871   23869   23870   23870   23869   23872   23871   23869   23872
   23875   23873   23874   23874   23873   23876   23875   23873   23876
   23879   23877   23878   23878   23877   23880   23879   23877   23880
   23883   23881   23882   23882   23881   23884   23883   23881   23884
   23887   23885   23886   23886   23885   23888   23887   23885   23888
   23891   23889   23890   23890   23889   23892   23891   23889   23892
   23895   23893   23894   23894   23893   23896   23895   23893   23896
   23899   23897   23898   23898   23897   23900   23899   23897   23900
   23903   23901   23902   23902   23901   23904   23903   23901   23904
   23907   23905   23906   23906   23905   23908   23907   23905   23908
   23911   23909   23910   23910   23909   23912   23911   23909   23912
   23915   23913   23914   23914   23913   23916   23915   23913   23916
   23919   23917   23918   23918   23917   23920   23919   23917   23920
   23923   23921   23922   23922   23921   23924   23923   23921   23924
   23927   23925   23926   23926   23925   23928   23927   23925   23928
   23931   23929   23930   23930   23929   23932   23931   23929   23932
   23935   23933   23934   23934   23933   23936   23935   23933   23936
   23939   23937   23938   23938   23937   23940   23939   23937   23940
   23943   23941   23942   23942   23941   23944   23943   23941   23944
   23947   23945   23946   23946   23945   23948   23947   23945   23948
   23951   23949   23950   23950   23949   23952   23951   23949   23952
   23955   23953   23954   23954   23953   23956   23955   23953   23956
   23959   23957   23958   23958   23957   23960   23959   23957   23960
   23963   23961   23962   23962   23961   23964   23963   23961   23964
   23967   23965   23966   23966   23965   23968   23967   23965   23968
   23971   23969   23970   23970   23969   23972   23971   23969   23972
   23975   23973   23974   23974   23973   23976   23975   23973   23976
   23979   23977   23978   23978   23977   23980   23979   23977   23980
   23983   23981   23982   23982   23981   23984   23983   23981   23984
   23987   23985   23986   23986   23985   23988   23987   23985   23988
   23991   23989   23990   23990   23989   23992   23991   23989   23992
   23995   23993   23994   23994   23993   23996   23995   23993   23996
   23999   23997   23998   23998   23997   24000   23999   23997   24000
   24003   24001   24002   24002   24001   24004   24003   24001   24004
   24007   24005   24006   24006   24005   24008   24007   24005   24008
   24011   24009   24010   24010   24009   24012   24011   24009   24012
   24015   24013   24014   24014   24013   24016   24015   24013   24016
   24019   24017   24018   24018   24017   24020   24019   24017   24020
   24023   24021   24022   24022   24021   24024   24023   24021   24024
   24027   24025   24026   24026   24025   24028   24027   24025   24028
   24031   24029   24030   24030   24029   24032   24031   24029   24032
   24035   24033   24034   24034   24033   24036   24035   24033   24036
   24039   24037   24038   24038   24037   24040   24039   24037   24040
   24043   24041   24042   24042   24041   24044   24043   24041   24044
   24047   24045   24046   24046   24045   24048   24047   24045   24048
   24051   24049   24050   24050   24049   24052   24051   24049   24052
   24055   24053   24054   24054   24053   24056   24055   24053   24056
   24059   24057   24058   24058   24057   24060   24059   24057   24060
   24063   24061   24062   24062   24061   24064   24063   24061   24064
   24067   24065   24066   24066   24065   24068   24067   24065   24068
   24071   24069   24070   24070   24069   24072   24071   24069   24072
   24075   24073   24074   24074   24073   24076   24075   24073   24076
   24079   24077   24078   24078   24077   24080   24079   24077   24080
   24083   24081   24082   24082   24081   24084   24083   24081   24084
   24087   24085   24086   24086   24085   24088   24087   24085   24088
   24091   24089   24090   24090   24089   24092   24091   24089   24092
   24095   24093   24094   24094   24093   24096   24095   24093   24096
   24099   24097   24098   24098   24097   24100   24099   24097   24100
   24103   24101   24102   24102   24101   24104   24103   24101   24104
   24107   24105   24106   24106   24105   24108   24107   24105   24108
   24111   24109   24110   24110   24109   24112   24111   24109   24112
   24115   24113   24114   24114   24113   24116   24115   24113   24116
   24119   24117   24118   24118   24117   24120   24119   24117   24120
   24123   24121   24122   24122   24121   24124   24123   24121   24124
   24127   24125   24126   24126   24125   24128   24127   24125   24128
   24131   24129   24130   24130   24129   24132   24131   24129   24132
   24135   24133   24134   24134   24133   24136   24135   24133   24136
   24139   24137   24138   24138   24137   24140   24139   24137   24140
   24143   24141   24142   24142   24141   24144   24143   24141   24144
   24147   24145   24146   24146   24145   24148   24147   24145   24148
   24151   24149   24150   24150   24149   24152   24151   24149   24152
   24155   24153   24154   24154   24153   24156   24155   24153   24156
   24159   24157   24158   24158   24157   24160   24159   24157   24160
   24163   24161   24162   24162   24161   24164   24163   24161   24164
   24167   24165   24166   24166   24165   24168   24167   24165   24168
   24171   24169   24170   24170   24169   24172   24171   24169   24172
   24175   24173   24174   24174   24173   24176   24175   24173   24176
   24179   24177   24178   24178   24177   24180   24179   24177   24180
   24183   24181   24182   24182   24181   24184   24183   24181   24184
   24187   24185   24186   24186   24185   24188   24187   24185   24188
   24191   24189   24190   24190   24189   24192   24191   24189   24192
   24195   24193   24194   24194   24193   24196   24195   24193   24196
   24199   24197   24198   24198   24197   24200   24199   24197   24200
   24203   24201   24202   24202   24201   24204   24203   24201   24204
   24207   24205   24206   24206   24205   24208   24207   24205   24208
   24211   24209   24210   24210   24209   24212   24211   24209   24212
   24215   24213   24214   24214   24213   24216   24215   24213   24216
   24219   24217   24218   24218   24217   24220   24219   24217   24220
   24223   24221   24222   24222   24221   24224   24223   24221   24224
   24227   24225   24226   24226   24225   24228   24227   24225   24228
   24231   24229   24230   24230   24229   24232   24231   24229   24232
   24235   24233   24234   24234   24233   24236   24235   24233   24236
   24239   24237   24238   24238   24237   24240   24239   24237   24240
   24243   24241   24242   24242   24241   24244   24243   24241   24244
   24247   24245   24246   24246   24245   24248   24247   24245   24248
   24251   24249   24250   24250   24249   24252   24251   24249   24252
   24255   24253   24254   24254   24253   24256   24255   24253   24256
   24259   24257   24258   24258   24257   24260   24259   24257   24260
   24263   24261   24262   24262   24261   24264   24263   24261   24264
   24267   24265   24266   24266   24265   24268   24267   24265   24268
   24271   24269   24270   24270   24269   24272   24271   24269   24272
   24275   24273   24274   24274   24273   24276   24275   24273   24276
   24279   24277   24278   24278   24277   24280   24279   24277   24280
   24283   24281   24282   24282   24281   24284   24283   24281   24284
   24287   24285   24286   24286   24285   24288   24287   24285   24288
   24291   24289   24290   24290   24289   24292   24291   24289   24292
   24295   24293   24294   24294   24293   24296   24295   24293   24296
   24299   24297   24298   24298   24297   24300   24299   24297   24300
   24303   24301   24302   24302   24301   24304   24303   24301   24304
   24307   24305   24306   24306   24305   24308   24307   24305   24308
   24311   24309   24310   24310   24309   24312   24311   24309   24312
   24315   24313   24314   24314   24313   24316   24315   24313   24316
   24319   24317   24318   24318   24317   24320   24319   24317   24320
   24323   24321   24322   24322   24321   24324   24323   24321   24324
   24327   24325   24326   24326   24325   24328   24327   24325   24328
   24331   24329   24330   24330   24329   24332   24331   24329   24332
   24335   24333   24334   24334   24333   24336   24335   24333   24336
   24339   24337   24338   24338   24337   24340   24339   24337   24340
   24343   24341   24342   24342   24341   24344   24343   24341   24344
   24347   24345   24346   24346   24345   24348   24347   24345   24348
   24351   24349   24350   24350   24349   24352   24351   24349   24352
   24355   24353   24354   24354   24353   24356   24355   24353   24356
   24359   24357   24358   24358   24357   24360   24359   24357   24360
   24363   24361   24362   24362   24361   24364   24363   24361   24364
   24367   24365   24366   24366   24365   24368   24367   24365   24368
   24371   24369   24370   24370   24369   24372   24371   24369   24372
   24375   24373   24374   24374   24373   24376   24375   24373   24376
   24379   24377   24378   24378   24377   24380   24379   24377   24380
   24383   24381   24382   24382   24381   24384   24383   24381   24384
   24387   24385   24386   24386   24385   24388   24387   24385   24388
   24391   24389   24390   24390   24389   24392   24391   24389   24392
   24395   24393   24394   24394   24393   24396   24395   24393   24396
   24399   24397   24398   24398   24397   24400   24399   24397   24400
   24403   24401   24402   24402   24401   24404   24403   24401   24404
   24407   24405   24406   24406   24405   24408   24407   24405   24408
   24411   24409   24410   24410   24409   24412   24411   24409   24412
   24415   24413   24414   24414   24413   24416   24415   24413   24416
   24419   24417   24418   24418   24417   24420   24419   24417   24420
   24423   24421   24422   24422   24421   24424   24423   24421   24424
   24427   24425   24426   24426   24425   24428   24427   24425   24428
   24431   24429   24430   24430   24429   24432   24431   24429   24432
   24435   24433   24434   24434   24433   24436   24435   24433   24436
   24439   24437   24438   24438   24437   24440   24439   24437   24440
   24443   24441   24442   24442   24441   24444   24443   24441   24444
   24447   24445   24446   24446   24445   24448   24447   24445   24448
   24451   24449   24450   24450   24449   24452   24451   24449   24452
   24455   24453   24454   24454   24453   24456   24455   24453   24456
   24459   24457   24458   24458   24457   24460   24459   24457   24460
   24463   24461   24462   24462   24461   24464   24463   24461   24464
   24467   24465   24466   24466   24465   24468   24467   24465   24468
   24471   24469   24470   24470   24469   24472   24471   24469   24472
   24475   24473   24474   24474   24473   24476   24475   24473   24476
   24479   24477   24478   24478   24477   24480   24479   24477   24480
   24483   24481   24482   24482   24481   24484   24483   24481   24484
   24487   24485   24486   24486   24485   24488   24487   24485   24488
   24491   24489   24490   24490   24489   24492   24491   24489   24492
   24495   24493   24494   24494   24493   24496   24495   24493   24496
   24499   24497   24498   24498   24497   24500   24499   24497   24500
   24503   24501   24502   24502   24501   24504   24503   24501   24504
   24507   24505   24506   24506   24505   24508   24507   24505   24508
   24511   24509   24510   24510   24509   24512   24511   24509   24512
   24515   24513   24514   24514   24513   24516   24515   24513   24516
   24519   24517   24518   24518   24517   24520   24519   24517   24520
   24523   24521   24522   24522   24521   24524   24523   24521   24524
   24527   24525   24526   24526   24525   24528   24527   24525   24528
   24531   24529   24530   24530   24529   24532   24531   24529   24532
   24535   24533   24534   24534   24533   24536   24535   24533   24536
   24539   24537   24538   24538   24537   24540   24539   24537   24540
   24543   24541   24542   24542   24541   24544   24543   24541   24544
   24547   24545   24546   24546   24545   24548   24547   24545   24548
   24551   24549   24550   24550   24549   24552   24551   24549   24552
   24555   24553   24554   24554   24553   24556   24555   24553   24556
   24559   24557   24558   24558   24557   24560   24559   24557   24560
   24563   24561   24562   24562   24561   24564   24563   24561   24564
   24567   24565   24566   24566   24565   24568   24567   24565   24568
   24571   24569   24570   24570   24569   24572   24571   24569   24572
   24575   24573   24574   24574   24573   24576   24575   24573   24576
   24579   24577   24578   24578   24577   24580   24579   24577   24580
   24583   24581   24582   24582   24581   24584   24583   24581   24584
   24587   24585   24586   24586   24585   24588   24587   24585   24588
   24591   24589   24590   24590   24589   24592   24591   24589   24592
   24595   24593   24594   24594   24593   24596   24595   24593   24596
   24599   24597   24598   24598   24597   24600   24599   24597   24600
   24603   24601   24602   24602   24601   24604   24603   24601   24604
   24607   24605   24606   24606   24605   24608   24607   24605   24608
   24611   24609   24610   24610   24609   24612   24611   24609   24612
   24615   24613   24614   24614   24613   24616   24615   24613   24616
   24619   24617   24618   24618   24617   24620   24619   24617   24620
   24623   24621   24622   24622   24621   24624   24623   24621   24624
   24627   24625   24626   24626   24625   24628   24627   24625   24628
   24631   24629   24630   24630   24629   24632   24631   24629   24632
   24635   24633   24634   24634   24633   24636   24635   24633   24636
   24639   24637   24638   24638   24637   24640   24639   24637   24640
   24643   24641   24642   24642   24641   24644   24643   24641   24644
   24647   24645   24646   24646   24645   24648   24647   24645   24648
   24651   24649   24650   24650   24649   24652   24651   24649   24652
   24655   24653   24654   24654   24653   24656   24655   24653   24656
   24659   24657   24658   24658   24657   24660   24659   24657   24660
   24663   24661   24662   24662   24661   24664   24663   24661   24664
   24667   24665   24666   24666   24665   24668   24667   24665   24668
   24671   24669   24670   24670   24669   24672   24671   24669   24672
   24675   24673   24674   24674   24673   24676   24675   24673   24676
   24679   24677   24678   24678   24677   24680   24679   24677   24680
   24683   24681   24682   24682   24681   24684   24683   24681   24684
   24687   24685   24686   24686   24685   24688   24687   24685   24688
   24691   24689   24690   24690   24689   24692   24691   24689   24692
   24695   24693   24694   24694   24693   24696   24695   24693   24696
   24699   24697   24698   24698   24697   24700   24699   24697   24700
   24703   24701   24702   24702   24701   24704   24703   24701   24704
   24707   24705   24706   24706   24705   24708   24707   24705   24708
   24711   24709   24710   24710   24709   24712   24711   24709   24712
   24715   24713   24714   24714   24713   24716   24715   24713   24716
   24719   24717   24718   24718   24717   24720   24719   24717   24720
   24723   24721   24722   24722   24721   24724   24723   24721   24724
   24727   24725   24726   24726   24725   24728   24727   24725   24728
   24731   24729   24730   24730   24729   24732   24731   24729   24732
   24735   24733   24734   24734   24733   24736   24735   24733   24736
   24739   24737   24738   24738   24737   24740   24739   24737   24740
   24743   24741   24742   24742   24741   24744   24743   24741   24744
   24747   24745   24746   24746   24745   24748   24747   24745   24748
   24751   24749   24750   24750   24749   24752   24751   24749   24752
   24755   24753   24754   24754   24753   24756   24755   24753   24756
   24759   24757   24758   24758   24757   24760   24759   24757   24760
   24763   24761   24762   24762   24761   24764   24763   24761   24764
   24767   24765   24766   24766   24765   24768   24767   24765   24768
   24771   24769   24770   24770   24769   24772   24771   24769   24772
   24775   24773   24774   24774   24773   24776   24775   24773   24776
   24779   24777   24778   24778   24777   24780   24779   24777   24780
   24783   24781   24782   24782   24781   24784   24783   24781   24784
   24787   24785   24786   24786   24785   24788   24787   24785   24788
   24791   24789   24790   24790   24789   24792   24791   24789   24792
   24795   24793   24794   24794   24793   24796   24795   24793   24796
   24799   24797   24798   24798   24797   24800   24799   24797   24800
   24803   24801   24802   24802   24801   24804   24803   24801   24804
   24807   24805   24806   24806   24805   24808   24807   24805   24808
   24811   24809   24810   24810   24809   24812   24811   24809   24812
   24815   24813   24814   24814   24813   24816   24815   24813   24816
   24819   24817   24818   24818   24817   24820   24819   24817   24820
   24823   24821   24822   24822   24821   24824   24823   24821   24824
   24827   24825   24826   24826   24825   24828   24827   24825   24828
   24831   24829   24830   24830   24829   24832   24831   24829   24832
   24835   24833   24834   24834   24833   24836   24835   24833   24836
   24839   24837   24838   24838   24837   24840   24839   24837   24840
   24843   24841   24842   24842   24841   24844   24843   24841   24844
   24847   24845   24846   24846   24845   24848   24847   24845   24848
   24851   24849   24850   24850   24849   24852   24851   24849   24852
   24855   24853   24854   24854   24853   24856   24855   24853   24856
   24859   24857   24858   24858   24857   24860   24859   24857   24860
   24863   24861   24862   24862   24861   24864   24863   24861   24864
   24867   24865   24866   24866   24865   24868   24867   24865   24868
   24871   24869   24870   24870   24869   24872   24871   24869   24872
   24875   24873   24874   24874   24873   24876   24875   24873   24876
   24879   24877   24878   24878   24877   24880   24879   24877   24880
   24883   24881   24882   24882   24881   24884   24883   24881   24884
   24887   24885   24886   24886   24885   24888   24887   24885   24888
   24891   24889   24890   24890   24889   24892   24891   24889   24892
   24895   24893   24894   24894   24893   24896   24895   24893   24896
   24899   24897   24898   24898   24897   24900   24899   24897   24900
   24903   24901   24902   24902   24901   24904   24903   24901   24904
   24907   24905   24906   24906   24905   24908   24907   24905   24908
   24911   24909   24910   24910   24909   24912   24911   24909   24912
   24915   24913   24914   24914   24913   24916   24915   24913   24916
   24919   24917   24918   24918   24917   24920   24919   24917   24920
   24923   24921   24922   24922   24921   24924   24923   24921   24924
   24927   24925   24926   24926   24925   24928   24927   24925   24928
   24931   24929   24930   24930   24929   24932   24931   24929   24932
   24935   24933   24934   24934   24933   24936   24935   24933   24936
   24939   24937   24938   24938   24937   24940   24939   24937   24940
   24943   24941   24942   24942   24941   24944   24943   24941   24944
   24947   24945   24946   24946   24945   24948   24947   24945   24948
   24951   24949   24950   24950   24949   24952   24951   24949   24952
   24955   24953   24954   24954   24953   24956   24955   24953   24956
   24959   24957   24958   24958   24957   24960   24959   24957   24960
   24963   24961   24962   24962   24961   24964   24963   24961   24964
   24967   24965   24966   24966   24965   24968   24967   24965   24968
   24971   24969   24970   24970   24969   24972   24971   24969   24972
   24975   24973   24974   24974   24973   24976   24975   24973   24976
   24979   24977   24978   24978   24977   24980   24979   24977   24980
   24983   24981   24982   24982   24981   24984   24983   24981   24984
   24987   24985   24986   24986   24985   24988   24987   24985   24988
   24991   24989   24990   24990   24989   24992   24991   24989   24992
   24995   24993   24994   24994   24993   24996   24995   24993   24996
   24999   24997   24998   24998   24997   25000   24999   24997   25000
   25003   25001   25002   25002   25001   25004   25003   25001   25004
   25007   25005   25006   25006   25005   25008   25007   25005   25008
   25011   25009   25010   25010   25009   25012   25011   25009   25012
   25015   25013   25014   25014   25013   25016   25015   25013   25016
   25019   25017   25018   25018   25017   25020   25019   25017   25020
   25023   25021   25022   25022   25021   25024   25023   25021   25024
   25027   25025   25026   25026   25025   25028   25027   25025   25028
   25031   25029   25030   25030   25029   25032   25031   25029   25032
   25035   25033   25034   25034   25033   25036   25035   25033   25036
   25039   25037   25038   25038   25037   25040   25039   25037   25040
   25043   25041   25042   25042   25041   25044   25043   25041   25044
   25047   25045   25046   25046   25045   25048   25047   25045   25048
   25051   25049   25050   25050   25049   25052   25051   25049   25052
   25055   25053   25054   25054   25053   25056   25055   25053   25056
   25059   25057   25058   25058   25057   25060   25059   25057   25060
   25063   25061   25062   25062   25061   25064   25063   25061   25064
   25067   25065   25066   25066   25065   25068   25067   25065   25068
   25071   25069   25070   25070   25069   25072   25071   25069   25072
   25075   25073   25074   25074   25073   25076   25075   25073   25076
   25079   25077   25078   25078   25077   25080   25079   25077   25080
   25083   25081   25082   25082   25081   25084   25083   25081   25084
   25087   25085   25086   25086   25085   25088   25087   25085   25088
   25091   25089   25090   25090   25089   25092   25091   25089   25092
   25095   25093   25094   25094   25093   25096   25095   25093   25096
   25099   25097   25098   25098   25097   25100   25099   25097   25100
   25103   25101   25102   25102   25101   25104   25103   25101   25104
   25107   25105   25106   25106   25105   25108   25107   25105   25108
   25111   25109   25110   25110   25109   25112   25111   25109   25112
   25115   25113   25114   25114   25113   25116   25115   25113   25116
   25119   25117   25118   25118   25117   25120   25119   25117   25120
   25123   25121   25122   25122   25121   25124   25123   25121   25124
   25127   25125   25126   25126   25125   25128   25127   25125   25128
   25131   25129   25130   25130   25129   25132   25131   25129   25132
   25135   25133   25134   25134   25133   25136   25135   25133   25136
   25139   25137   25138   25138   25137   25140   25139   25137   25140
   25143   25141   25142   25142   25141   25144   25143   25141   25144
   25147   25145   25146   25146   25145   25148   25147   25145   25148
   25151   25149   25150   25150   25149   25152   25151   25149   25152
   25155   25153   25154   25154   25153   25156   25155   25153   25156
   25159   25157   25158   25158   25157   25160   25159   25157   25160
   25163   25161   25162   25162   25161   25164   25163   25161   25164
   25167   25165   25166   25166   25165   25168   25167   25165   25168
   25171   25169   25170   25170   25169   25172   25171   25169   25172
   25175   25173   25174   25174   25173   25176   25175   25173   25176
   25179   25177   25178   25178   25177   25180   25179   25177   25180
   25183   25181   25182   25182   25181   25184   25183   25181   25184
   25187   25185   25186   25186   25185   25188   25187   25185   25188
   25191   25189   25190   25190   25189   25192   25191   25189   25192
   25195   25193   25194   25194   25193   25196   25195   25193   25196
   25199   25197   25198   25198   25197   25200   25199   25197   25200
   25203   25201   25202   25202   25201   25204   25203   25201   25204
   25207   25205   25206   25206   25205   25208   25207   25205   25208
   25211   25209   25210   25210   25209   25212   25211   25209   25212
   25215   25213   25214   25214   25213   25216   25215   25213   25216
   25219   25217   25218   25218   25217   25220   25219   25217   25220
   25223   25221   25222   25222   25221   25224   25223   25221   25224
   25227   25225   25226   25226   25225   25228   25227   25225   25228
   25231   25229   25230   25230   25229   25232   25231   25229   25232
   25235   25233   25234   25234   25233   25236   25235   25233   25236
   25239   25237   25238   25238   25237   25240   25239   25237   25240
   25243   25241   25242   25242   25241   25244   25243   25241   25244
   25247   25245   25246   25246   25245   25248   25247   25245   25248
   25251   25249   25250   25250   25249   25252   25251   25249   25252
   25255   25253   25254   25254   25253   25256   25255   25253   25256
   25259   25257   25258   25258   25257   25260   25259   25257   25260
   25263   25261   25262   25262   25261   25264   25263   25261   25264
   25267   25265   25266   25266   25265   25268   25267   25265   25268
   25271   25269   25270   25270   25269   25272   25271   25269   25272
   25275   25273   25274   25274   25273   25276   25275   25273   25276
   25279   25277   25278   25278   25277   25280   25279   25277   25280
   25283   25281   25282   25282   25281   25284   25283   25281   25284
   25287   25285   25286   25286   25285   25288   25287   25285   25288
   25291   25289   25290   25290   25289   25292   25291   25289   25292
   25295   25293   25294   25294   25293   25296   25295   25293   25296
   25299   25297   25298   25298   25297   25300   25299   25297   25300
   25303   25301   25302   25302   25301   25304   25303   25301   25304
   25307   25305   25306   25306   25305   25308   25307   25305   25308
   25311   25309   25310   25310   25309   25312   25311   25309   25312
   25315   25313   25314   25314   25313   25316   25315   25313   25316
   25319   25317   25318   25318   25317   25320   25319   25317   25320
   25323   25321   25322   25322   25321   25324   25323   25321   25324
   25327   25325   25326   25326   25325   25328   25327   25325   25328
   25331   25329   25330   25330   25329   25332   25331   25329   25332
   25335   25333   25334   25334   25333   25336   25335   25333   25336
   25339   25337   25338   25338   25337   25340   25339   25337   25340
   25343   25341   25342   25342   25341   25344   25343   25341   25344
   25347   25345   25346   25346   25345   25348   25347   25345   25348
   25351   25349   25350   25350   25349   25352   25351   25349   25352
   25355   25353   25354   25354   25353   25356   25355   25353   25356
   25359   25357   25358   25358   25357   25360   25359   25357   25360
   25363   25361   25362   25362   25361   25364   25363   25361   25364
   25367   25365   25366   25366   25365   25368   25367   25365   25368
   25371   25369   25370   25370   25369   25372   25371   25369   25372
   25375   25373   25374   25374   25373   25376   25375   25373   25376
   25379   25377   25378   25378   25377   25380   25379   25377   25380
   25383   25381   25382   25382   25381   25384   25383   25381   25384
   25387   25385   25386   25386   25385   25388   25387   25385   25388
   25391   25389   25390   25390   25389   25392   25391   25389   25392
   25395   25393   25394   25394   25393   25396   25395   25393   25396
   25399   25397   25398   25398   25397   25400   25399   25397   25400
   25403   25401   25402   25402   25401   25404   25403   25401   25404
   25407   25405   25406   25406   25405   25408   25407   25405   25408
   25411   25409   25410   25410   25409   25412   25411   25409   25412
   25415   25413   25414   25414   25413   25416   25415   25413   25416
   25419   25417   25418   25418   25417   25420   25419   25417   25420
   25423   25421   25422   25422   25421   25424   25423   25421   25424
   25427   25425   25426   25426   25425   25428   25427   25425   25428
   25431   25429   25430   25430   25429   25432   25431   25429   25432
   25435   25433   25434   25434   25433   25436   25435   25433   25436
   25439   25437   25438   25438   25437   25440   25439   25437   25440
   25443   25441   25442   25442   25441   25444   25443   25441   25444
   25447   25445   25446   25446   25445   25448   25447   25445   25448
   25451   25449   25450   25450   25449   25452   25451   25449   25452
   25455   25453   25454   25454   25453   25456   25455   25453   25456
   25459   25457   25458   25458   25457   25460   25459   25457   25460
   25463   25461   25462   25462   25461   25464   25463   25461   25464
   25467   25465   25466   25466   25465   25468   25467   25465   25468
   25471   25469   25470   25470   25469   25472   25471   25469   25472
   25475   25473   25474   25474   25473   25476   25475   25473   25476
   25479   25477   25478   25478   25477   25480   25479   25477   25480
   25483   25481   25482   25482   25481   25484   25483   25481   25484
   25487   25485   25486   25486   25485   25488   25487   25485   25488
   25491   25489   25490   25490   25489   25492   25491   25489   25492
   25495   25493   25494   25494   25493   25496   25495   25493   25496
   25499   25497   25498   25498   25497   25500   25499   25497   25500
   25503   25501   25502   25502   25501   25504   25503   25501   25504
   25507   25505   25506   25506   25505   25508   25507   25505   25508
   25511   25509   25510   25510   25509   25512   25511   25509   25512
   25515   25513   25514   25514   25513   25516   25515   25513   25516
   25519   25517   25518   25518   25517   25520   25519   25517   25520
   25523   25521   25522   25522   25521   25524   25523   25521   25524
   25527   25525   25526   25526   25525   25528   25527   25525   25528
   25531   25529   25530   25530   25529   25532   25531   25529   25532
   25535   25533   25534   25534   25533   25536   25535   25533   25536
   25539   25537   25538   25538   25537   25540   25539   25537   25540
   25543   25541   25542   25542   25541   25544   25543   25541   25544
   25547   25545   25546   25546   25545   25548   25547   25545   25548
   25551   25549   25550   25550   25549   25552   25551   25549   25552
   25555   25553   25554   25554   25553   25556   25555   25553   25556
   25559   25557   25558   25558   25557   25560   25559   25557   25560
   25563   25561   25562   25562   25561   25564   25563   25561   25564
   25567   25565   25566   25566   25565   25568   25567   25565   25568
   25571   25569   25570   25570   25569   25572   25571   25569   25572
   25575   25573   25574   25574   25573   25576   25575   25573   25576
   25579   25577   25578   25578   25577   25580   25579   25577   25580
   25583   25581   25582   25582   25581   25584   25583   25581   25584
   25587   25585   25586   25586   25585   25588   25587   25585   25588
   25591   25589   25590   25590   25589   25592   25591   25589   25592
   25595   25593   25594   25594   25593   25596   25595   25593   25596
   25599   25597   25598   25598   25597   25600   25599   25597   25600
   25603   25601   25602   25602   25601   25604   25603   25601   25604
   25607   25605   25606   25606   25605   25608   25607   25605   25608
   25611   25609   25610   25610   25609   25612   25611   25609   25612
   25615   25613   25614   25614   25613   25616   25615   25613   25616
   25619   25617   25618   25618   25617   25620   25619   25617   25620
   25623   25621   25622   25622   25621   25624   25623   25621   25624
   25627   25625   25626   25626   25625   25628   25627   25625   25628
   25631   25629   25630   25630   25629   25632   25631   25629   25632
   25635   25633   25634   25634   25633   25636   25635   25633   25636
   25639   25637   25638   25638   25637   25640   25639   25637   25640
   25643   25641   25642   25642   25641   25644   25643   25641   25644
   25647   25645   25646   25646   25645   25648   25647   25645   25648
   25651   25649   25650   25650   25649   25652   25651   25649   25652
   25655   25653   25654   25654   25653   25656   25655   25653   25656
   25659   25657   25658   25658   25657   25660   25659   25657   25660
   25663   25661   25662   25662   25661   25664   25663   25661   25664
   25667   25665   25666   25666   25665   25668   25667   25665   25668
   25671   25669   25670   25670   25669   25672   25671   25669   25672
   25675   25673   25674   25674   25673   25676   25675   25673   25676
   25679   25677   25678   25678   25677   25680   25679   25677   25680
   25683   25681   25682   25682   25681   25684   25683   25681   25684
   25687   25685   25686   25686   25685   25688   25687   25685   25688
   25691   25689   25690   25690   25689   25692   25691   25689   25692
   25695   25693   25694   25694   25693   25696   25695   25693   25696
   25699   25697   25698   25698   25697   25700   25699   25697   25700
   25703   25701   25702   25702   25701   25704   25703   25701   25704
   25707   25705   25706   25706   25705   25708   25707   25705   25708
   25711   25709   25710   25710   25709   25712   25711   25709   25712
   25715   25713   25714   25714   25713   25716   25715   25713   25716
   25719   25717   25718   25718   25717   25720   25719   25717   25720
   25723   25721   25722   25722   25721   25724   25723   25721   25724
   25727   25725   25726   25726   25725   25728   25727   25725   25728
   25731   25729   25730   25730   25729   25732   25731   25729   25732
   25735   25733   25734   25734   25733   25736   25735   25733   25736
   25739   25737   25738   25738   25737   25740   25739   25737   25740
   25743   25741   25742   25742   25741   25744   25743   25741   25744
   25747   25745   25746   25746   25745   25748   25747   25745   25748
   25751   25749   25750   25750   25749   25752   25751   25749   25752
   25755   25753   25754   25754   25753   25756   25755   25753   25756
   25759   25757   25758   25758   25757   25760   25759   25757   25760
   25763   25761   25762   25762   25761   25764   25763   25761   25764
   25767   25765   25766   25766   25765   25768   25767   25765   25768
   25771   25769   25770   25770   25769   25772   25771   25769   25772
   25775   25773   25774   25774   25773   25776   25775   25773   25776
   25779   25777   25778   25778   25777   25780   25779   25777   25780
   25783   25781   25782   25782   25781   25784   25783   25781   25784
   25787   25785   25786   25786   25785   25788   25787   25785   25788
   25791   25789   25790   25790   25789   25792   25791   25789   25792
   25795   25793   25794   25794   25793   25796   25795   25793   25796
   25799   25797   25798   25798   25797   25800   25799   25797   25800
   25803   25801   25802   25802   25801   25804   25803   25801   25804
   25807   25805   25806   25806   25805   25808   25807   25805   25808
   25811   25809   25810   25810   25809   25812   25811   25809   25812
   25815   25813   25814   25814   25813   25816   25815   25813   25816
   25819   25817   25818   25818   25817   25820   25819   25817   25820
   25823   25821   25822   25822   25821   25824   25823   25821   25824
   25827   25825   25826   25826   25825   25828   25827   25825   25828
   25831   25829   25830   25830   25829   25832   25831   25829   25832
   25835   25833   25834   25834   25833   25836   25835   25833   25836
   25839   25837   25838   25838   25837   25840   25839   25837   25840
   25843   25841   25842   25842   25841   25844   25843   25841   25844
   25847   25845   25846   25846   25845   25848   25847   25845   25848
   25851   25849   25850   25850   25849   25852   25851   25849   25852
   25855   25853   25854   25854   25853   25856   25855   25853   25856
   25859   25857   25858   25858   25857   25860   25859   25857   25860
   25863   25861   25862   25862   25861   25864   25863   25861   25864
   25867   25865   25866   25866   25865   25868   25867   25865   25868
   25871   25869   25870   25870   25869   25872   25871   25869   25872
   25875   25873   25874   25874   25873   25876   25875   25873   25876
   25879   25877   25878   25878   25877   25880   25879   25877   25880
   25883   25881   25882   25882   25881   25884   25883   25881   25884
   25887   25885   25886   25886   25885   25888   25887   25885   25888
   25891   25889   25890   25890   25889   25892   25891   25889   25892
   25895   25893   25894   25894   25893   25896   25895   25893   25896
   25899   25897   25898   25898   25897   25900   25899   25897   25900
   25903   25901   25902   25902   25901   25904   25903   25901   25904
   25907   25905   25906   25906   25905   25908   25907   25905   25908
   25911   25909   25910   25910   25909   25912   25911   25909   25912
   25915   25913   25914   25914   25913   25916   25915   25913   25916
   25919   25917   25918   25918   25917   25920   25919   25917   25920
   25923   25921   25922   25922   25921   25924   25923   25921   25924
   25927   25925   25926   25926   25925   25928   25927   25925   25928
   25931   25929   25930   25930   25929   25932   25931   25929   25932
   25935   25933   25934   25934   25933   25936   25935   25933   25936
   25939   25937   25938   25938   25937   25940   25939   25937   25940
   25943   25941   25942   25942   25941   25944   25943   25941   25944
   25947   25945   25946   25946   25945   25948   25947   25945   25948
   25951   25949   25950   25950   25949   25952   25951   25949   25952
   25955   25953   25954   25954   25953   25956   25955   25953   25956
   25959   25957   25958   25958   25957   25960   25959   25957   25960
   25963   25961   25962   25962   25961   25964   25963   25961   25964
   25967   25965   25966   25966   25965   25968   25967   25965   25968
   25971   25969   25970   25970   25969   25972   25971   25969   25972
   25975   25973   25974   25974   25973   25976   25975   25973   25976
   25979   25977   25978   25978   25977   25980   25979   25977   25980
   25983   25981   25982   25982   25981   25984   25983   25981   25984
   25987   25985   25986   25986   25985   25988   25987   25985   25988
   25991   25989   25990   25990   25989   25992   25991   25989   25992
   25995   25993   25994   25994   25993   25996   25995   25993   25996
   25999   25997   25998   25998   25997   26000   25999   25997   26000
   26003   26001   26002   26002   26001   26004   26003   26001   26004
   26007   26005   26006   26006   26005   26008   26007   26005   26008
   26011   26009   26010   26010   26009   26012   26011   26009   26012
   26015   26013   26014   26014   26013   26016   26015   26013   26016
   26019   26017   26018   26018   26017   26020   26019   26017   26020
   26023   26021   26022   26022   26021   26024   26023   26021   26024
   26027   26025   26026   26026   26025   26028   26027   26025   26028
   26031   26029   26030   26030   26029   26032   26031   26029   26032
   26035   26033   26034   26034   26033   26036   26035   26033   26036
   26039   26037   26038   26038   26037   26040   26039   26037   26040
   26043   26041   26042   26042   26041   26044   26043   26041   26044
   26047   26045   26046   26046   26045   26048   26047   26045   26048
   26051   26049   26050   26050   26049   26052   26051   26049   26052
   26055   26053   26054   26054   26053   26056   26055   26053   26056
   26059   26057   26058   26058   26057   26060   26059   26057   26060
   26063   26061   26062   26062   26061   26064   26063   26061   26064
   26067   26065   26066   26066   26065   26068   26067   26065   26068
   26071   26069   26070   26070   26069   26072   26071   26069   26072
   26075   26073   26074   26074   26073   26076   26075   26073   26076
   26079   26077   26078   26078   26077   26080   26079   26077   26080
   26083   26081   26082   26082   26081   26084   26083   26081   26084
   26087   26085   26086   26086   26085   26088   26087   26085   26088
   26091   26089   26090   26090   26089   26092   26091   26089   26092
   26095   26093   26094   26094   26093   26096   26095   26093   26096
   26099   26097   26098   26098   26097   26100   26099   26097   26100
   26103   26101   26102   26102   26101   26104   26103   26101   26104
   26107   26105   26106   26106   26105   26108   26107   26105   26108
   26111   26109   26110   26110   26109   26112   26111   26109   26112
   26115   26113   26114   26114   26113   26116   26115   26113   26116
   26119   26117   26118   26118   26117   26120   26119   26117   26120
   26123   26121   26122   26122   26121   26124   26123   26121   26124
   26127   26125   26126   26126   26125   26128   26127   26125   26128
   26131   26129   26130   26130   26129   26132   26131   26129   26132
   26135   26133   26134   26134   26133   26136   26135   26133   26136
   26139   26137   26138   26138   26137   26140   26139   26137   26140
   26143   26141   26142   26142   26141   26144   26143   26141   26144
   26147   26145   26146   26146   26145   26148   26147   26145   26148
   26151   26149   26150   26150   26149   26152   26151   26149   26152
   26155   26153   26154   26154   26153   26156   26155   26153   26156
   26159   26157   26158   26158   26157   26160   26159   26157   26160
   26163   26161   26162   26162   26161   26164   26163   26161   26164
   26167   26165   26166   26166   26165   26168   26167   26165   26168
   26171   26169   26170   26170   26169   26172   26171   26169   26172
   26175   26173   26174   26174   26173   26176   26175   26173   26176
   26179   26177   26178   26178   26177   26180   26179   26177   26180
   26183   26181   26182   26182   26181   26184   26183   26181   26184
   26187   26185   26186   26186   26185   26188   26187   26185   26188
   26191   26189   26190   26190   26189   26192   26191   26189   26192
   26195   26193   26194   26194   26193   26196   26195   26193   26196
   26199   26197   26198   26198   26197   26200   26199   26197   26200
   26203   26201   26202   26202   26201   26204   26203   26201   26204
   26207   26205   26206   26206   26205   26208   26207   26205   26208
   26211   26209   26210   26210   26209   26212   26211   26209   26212
   26215   26213   26214   26214   26213   26216   26215   26213   26216
   26219   26217   26218   26218   26217   26220   26219   26217   26220
   26223   26221   26222   26222   26221   26224   26223   26221   26224
   26227   26225   26226   26226   26225   26228   26227   26225   26228
   26231   26229   26230   26230   26229   26232   26231   26229   26232
   26235   26233   26234   26234   26233   26236   26235   26233   26236
   26239   26237   26238   26238   26237   26240   26239   26237   26240
   26243   26241   26242   26242   26241   26244   26243   26241   26244
   26247   26245   26246   26246   26245   26248   26247   26245   26248
   26251   26249   26250   26250   26249   26252   26251   26249   26252
   26255   26253   26254   26254   26253   26256   26255   26253   26256
   26259   26257   26258   26258   26257   26260   26259   26257   26260
   26263   26261   26262   26262   26261   26264   26263   26261   26264
   26267   26265   26266   26266   26265   26268   26267   26265   26268
   26271   26269   26270   26270   26269   26272   26271   26269   26272
   26275   26273   26274   26274   26273   26276   26275   26273   26276
   26279   26277   26278   26278   26277   26280   26279   26277   26280
   26283   26281   26282   26282   26281   26284   26283   26281   26284
   26287   26285   26286   26286   26285   26288   26287   26285   26288
   26291   26289   26290   26290   26289   26292   26291   26289   26292
   26295   26293   26294   26294   26293   26296   26295   26293   26296
   26299   26297   26298   26298   26297   26300   26299   26297   26300
   26303   26301   26302   26302   26301   26304   26303   26301   26304
   26307   26305   26306   26306   26305   26308   26307   26305   26308
   26311   26309   26310   26310   26309   26312   26311   26309   26312
   26315   26313   26314   26314   26313   26316   26315   26313   26316
   26319   26317   26318   26318   26317   26320   26319   26317   26320
   26323   26321   26322   26322   26321   26324   26323   26321   26324
   26327   26325   26326   26326   26325   26328   26327   26325   26328
   26331   26329   26330   26330   26329   26332   26331   26329   26332
   26335   26333   26334   26334   26333   26336   26335   26333   26336
   26339   26337   26338   26338   26337   26340   26339   26337   26340
   26343   26341   26342   26342   26341   26344   26343   26341   26344
   26347   26345   26346   26346   26345   26348   26347   26345   26348
   26351   26349   26350   26350   26349   26352   26351   26349   26352
   26355   26353   26354   26354   26353   26356   26355   26353   26356
   26359   26357   26358   26358   26357   26360   26359   26357   26360
   26363   26361   26362   26362   26361   26364   26363   26361   26364
   26367   26365   26366   26366   26365   26368   26367   26365   26368
   26371   26369   26370   26370   26369   26372   26371   26369   26372
   26375   26373   26374   26374   26373   26376   26375   26373   26376
   26379   26377   26378   26378   26377   26380   26379   26377   26380
   26383   26381   26382   26382   26381   26384   26383   26381   26384
   26387   26385   26386   26386   26385   26388   26387   26385   26388
   26391   26389   26390   26390   26389   26392   26391   26389   26392
   26395   26393   26394   26394   26393   26396   26395   26393   26396
   26399   26397   26398   26398   26397   26400   26399   26397   26400
   26403   26401   26402   26402   26401   26404   26403   26401   26404
   26407   26405   26406   26406   26405   26408   26407   26405   26408
   26411   26409   26410   26410   26409   26412   26411   26409   26412
   26415   26413   26414   26414   26413   26416   26415   26413   26416
   26419   26417   26418   26418   26417   26420   26419   26417   26420
   26423   26421   26422   26422   26421   26424   26423   26421   26424
   26427   26425   26426   26426   26425   26428   26427   26425   26428
   26431   26429   26430   26430   26429   26432   26431   26429   26432
   26435   26433   26434   26434   26433   26436   26435   26433   26436
   26439   26437   26438   26438   26437   26440   26439   26437   26440
   26443   26441   26442   26442   26441   26444   26443   26441   26444
   26447   26445   26446   26446   26445   26448   26447   26445   26448
   26451   26449   26450   26450   26449   26452   26451   26449   26452
   26455   26453   26454   26454   26453   26456   26455   26453   26456
   26459   26457   26458   26458   26457   26460   26459   26457   26460
   26463   26461   26462   26462   26461   26464   26463   26461   26464
   26467   26465   26466   26466   26465   26468   26467   26465   26468
   26471   26469   26470   26470   26469   26472   26471   26469   26472
   26475   26473   26474   26474   26473   26476   26475   26473   26476
   26479   26477   26478   26478   26477   26480   26479   26477   26480
   26483   26481   26482   26482   26481   26484   26483   26481   26484
   26487   26485   26486   26486   26485   26488   26487   26485   26488
   26491   26489   26490   26490   26489   26492   26491   26489   26492
   26495   26493   26494   26494   26493   26496   26495   26493   26496
   26499   26497   26498   26498   26497   26500   26499   26497   26500
   26503   26501   26502   26502   26501   26504   26503   26501   26504
   26507   26505   26506   26506   26505   26508   26507   26505   26508
   26511   26509   26510   26510   26509   26512   26511   26509   26512
   26515   26513   26514   26514   26513   26516   26515   26513   26516
   26519   26517   26518   26518   26517   26520   26519   26517   26520
   26523   26521   26522   26522   26521   26524   26523   26521   26524
   26527   26525   26526   26526   26525   26528   26527   26525   26528
   26531   26529   26530   26530   26529   26532   26531   26529   26532
   26535   26533   26534   26534   26533   26536   26535   26533   26536
   26539   26537   26538   26538   26537   26540   26539   26537   26540
   26543   26541   26542   26542   26541   26544   26543   26541   26544
   26547   26545   26546   26546   26545   26548   26547   26545   26548
   26551   26549   26550   26550   26549   26552   26551   26549   26552
   26555   26553   26554   26554   26553   26556   26555   26553   26556
   26559   26557   26558   26558   26557   26560   26559   26557   26560
   26563   26561   26562   26562   26561   26564   26563   26561   26564
   26567   26565   26566   26566   26565   26568   26567   26565   26568
   26571   26569   26570   26570   26569   26572   26571   26569   26572
   26575   26573   26574   26574   26573   26576   26575   26573   26576
   26579   26577   26578   26578   26577   26580   26579   26577   26580
   26583   26581   26582   26582   26581   26584   26583   26581   26584
   26587   26585   26586   26586   26585   26588   26587   26585   26588
   26591   26589   26590   26590   26589   26592   26591   26589   26592
   26595   26593   26594   26594   26593   26596   26595   26593   26596
   26599   26597   26598   26598   26597   26600   26599   26597   26600
   26603   26601   26602   26602   26601   26604   26603   26601   26604
   26607   26605   26606   26606   26605   26608   26607   26605   26608
   26611   26609   26610   26610   26609   26612   26611   26609   26612
   26615   26613   26614   26614   26613   26616   26615   26613   26616
   26619   26617   26618   26618   26617   26620   26619   26617   26620
   26623   26621   26622   26622   26621   26624   26623   26621   26624
   26627   26625   26626   26626   26625   26628   26627   26625   26628
   26631   26629   26630   26630   26629   26632   26631   26629   26632
   26635   26633   26634   26634   26633   26636   26635   26633   26636
   26639   26637   26638   26638   26637   26640   26639   26637   26640
   26643   26641   26642   26642   26641   26644   26643   26641   26644
   26647   26645   26646   26646   26645   26648   26647   26645   26648
   26651   26649   26650   26650   26649   26652   26651   26649   26652
   26655   26653   26654   26654   26653   26656   26655   26653   26656
   26659   26657   26658   26658   26657   26660   26659   26657   26660
   26663   26661   26662   26662   26661   26664   26663   26661   26664
   26667   26665   26666   26666   26665   26668   26667   26665   26668
   26671   26669   26670   26670   26669   26672   26671   26669   26672
   26675   26673   26674   26674   26673   26676   26675   26673   26676
   26679   26677   26678   26678   26677   26680   26679   26677   26680
   26683   26681   26682   26682   26681   26684   26683   26681   26684
   26687   26685   26686   26686   26685   26688   26687   26685   26688
   26691   26689   26690   26690   26689   26692   26691   26689   26692
   26695   26693   26694   26694   26693   26696   26695   26693   26696
   26699   26697   26698   26698   26697   26700   26699   26697   26700
   26703   26701   26702   26702   26701   26704   26703   26701   26704
   26707   26705   26706   26706   26705   26708   26707   26705   26708
   26711   26709   26710   26710   26709   26712   26711   26709   26712
   26715   26713   26714   26714   26713   26716   26715   26713   26716
   26719   26717   26718   26718   26717   26720   26719   26717   26720
   26723   26721   26722   26722   26721   26724   26723   26721   26724
   26727   26725   26726   26726   26725   26728   26727   26725   26728
   26731   26729   26730   26730   26729   26732   26731   26729   26732
   26735   26733   26734   26734   26733   26736   26735   26733   26736
   26739   26737   26738   26738   26737   26740   26739   26737   26740
   26743   26741   26742   26742   26741   26744   26743   26741   26744
   26747   26745   26746   26746   26745   26748   26747   26745   26748
   26751   26749   26750   26750   26749   26752   26751   26749   26752
   26755   26753   26754   26754   26753   26756   26755   26753   26756
   26759   26757   26758   26758   26757   26760   26759   26757   26760
   26763   26761   26762   26762   26761   26764   26763   26761   26764
   26767   26765   26766   26766   26765   26768   26767   26765   26768
   26771   26769   26770   26770   26769   26772   26771   26769   26772
   26775   26773   26774   26774   26773   26776   26775   26773   26776
   26779   26777   26778   26778   26777   26780   26779   26777   26780
   26783   26781   26782   26782   26781   26784   26783   26781   26784
   26787   26785   26786   26786   26785   26788   26787   26785   26788
   26791   26789   26790   26790   26789   26792   26791   26789   26792
   26795   26793   26794   26794   26793   26796   26795   26793   26796
   26799   26797   26798   26798   26797   26800   26799   26797   26800
   26803   26801   26802   26802   26801   26804   26803   26801   26804
   26807   26805   26806   26806   26805   26808   26807   26805   26808
   26811   26809   26810   26810   26809   26812   26811   26809   26812
   26815   26813   26814   26814   26813   26816   26815   26813   26816
   26819   26817   26818   26818   26817   26820   26819   26817   26820
   26823   26821   26822   26822   26821   26824   26823   26821   26824
   26827   26825   26826   26826   26825   26828   26827   26825   26828
   26831   26829   26830   26830   26829   26832   26831   26829   26832
   26835   26833   26834   26834   26833   26836   26835   26833   26836
   26839   26837   26838   26838   26837   26840   26839   26837   26840
   26843   26841   26842   26842   26841   26844   26843   26841   26844
   26847   26845   26846   26846   26845   26848   26847   26845   26848
   26851   26849   26850   26850   26849   26852   26851   26849   26852
   26855   26853   26854   26854   26853   26856   26855   26853   26856
   26859   26857   26858   26858   26857   26860   26859   26857   26860
   26863   26861   26862   26862   26861   26864   26863   26861   26864
   26867   26865   26866   26866   26865   26868   26867   26865   26868
   26871   26869   26870   26870   26869   26872   26871   26869   26872
   26875   26873   26874   26874   26873   26876   26875   26873   26876
   26879   26877   26878   26878   26877   26880   26879   26877   26880
   26883   26881   26882   26882   26881   26884   26883   26881   26884
   26887   26885   26886   26886   26885   26888   26887   26885   26888
   26891   26889   26890   26890   26889   26892   26891   26889   26892
   26895   26893   26894   26894   26893   26896   26895   26893   26896
   26899   26897   26898   26898   26897   26900   26899   26897   26900
   26903   26901   26902   26902   26901   26904   26903   26901   26904
   26907   26905   26906   26906   26905   26908   26907   26905   26908
   26911   26909   26910   26910   26909   26912   26911   26909   26912
   26915   26913   26914   26914   26913   26916   26915   26913   26916
   26919   26917   26918   26918   26917   26920   26919   26917   26920
   26923   26921   26922   26922   26921   26924   26923   26921   26924
   26927   26925   26926   26926   26925   26928   26927   26925   26928
   26931   26929   26930   26930   26929   26932   26931   26929   26932
   26935   26933   26934   26934   26933   26936   26935   26933   26936
   26939   26937   26938   26938   26937   26940   26939   26937   26940
   26943   26941   26942   26942   26941   26944   26943   26941   26944
   26947   26945   26946   26946   26945   26948   26947   26945   26948
   26951   26949   26950   26950   26949   26952   26951   26949   26952
   26955   26953   26954   26954   26953   26956   26955   26953   26956
   26959   26957   26958   26958   26957   26960   26959   26957   26960
   26963   26961   26962   26962   26961   26964   26963   26961   26964
   26967   26965   26966   26966   26965   26968   26967   26965   26968
   26971   26969   26970   26970   26969   26972   26971   26969   26972
   26975   26973   26974   26974   26973   26976   26975   26973   26976
   26979   26977   26978   26978   26977   26980   26979   26977   26980
   26983   26981   26982   26982   26981   26984   26983   26981   26984
   26987   26985   26986   26986   26985   26988   26987   26985   26988
   26991   26989   26990   26990   26989   26992   26991   26989   26992
   26995   26993   26994   26994   26993   26996   26995   26993   26996
   26999   26997   26998   26998   26997   27000   26999   26997   27000
   27003   27001   27002   27002   27001   27004   27003   27001   27004
   27007   27005   27006   27006   27005   27008   27007   27005   27008
   27011   27009   27010   27010   27009   27012   27011   27009   27012
   27015   27013   27014   27014   27013   27016   27015   27013   27016
   27019   27017   27018   27018   27017   27020   27019   27017   27020
   27023   27021   27022   27022   27021   27024   27023   27021   27024
   27027   27025   27026   27026   27025   27028   27027   27025   27028
   27031   27029   27030   27030   27029   27032   27031   27029   27032
   27035   27033   27034   27034   27033   27036   27035   27033   27036
   27039   27037   27038   27038   27037   27040   27039   27037   27040
   27043   27041   27042   27042   27041   27044   27043   27041   27044
   27047   27045   27046   27046   27045   27048   27047   27045   27048
   27051   27049   27050   27050   27049   27052   27051   27049   27052
   27055   27053   27054   27054   27053   27056   27055   27053   27056
   27059   27057   27058   27058   27057   27060   27059   27057   27060
   27063   27061   27062   27062   27061   27064   27063   27061   27064
   27067   27065   27066   27066   27065   27068   27067   27065   27068
   27071   27069   27070   27070   27069   27072   27071   27069   27072
   27075   27073   27074   27074   27073   27076   27075   27073   27076
   27079   27077   27078   27078   27077   27080   27079   27077   27080
   27083   27081   27082   27082   27081   27084   27083   27081   27084
   27087   27085   27086   27086   27085   27088   27087   27085   27088
   27091   27089   27090   27090   27089   27092   27091   27089   27092
   27095   27093   27094   27094   27093   27096   27095   27093   27096
   27099   27097   27098   27098   27097   27100   27099   27097   27100
   27103   27101   27102   27102   27101   27104   27103   27101   27104
   27107   27105   27106   27106   27105   27108   27107   27105   27108
   27111   27109   27110   27110   27109   27112   27111   27109   27112
   27115   27113   27114   27114   27113   27116   27115   27113   27116
   27119   27117   27118   27118   27117   27120   27119   27117   27120
   27123   27121   27122   27122   27121   27124   27123   27121   27124
   27127   27125   27126   27126   27125   27128   27127   27125   27128
   27131   27129   27130   27130   27129   27132   27131   27129   27132
   27135   27133   27134   27134   27133   27136   27135   27133   27136
   27139   27137   27138   27138   27137   27140   27139   27137   27140
   27143   27141   27142   27142   27141   27144   27143   27141   27144
   27147   27145   27146   27146   27145   27148   27147   27145   27148
   27151   27149   27150   27150   27149   27152   27151   27149   27152
   27155   27153   27154   27154   27153   27156   27155   27153   27156
   27159   27157   27158   27158   27157   27160   27159   27157   27160
   27163   27161   27162   27162   27161   27164   27163   27161   27164
   27167   27165   27166   27166   27165   27168   27167   27165   27168
   27171   27169   27170   27170   27169   27172   27171   27169   27172
   27175   27173   27174   27174   27173   27176   27175   27173   27176
   27179   27177   27178   27178   27177   27180   27179   27177   27180
   27183   27181   27182   27182   27181   27184   27183   27181   27184
   27187   27185   27186   27186   27185   27188   27187   27185   27188
   27191   27189   27190   27190   27189   27192   27191   27189   27192
   27195   27193   27194   27194   27193   27196   27195   27193   27196
   27199   27197   27198   27198   27197   27200   27199   27197   27200
   27203   27201   27202   27202   27201   27204   27203   27201   27204
   27207   27205   27206   27206   27205   27208   27207   27205   27208
   27211   27209   27210   27210   27209   27212   27211   27209   27212
   27215   27213   27214   27214   27213   27216   27215   27213   27216
   27219   27217   27218   27218   27217   27220   27219   27217   27220
   27223   27221   27222   27222   27221   27224   27223   27221   27224
   27227   27225   27226   27226   27225   27228   27227   27225   27228
   27231   27229   27230   27230   27229   27232   27231   27229   27232
   27235   27233   27234   27234   27233   27236   27235   27233   27236
   27239   27237   27238   27238   27237   27240   27239   27237   27240
   27243   27241   27242   27242   27241   27244   27243   27241   27244
   27247   27245   27246   27246   27245   27248   27247   27245   27248
   27251   27249   27250   27250   27249   27252   27251   27249   27252
   27255   27253   27254   27254   27253   27256   27255   27253   27256
   27259   27257   27258   27258   27257   27260   27259   27257   27260
   27263   27261   27262   27262   27261   27264   27263   27261   27264
   27267   27265   27266   27266   27265   27268   27267   27265   27268
   27271   27269   27270   27270   27269   27272   27271   27269   27272
   27275   27273   27274   27274   27273   27276   27275   27273   27276
   27279   27277   27278   27278   27277   27280   27279   27277   27280
   27283   27281   27282   27282   27281   27284   27283   27281   27284
   27287   27285   27286   27286   27285   27288   27287   27285   27288
   27291   27289   27290   27290   27289   27292   27291   27289   27292
   27295   27293   27294   27294   27293   27296   27295   27293   27296
   27299   27297   27298   27298   27297   27300   27299   27297   27300
   27303   27301   27302   27302   27301   27304   27303   27301   27304
   27307   27305   27306   27306   27305   27308   27307   27305   27308
   27311   27309   27310   27310   27309   27312   27311   27309   27312
   27315   27313   27314   27314   27313   27316   27315   27313   27316
   27319   27317   27318   27318   27317   27320   27319   27317   27320
   27323   27321   27322   27322   27321   27324   27323   27321   27324
   27327   27325   27326   27326   27325   27328   27327   27325   27328
   27331   27329   27330   27330   27329   27332   27331   27329   27332
   27335   27333   27334   27334   27333   27336   27335   27333   27336
   27339   27337   27338   27338   27337   27340   27339   27337   27340
   27343   27341   27342   27342   27341   27344   27343   27341   27344
   27347   27345   27346   27346   27345   27348   27347   27345   27348
   27351   27349   27350   27350   27349   27352   27351   27349   27352
   27355   27353   27354   27354   27353   27356   27355   27353   27356
   27359   27357   27358   27358   27357   27360   27359   27357   27360
   27363   27361   27362   27362   27361   27364   27363   27361   27364
   27367   27365   27366   27366   27365   27368   27367   27365   27368
   27371   27369   27370   27370   27369   27372   27371   27369   27372
   27375   27373   27374   27374   27373   27376   27375   27373   27376
   27379   27377   27378   27378   27377   27380   27379   27377   27380
   27383   27381   27382   27382   27381   27384   27383   27381   27384
   27387   27385   27386   27386   27385   27388   27387   27385   27388
   27391   27389   27390   27390   27389   27392   27391   27389   27392
   27395   27393   27394   27394   27393   27396   27395   27393   27396
   27399   27397   27398   27398   27397   27400   27399   27397   27400
   27403   27401   27402   27402   27401   27404   27403   27401   27404
   27407   27405   27406   27406   27405   27408   27407   27405   27408
   27411   27409   27410   27410   27409   27412   27411   27409   27412
   27415   27413   27414   27414   27413   27416   27415   27413   27416
   27419   27417   27418   27418   27417   27420   27419   27417   27420
   27423   27421   27422   27422   27421   27424   27423   27421   27424
   27427   27425   27426   27426   27425   27428   27427   27425   27428
   27431   27429   27430   27430   27429   27432   27431   27429   27432
   27435   27433   27434   27434   27433   27436   27435   27433   27436
   27439   27437   27438   27438   27437   27440   27439   27437   27440
   27443   27441   27442   27442   27441   27444   27443   27441   27444
   27447   27445   27446   27446   27445   27448   27447   27445   27448
   27451   27449   27450   27450   27449   27452   27451   27449   27452
   27455   27453   27454   27454   27453   27456   27455   27453   27456
   27459   27457   27458   27458   27457   27460   27459   27457   27460
   27463   27461   27462   27462   27461   27464   27463   27461   27464
   27467   27465   27466   27466   27465   27468   27467   27465   27468
   27471   27469   27470   27470   27469   27472   27471   27469   27472
   27475   27473   27474   27474   27473   27476   27475   27473   27476
   27479   27477   27478   27478   27477   27480   27479   27477   27480
   27483   27481   27482   27482   27481   27484   27483   27481   27484
   27487   27485   27486   27486   27485   27488   27487   27485   27488
   27491   27489   27490   27490   27489   27492   27491   27489   27492
   27495   27493   27494   27494   27493   27496   27495   27493   27496
   27499   27497   27498   27498   27497   27500   27499   27497   27500
   27503   27501   27502   27502   27501   27504   27503   27501   27504
   27507   27505   27506   27506   27505   27508   27507   27505   27508
   27511   27509   27510   27510   27509   27512   27511   27509   27512
   27515   27513   27514   27514   27513   27516   27515   27513   27516
   27519   27517   27518   27518   27517   27520   27519   27517   27520
   27523   27521   27522   27522   27521   27524   27523   27521   27524
   27527   27525   27526   27526   27525   27528   27527   27525   27528
   27531   27529   27530   27530   27529   27532   27531   27529   27532
   27535   27533   27534   27534   27533   27536   27535   27533   27536
   27539   27537   27538   27538   27537   27540   27539   27537   27540
   27543   27541   27542   27542   27541   27544   27543   27541   27544
   27547   27545   27546   27546   27545   27548   27547   27545   27548
   27551   27549   27550   27550   27549   27552   27551   27549   27552
   27555   27553   27554   27554   27553   27556   27555   27553   27556
   27559   27557   27558   27558   27557   27560   27559   27557   27560
   27563   27561   27562   27562   27561   27564   27563   27561   27564
   27567   27565   27566   27566   27565   27568   27567   27565   27568
   27571   27569   27570   27570   27569   27572   27571   27569   27572
   27575   27573   27574   27574   27573   27576   27575   27573   27576
   27579   27577   27578   27578   27577   27580   27579   27577   27580
   27583   27581   27582   27582   27581   27584   27583   27581   27584
   27587   27585   27586   27586   27585   27588   27587   27585   27588
   27591   27589   27590   27590   27589   27592   27591   27589   27592
   27595   27593   27594   27594   27593   27596   27595   27593   27596
   27599   27597   27598   27598   27597   27600   27599   27597   27600
   27603   27601   27602   27602   27601   27604   27603   27601   27604
   27607   27605   27606   27606   27605   27608   27607   27605   27608
   27611   27609   27610   27610   27609   27612   27611   27609   27612
   27615   27613   27614   27614   27613   27616   27615   27613   27616
   27619   27617   27618   27618   27617   27620   27619   27617   27620
   27623   27621   27622   27622   27621   27624   27623   27621   27624
   27627   27625   27626   27626   27625   27628   27627   27625   27628
   27631   27629   27630   27630   27629   27632   27631   27629   27632
   27635   27633   27634   27634   27633   27636   27635   27633   27636
   27639   27637   27638   27638   27637   27640   27639   27637   27640
   27643   27641   27642   27642   27641   27644   27643   27641   27644
   27647   27645   27646   27646   27645   27648   27647   27645   27648
   27651   27649   27650   27650   27649   27652   27651   27649   27652
   27655   27653   27654   27654   27653   27656   27655   27653   27656
   27659   27657   27658   27658   27657   27660   27659   27657   27660
   27663   27661   27662   27662   27661   27664   27663   27661   27664
   27667   27665   27666   27666   27665   27668   27667   27665   27668
   27671   27669   27670   27670   27669   27672   27671   27669   27672
   27675   27673   27674   27674   27673   27676   27675   27673   27676
   27679   27677   27678   27678   27677   27680   27679   27677   27680
   27683   27681   27682   27682   27681   27684   27683   27681   27684
   27687   27685   27686   27686   27685   27688   27687   27685   27688
   27691   27689   27690   27690   27689   27692   27691   27689   27692
   27695   27693   27694   27694   27693   27696   27695   27693   27696
   27699   27697   27698   27698   27697   27700   27699   27697   27700
   27703   27701   27702   27702   27701   27704   27703   27701   27704
   27707   27705   27706   27706   27705   27708   27707   27705   27708
   27711   27709   27710   27710   27709   27712   27711   27709   27712
   27715   27713   27714   27714   27713   27716   27715   27713   27716
   27719   27717   27718   27718   27717   27720   27719   27717   27720
   27723   27721   27722   27722   27721   27724   27723   27721   27724
   27727   27725   27726   27726   27725   27728   27727   27725   27728
   27731   27729   27730   27730   27729   27732   27731   27729   27732
   27735   27733   27734   27734   27733   27736   27735   27733   27736
   27739   27737   27738   27738   27737   27740   27739   27737   27740
   27743   27741   27742   27742   27741   27744   27743   27741   27744
   27747   27745   27746   27746   27745   27748   27747   27745   27748
   27751   27749   27750   27750   27749   27752   27751   27749   27752
   27755   27753   27754   27754   27753   27756   27755   27753   27756
   27759   27757   27758   27758   27757   27760   27759   27757   27760
   27763   27761   27762   27762   27761   27764   27763   27761   27764
   27767   27765   27766   27766   27765   27768   27767   27765   27768
   27771   27769   27770   27770   27769   27772   27771   27769   27772
   27775   27773   27774   27774   27773   27776   27775   27773   27776
   27779   27777   27778   27778   27777   27780   27779   27777   27780
   27783   27781   27782   27782   27781   27784   27783   27781   27784
   27787   27785   27786   27786   27785   27788   27787   27785   27788
   27791   27789   27790   27790   27789   27792   27791   27789   27792
   27795   27793   27794   27794   27793   27796   27795   27793   27796
   27799   27797   27798   27798   27797   27800   27799   27797   27800
   27803   27801   27802   27802   27801   27804   27803   27801   27804
   27807   27805   27806   27806   27805   27808   27807   27805   27808
   27811   27809   27810   27810   27809   27812   27811   27809   27812
   27815   27813   27814   27814   27813   27816   27815   27813   27816
   27819   27817   27818   27818   27817   27820   27819   27817   27820
   27823   27821   27822   27822   27821   27824   27823   27821   27824
   27827   27825   27826   27826   27825   27828   27827   27825   27828
   27831   27829   27830   27830   27829   27832   27831   27829   27832
   27835   27833   27834   27834   27833   27836   27835   27833   27836
   27839   27837   27838   27838   27837   27840   27839   27837   27840
   27843   27841   27842   27842   27841   27844   27843   27841   27844
   27847   27845   27846   27846   27845   27848   27847   27845   27848
   27851   27849   27850   27850   27849   27852   27851   27849   27852
   27855   27853   27854   27854   27853   27856   27855   27853   27856
   27859   27857   27858   27858   27857   27860   27859   27857   27860
   27863   27861   27862   27862   27861   27864   27863   27861   27864
   27867   27865   27866   27866   27865   27868   27867   27865   27868
   27871   27869   27870   27870   27869   27872   27871   27869   27872
   27875   27873   27874   27874   27873   27876   27875   27873   27876
   27879   27877   27878   27878   27877   27880   27879   27877   27880
   27883   27881   27882   27882   27881   27884   27883   27881   27884
   27887   27885   27886   27886   27885   27888   27887   27885   27888
   27891   27889   27890   27890   27889   27892   27891   27889   27892
   27895   27893   27894   27894   27893   27896   27895   27893   27896
   27899   27897   27898   27898   27897   27900   27899   27897   27900
   27903   27901   27902   27902   27901   27904   27903   27901   27904
   27907   27905   27906   27906   27905   27908   27907   27905   27908
   27911   27909   27910   27910   27909   27912   27911   27909   27912
   27915   27913   27914   27914   27913   27916   27915   27913   27916
   27919   27917   27918   27918   27917   27920   27919   27917   27920
   27923   27921   27922   27922   27921   27924   27923   27921   27924
   27927   27925   27926   27926   27925   27928   27927   27925   27928
   27931   27929   27930   27930   27929   27932   27931   27929   27932
   27935   27933   27934   27934   27933   27936   27935   27933   27936
   27939   27937   27938   27938   27937   27940   27939   27937   27940
   27943   27941   27942   27942   27941   27944   27943   27941   27944
   27947   27945   27946   27946   27945   27948   27947   27945   27948
   27951   27949   27950   27950   27949   27952   27951   27949   27952
   27955   27953   27954   27954   27953   27956   27955   27953   27956
   27959   27957   27958   27958   27957   27960   27959   27957   27960
   27963   27961   27962   27962   27961   27964   27963   27961   27964
   27967   27965   27966   27966   27965   27968   27967   27965   27968
   27971   27969   27970   27970   27969   27972   27971   27969   27972
   27975   27973   27974   27974   27973   27976   27975   27973   27976
   27979   27977   27978   27978   27977   27980   27979   27977   27980
   27983   27981   27982   27982   27981   27984   27983   27981   27984
   27987   27985   27986   27986   27985   27988   27987   27985   27988
   27991   27989   27990   27990   27989   27992   27991   27989   27992
   27995   27993   27994   27994   27993   27996   27995   27993   27996
   27999   27997   27998   27998   27997   28000   27999   27997   28000
   28003   28001   28002   28002   28001   28004   28003   28001   28004
   28007   28005   28006   28006   28005   28008   28007   28005   28008
   28011   28009   28010   28010   28009   28012   28011   28009   28012
   28015   28013   28014   28014   28013   28016   28015   28013   28016
   28019   28017   28018   28018   28017   28020   28019   28017   28020
   28023   28021   28022   28022   28021   28024   28023   28021   28024
   28027   28025   28026   28026   28025   28028   28027   28025   28028
   28031   28029   28030   28030   28029   28032   28031   28029   28032
   28035   28033   28034   28034   28033   28036   28035   28033   28036
   28039   28037   28038   28038   28037   28040   28039   28037   28040
   28043   28041   28042   28042   28041   28044   28043   28041   28044
   28047   28045   28046   28046   28045   28048   28047   28045   28048
   28051   28049   28050   28050   28049   28052   28051   28049   28052
   28055   28053   28054   28054   28053   28056   28055   28053   28056
   28059   28057   28058   28058   28057   28060   28059   28057   28060
   28063   28061   28062   28062   28061   28064   28063   28061   28064
   28067   28065   28066   28066   28065   28068   28067   28065   28068
   28071   28069   28070   28070   28069   28072   28071   28069   28072
   28075   28073   28074   28074   28073   28076   28075   28073   28076
   28079   28077   28078   28078   28077   28080   28079   28077   28080
   28083   28081   28082   28082   28081   28084   28083   28081   28084
   28087   28085   28086   28086   28085   28088   28087   28085   28088
   28091   28089   28090   28090   28089   28092   28091   28089   28092
   28095   28093   28094   28094   28093   28096   28095   28093   28096
   28099   28097   28098   28098   28097   28100   28099   28097   28100
   28103   28101   28102   28102   28101   28104   28103   28101   28104
   28107   28105   28106   28106   28105   28108   28107   28105   28108
   28111   28109   28110   28110   28109   28112   28111   28109   28112
   28115   28113   28114   28114   28113   28116   28115   28113   28116
   28119   28117   28118   28118   28117   28120   28119   28117   28120
   28123   28121   28122   28122   28121   28124   28123   28121   28124
   28127   28125   28126   28126   28125   28128   28127   28125   28128
   28131   28129   28130   28130   28129   28132   28131   28129   28132
   28135   28133   28134   28134   28133   28136   28135   28133   28136
   28139   28137   28138   28138   28137   28140   28139   28137   28140
   28143   28141   28142   28142   28141   28144   28143   28141   28144
   28147   28145   28146   28146   28145   28148   28147   28145   28148
   28151   28149   28150   28150   28149   28152   28151   28149   28152
   28155   28153   28154   28154   28153   28156   28155   28153   28156
   28159   28157   28158   28158   28157   28160   28159   28157   28160
   28163   28161   28162   28162   28161   28164   28163   28161   28164
   28167   28165   28166   28166   28165   28168   28167   28165   28168
   28171   28169   28170   28170   28169   28172   28171   28169   28172
   28175   28173   28174   28174   28173   28176   28175   28173   28176
   28179   28177   28178   28178   28177   28180   28179   28177   28180
   28183   28181   28182   28182   28181   28184   28183   28181   28184
   28187   28185   28186   28186   28185   28188   28187   28185   28188
   28191   28189   28190   28190   28189   28192   28191   28189   28192
   28195   28193   28194   28194   28193   28196   28195   28193   28196
   28199   28197   28198   28198   28197   28200   28199   28197   28200
   28203   28201   28202   28202   28201   28204   28203   28201   28204
   28207   28205   28206   28206   28205   28208   28207   28205   28208
   28211   28209   28210   28210   28209   28212   28211   28209   28212
   28215   28213   28214   28214   28213   28216   28215   28213   28216
   28219   28217   28218   28218   28217   28220   28219   28217   28220
   28223   28221   28222   28222   28221   28224   28223   28221   28224
   28227   28225   28226   28226   28225   28228   28227   28225   28228
   28231   28229   28230   28230   28229   28232   28231   28229   28232
   28235   28233   28234   28234   28233   28236   28235   28233   28236
   28239   28237   28238   28238   28237   28240   28239   28237   28240
   28243   28241   28242   28242   28241   28244   28243   28241   28244
   28247   28245   28246   28246   28245   28248   28247   28245   28248
   28251   28249   28250   28250   28249   28252   28251   28249   28252
   28255   28253   28254   28254   28253   28256   28255   28253   28256
   28259   28257   28258   28258   28257   28260   28259   28257   28260
   28263   28261   28262   28262   28261   28264   28263   28261   28264
   28267   28265   28266   28266   28265   28268   28267   28265   28268
   28271   28269   28270   28270   28269   28272   28271   28269   28272
   28275   28273   28274   28274   28273   28276   28275   28273   28276
   28279   28277   28278   28278   28277   28280   28279   28277   28280
   28283   28281   28282   28282   28281   28284   28283   28281   28284
   28287   28285   28286   28286   28285   28288   28287   28285   28288
   28291   28289   28290   28290   28289   28292   28291   28289   28292
   28295   28293   28294   28294   28293   28296   28295   28293   28296
   28299   28297   28298   28298   28297   28300   28299   28297   28300
   28303   28301   28302   28302   28301   28304   28303   28301   28304
   28307   28305   28306   28306   28305   28308   28307   28305   28308
   28311   28309   28310   28310   28309   28312   28311   28309   28312
   28315   28313   28314   28314   28313   28316   28315   28313   28316
   28319   28317   28318   28318   28317   28320   28319   28317   28320
   28323   28321   28322   28322   28321   28324   28323   28321   28324
   28327   28325   28326   28326   28325   28328   28327   28325   28328
   28331   28329   28330   28330   28329   28332   28331   28329   28332
   28335   28333   28334   28334   28333   28336   28335   28333   28336
   28339   28337   28338   28338   28337   28340   28339   28337   28340
   28343   28341   28342   28342   28341   28344   28343   28341   28344
   28347   28345   28346   28346   28345   28348   28347   28345   28348
   28351   28349   28350   28350   28349   28352   28351   28349   28352
   28355   28353   28354   28354   28353   28356   28355   28353   28356
   28359   28357   28358   28358   28357   28360   28359   28357   28360
   28363   28361   28362   28362   28361   28364   28363   28361   28364
   28367   28365   28366   28366   28365   28368   28367   28365   28368
   28371   28369   28370   28370   28369   28372   28371   28369   28372
   28375   28373   28374   28374   28373   28376   28375   28373   28376
   28379   28377   28378   28378   28377   28380   28379   28377   28380
   28383   28381   28382   28382   28381   28384   28383   28381   28384
   28387   28385   28386   28386   28385   28388   28387   28385   28388
   28391   28389   28390   28390   28389   28392   28391   28389   28392
   28395   28393   28394   28394   28393   28396   28395   28393   28396
   28399   28397   28398   28398   28397   28400   28399   28397   28400
   28403   28401   28402   28402   28401   28404   28403   28401   28404
   28407   28405   28406   28406   28405   28408   28407   28405   28408
   28411   28409   28410   28410   28409   28412   28411   28409   28412
   28415   28413   28414   28414   28413   28416   28415   28413   28416
   28419   28417   28418   28418   28417   28420   28419   28417   28420
   28423   28421   28422   28422   28421   28424   28423   28421   28424
   28427   28425   28426   28426   28425   28428   28427   28425   28428
   28431   28429   28430   28430   28429   28432   28431   28429   28432
   28435   28433   28434   28434   28433   28436   28435   28433   28436
   28439   28437   28438   28438   28437   28440   28439   28437   28440
   28443   28441   28442   28442   28441   28444   28443   28441   28444
   28447   28445   28446   28446   28445   28448   28447   28445   28448
   28451   28449   28450   28450   28449   28452   28451   28449   28452
   28455   28453   28454   28454   28453   28456   28455   28453   28456
   28459   28457   28458   28458   28457   28460   28459   28457   28460
   28463   28461   28462   28462   28461   28464   28463   28461   28464
   28467   28465   28466   28466   28465   28468   28467   28465   28468
   28471   28469   28470   28470   28469   28472   28471   28469   28472
   28475   28473   28474   28474   28473   28476   28475   28473   28476
   28479   28477   28478   28478   28477   28480   28479   28477   28480
   28483   28481   28482   28482   28481   28484   28483   28481   28484
   28487   28485   28486   28486   28485   28488   28487   28485   28488
   28491   28489   28490   28490   28489   28492   28491   28489   28492
   28495   28493   28494   28494   28493   28496   28495   28493   28496
   28499   28497   28498   28498   28497   28500   28499   28497   28500
   28503   28501   28502   28502   28501   28504   28503   28501   28504
   28507   28505   28506   28506   28505   28508   28507   28505   28508
   28511   28509   28510   28510   28509   28512   28511   28509   28512
   28515   28513   28514   28514   28513   28516   28515   28513   28516
   28519   28517   28518   28518   28517   28520   28519   28517   28520
   28523   28521   28522   28522   28521   28524   28523   28521   28524
   28527   28525   28526   28526   28525   28528   28527   28525   28528
   28531   28529   28530   28530   28529   28532   28531   28529   28532
   28535   28533   28534   28534   28533   28536   28535   28533   28536
   28539   28537   28538   28538   28537   28540   28539   28537   28540
   28543   28541   28542   28542   28541   28544   28543   28541   28544
   28547   28545   28546   28546   28545   28548   28547   28545   28548
   28551   28549   28550   28550   28549   28552   28551   28549   28552
   28555   28553   28554   28554   28553   28556   28555   28553   28556
   28559   28557   28558   28558   28557   28560   28559   28557   28560
   28563   28561   28562   28562   28561   28564   28563   28561   28564
   28567   28565   28566   28566   28565   28568   28567   28565   28568
   28571   28569   28570   28570   28569   28572   28571   28569   28572
   28575   28573   28574   28574   28573   28576   28575   28573   28576
   28579   28577   28578   28578   28577   28580   28579   28577   28580
   28583   28581   28582   28582   28581   28584   28583   28581   28584
   28587   28585   28586   28586   28585   28588   28587   28585   28588
   28591   28589   28590   28590   28589   28592   28591   28589   28592
   28595   28593   28594   28594   28593   28596   28595   28593   28596
   28599   28597   28598   28598   28597   28600   28599   28597   28600
   28603   28601   28602   28602   28601   28604   28603   28601   28604
   28607   28605   28606   28606   28605   28608   28607   28605   28608
   28611   28609   28610   28610   28609   28612   28611   28609   28612
   28615   28613   28614   28614   28613   28616   28615   28613   28616
   28619   28617   28618   28618   28617   28620   28619   28617   28620
   28623   28621   28622   28622   28621   28624   28623   28621   28624
   28627   28625   28626   28626   28625   28628   28627   28625   28628
   28631   28629   28630   28630   28629   28632   28631   28629   28632
   28635   28633   28634   28634   28633   28636   28635   28633   28636
   28639   28637   28638   28638   28637   28640   28639   28637   28640
   28643   28641   28642   28642   28641   28644   28643   28641   28644
   28647   28645   28646   28646   28645   28648   28647   28645   28648
   28651   28649   28650   28650   28649   28652   28651   28649   28652
   28655   28653   28654   28654   28653   28656   28655   28653   28656
   28659   28657   28658   28658   28657   28660   28659   28657   28660
   28663   28661   28662   28662   28661   28664   28663   28661   28664
   28667   28665   28666   28666   28665   28668   28667   28665   28668
   28671   28669   28670   28670   28669   28672   28671   28669   28672
   28675   28673   28674   28674   28673   28676   28675   28673   28676
   28679   28677   28678   28678   28677   28680   28679   28677   28680
   28683   28681   28682   28682   28681   28684   28683   28681   28684
   28687   28685   28686   28686   28685   28688   28687   28685   28688
   28691   28689   28690   28690   28689   28692   28691   28689   28692
   28695   28693   28694   28694   28693   28696   28695   28693   28696
   28699   28697   28698   28698   28697   28700   28699   28697   28700
   28703   28701   28702   28702   28701   28704   28703   28701   28704
   28707   28705   28706   28706   28705   28708   28707   28705   28708
   28711   28709   28710   28710   28709   28712   28711   28709   28712
   28715   28713   28714   28714   28713   28716   28715   28713   28716
   28719   28717   28718   28718   28717   28720   28719   28717   28720
   28723   28721   28722   28722   28721   28724   28723   28721   28724
   28727   28725   28726   28726   28725   28728   28727   28725   28728
   28731   28729   28730   28730   28729   28732   28731   28729   28732
   28735   28733   28734   28734   28733   28736   28735   28733   28736
   28739   28737   28738   28738   28737   28740   28739   28737   28740
   28743   28741   28742   28742   28741   28744   28743   28741   28744
   28747   28745   28746   28746   28745   28748   28747   28745   28748
   28751   28749   28750   28750   28749   28752   28751   28749   28752
   28755   28753   28754   28754   28753   28756   28755   28753   28756
   28759   28757   28758   28758   28757   28760   28759   28757   28760
   28763   28761   28762   28762   28761   28764   28763   28761   28764
   28767   28765   28766   28766   28765   28768   28767   28765   28768
   28771   28769   28770   28770   28769   28772   28771   28769   28772
   28775   28773   28774   28774   28773   28776   28775   28773   28776
   28779   28777   28778   28778   28777   28780   28779   28777   28780
   28783   28781   28782   28782   28781   28784   28783   28781   28784
   28787   28785   28786   28786   28785   28788   28787   28785   28788
   28791   28789   28790   28790   28789   28792   28791   28789   28792
   28795   28793   28794   28794   28793   28796   28795   28793   28796
   28799   28797   28798   28798   28797   28800   28799   28797   28800
   28803   28801   28802   28802   28801   28804   28803   28801   28804
   28807   28805   28806   28806   28805   28808   28807   28805   28808
   28811   28809   28810   28810   28809   28812   28811   28809   28812
   28815   28813   28814   28814   28813   28816   28815   28813   28816
   28819   28817   28818   28818   28817   28820   28819   28817   28820
   28823   28821   28822   28822   28821   28824   28823   28821   28824
   28827   28825   28826   28826   28825   28828   28827   28825   28828
   28831   28829   28830   28830   28829   28832   28831   28829   28832
   28835   28833   28834   28834   28833   28836   28835   28833   28836
   28839   28837   28838   28838   28837   28840   28839   28837   28840
   28843   28841   28842   28842   28841   28844   28843   28841   28844
   28847   28845   28846   28846   28845   28848   28847   28845   28848
   28851   28849   28850   28850   28849   28852   28851   28849   28852
   28855   28853   28854   28854   28853   28856   28855   28853   28856
   28859   28857   28858   28858   28857   28860   28859   28857   28860
   28863   28861   28862   28862   28861   28864   28863   28861   28864
   28867   28865   28866   28866   28865   28868   28867   28865   28868
   28871   28869   28870   28870   28869   28872   28871   28869   28872
   28875   28873   28874   28874   28873   28876   28875   28873   28876
   28879   28877   28878   28878   28877   28880   28879   28877   28880
   28883   28881   28882   28882   28881   28884   28883   28881   28884
   28887   28885   28886   28886   28885   28888   28887   28885   28888
   28891   28889   28890   28890   28889   28892   28891   28889   28892
   28895   28893   28894   28894   28893   28896   28895   28893   28896
   28899   28897   28898   28898   28897   28900   28899   28897   28900
   28903   28901   28902   28902   28901   28904   28903   28901   28904
   28907   28905   28906   28906   28905   28908   28907   28905   28908
   28911   28909   28910   28910   28909   28912   28911   28909   28912
   28915   28913   28914   28914   28913   28916   28915   28913   28916
   28919   28917   28918   28918   28917   28920   28919   28917   28920
   28923   28921   28922   28922   28921   28924   28923   28921   28924
   28927   28925   28926   28926   28925   28928   28927   28925   28928
   28931   28929   28930   28930   28929   28932   28931   28929   28932
   28935   28933   28934   28934   28933   28936   28935   28933   28936
   28939   28937   28938   28938   28937   28940   28939   28937   28940
   28943   28941   28942   28942   28941   28944   28943   28941   28944
   28947   28945   28946   28946   28945   28948   28947   28945   28948
   28951   28949   28950   28950   28949   28952   28951   28949   28952
   28955   28953   28954   28954   28953   28956   28955   28953   28956
   28959   28957   28958   28958   28957   28960   28959   28957   28960
   28963   28961   28962   28962   28961   28964   28963   28961   28964
   28967   28965   28966   28966   28965   28968   28967   28965   28968
   28971   28969   28970   28970   28969   28972   28971   28969   28972
   28975   28973   28974   28974   28973   28976   28975   28973   28976
   28979   28977   28978   28978   28977   28980   28979   28977   28980
   28983   28981   28982   28982   28981   28984   28983   28981   28984
   28987   28985   28986   28986   28985   28988   28987   28985   28988
   28991   28989   28990   28990   28989   28992   28991   28989   28992
   28995   28993   28994   28994   28993   28996   28995   28993   28996
   28999   28997   28998   28998   28997   29000   28999   28997   29000
   29003   29001   29002   29002   29001   29004   29003   29001   29004
   29007   29005   29006   29006   29005   29008   29007   29005   29008
   29011   29009   29010   29010   29009   29012   29011   29009   29012
   29015   29013   29014   29014   29013   29016   29015   29013   29016
   29019   29017   29018   29018   29017   29020   29019   29017   29020
   29023   29021   29022   29022   29021   29024   29023   29021   29024
   29027   29025   29026   29026   29025   29028   29027   29025   29028
   29031   29029   29030   29030   29029   29032   29031   29029   29032
   29035   29033   29034   29034   29033   29036   29035   29033   29036
   29039   29037   29038   29038   29037   29040   29039   29037   29040
   29043   29041   29042   29042   29041   29044   29043   29041   29044
   29047   29045   29046   29046   29045   29048   29047   29045   29048
   29051   29049   29050   29050   29049   29052   29051   29049   29052
   29055   29053   29054   29054   29053   29056   29055   29053   29056
   29059   29057   29058   29058   29057   29060   29059   29057   29060
   29063   29061   29062   29062   29061   29064   29063   29061   29064
   29067   29065   29066   29066   29065   29068   29067   29065   29068
   29071   29069   29070   29070   29069   29072   29071   29069   29072
   29075   29073   29074   29074   29073   29076   29075   29073   29076
   29079   29077   29078   29078   29077   29080   29079   29077   29080
   29083   29081   29082   29082   29081   29084   29083   29081   29084
   29087   29085   29086   29086   29085   29088   29087   29085   29088
   29091   29089   29090   29090   29089   29092   29091   29089   29092
   29095   29093   29094   29094   29093   29096   29095   29093   29096
   29099   29097   29098   29098   29097   29100   29099   29097   29100
   29103   29101   29102   29102   29101   29104   29103   29101   29104
   29107   29105   29106   29106   29105   29108   29107   29105   29108
   29111   29109   29110   29110   29109   29112   29111   29109   29112
   29115   29113   29114   29114   29113   29116   29115   29113   29116
   29119   29117   29118   29118   29117   29120   29119   29117   29120
   29123   29121   29122   29122   29121   29124   29123   29121   29124
   29127   29125   29126   29126   29125   29128   29127   29125   29128
   29131   29129   29130   29130   29129   29132   29131   29129   29132
   29135   29133   29134   29134   29133   29136   29135   29133   29136
   29139   29137   29138   29138   29137   29140   29139   29137   29140
   29143   29141   29142   29142   29141   29144   29143   29141   29144
   29147   29145   29146   29146   29145   29148   29147   29145   29148
   29151   29149   29150   29150   29149   29152   29151   29149   29152
   29155   29153   29154   29154   29153   29156   29155   29153   29156
   29159   29157   29158   29158   29157   29160   29159   29157   29160
   29163   29161   29162   29162   29161   29164   29163   29161   29164
   29167   29165   29166   29166   29165   29168   29167   29165   29168
   29171   29169   29170   29170   29169   29172   29171   29169   29172
   29175   29173   29174   29174   29173   29176   29175   29173   29176
   29179   29177   29178   29178   29177   29180   29179   29177   29180
   29183   29181   29182   29182   29181   29184   29183   29181   29184
   29187   29185   29186   29186   29185   29188   29187   29185   29188
   29191   29189   29190   29190   29189   29192   29191   29189   29192
   29195   29193   29194   29194   29193   29196   29195   29193   29196
   29199   29197   29198   29198   29197   29200   29199   29197   29200
   29203   29201   29202   29202   29201   29204   29203   29201   29204
   29207   29205   29206   29206   29205   29208   29207   29205   29208
   29211   29209   29210   29210   29209   29212   29211   29209   29212
   29215   29213   29214   29214   29213   29216   29215   29213   29216
   29219   29217   29218   29218   29217   29220   29219   29217   29220
   29223   29221   29222   29222   29221   29224   29223   29221   29224
   29227   29225   29226   29226   29225   29228   29227   29225   29228
   29231   29229   29230   29230   29229   29232   29231   29229   29232
   29235   29233   29234   29234   29233   29236   29235   29233   29236
   29239   29237   29238   29238   29237   29240   29239   29237   29240
   29243   29241   29242   29242   29241   29244   29243   29241   29244
   29247   29245   29246   29246   29245   29248   29247   29245   29248
   29251   29249   29250   29250   29249   29252   29251   29249   29252
   29255   29253   29254   29254   29253   29256   29255   29253   29256
   29259   29257   29258   29258   29257   29260   29259   29257   29260
   29263   29261   29262   29262   29261   29264   29263   29261   29264
   29267   29265   29266   29266   29265   29268   29267   29265   29268
   29271   29269   29270   29270   29269   29272   29271   29269   29272
   29275   29273   29274   29274   29273   29276   29275   29273   29276
   29279   29277   29278   29278   29277   29280   29279   29277   29280
   29283   29281   29282   29282   29281   29284   29283   29281   29284
   29287   29285   29286   29286   29285   29288   29287   29285   29288
   29291   29289   29290   29290   29289   29292   29291   29289   29292
   29295   29293   29294   29294   29293   29296   29295   29293   29296
   29299   29297   29298   29298   29297   29300   29299   29297   29300
   29303   29301   29302   29302   29301   29304   29303   29301   29304
   29307   29305   29306   29306   29305   29308   29307   29305   29308
   29311   29309   29310   29310   29309   29312   29311   29309   29312
   29315   29313   29314   29314   29313   29316   29315   29313   29316
   29319   29317   29318   29318   29317   29320   29319   29317   29320
   29323   29321   29322   29322   29321   29324   29323   29321   29324
   29327   29325   29326   29326   29325   29328   29327   29325   29328
   29331   29329   29330   29330   29329   29332   29331   29329   29332
   29335   29333   29334   29334   29333   29336   29335   29333   29336
   29339   29337   29338   29338   29337   29340   29339   29337   29340
   29343   29341   29342   29342   29341   29344   29343   29341   29344
   29347   29345   29346   29346   29345   29348   29347   29345   29348
   29351   29349   29350   29350   29349   29352   29351   29349   29352
   29355   29353   29354   29354   29353   29356   29355   29353   29356
   29359   29357   29358   29358   29357   29360   29359   29357   29360
   29363   29361   29362   29362   29361   29364   29363   29361   29364
   29367   29365   29366   29366   29365   29368   29367   29365   29368
   29371   29369   29370   29370   29369   29372   29371   29369   29372
   29375   29373   29374   29374   29373   29376   29375   29373   29376
   29379   29377   29378   29378   29377   29380   29379   29377   29380
   29383   29381   29382   29382   29381   29384   29383   29381   29384
   29387   29385   29386   29386   29385   29388   29387   29385   29388
   29391   29389   29390   29390   29389   29392   29391   29389   29392
   29395   29393   29394   29394   29393   29396   29395   29393   29396
   29399   29397   29398   29398   29397   29400   29399   29397   29400
   29403   29401   29402   29402   29401   29404   29403   29401   29404
   29407   29405   29406   29406   29405   29408   29407   29405   29408
   29411   29409   29410   29410   29409   29412   29411   29409   29412
   29415   29413   29414   29414   29413   29416   29415   29413   29416
   29419   29417   29418   29418   29417   29420   29419   29417   29420
   29423   29421   29422   29422   29421   29424   29423   29421   29424
   29427   29425   29426   29426   29425   29428   29427   29425   29428
   29431   29429   29430   29430   29429   29432   29431   29429   29432
   29435   29433   29434   29434   29433   29436   29435   29433   29436
   29439   29437   29438   29438   29437   29440   29439   29437   29440
   29443   29441   29442   29442   29441   29444   29443   29441   29444
   29447   29445   29446   29446   29445   29448   29447   29445   29448
   29451   29449   29450   29450   29449   29452   29451   29449   29452
   29455   29453   29454   29454   29453   29456   29455   29453   29456
   29459   29457   29458   29458   29457   29460   29459   29457   29460
   29463   29461   29462   29462   29461   29464   29463   29461   29464
   29467   29465   29466   29466   29465   29468   29467   29465   29468
   29471   29469   29470   29470   29469   29472   29471   29469   29472
   29475   29473   29474   29474   29473   29476   29475   29473   29476
   29479   29477   29478   29478   29477   29480   29479   29477   29480
   29483   29481   29482   29482   29481   29484   29483   29481   29484
   29487   29485   29486   29486   29485   29488   29487   29485   29488
   29491   29489   29490   29490   29489   29492   29491   29489   29492
   29495   29493   29494   29494   29493   29496   29495   29493   29496
   29499   29497   29498   29498   29497   29500   29499   29497   29500
   29503   29501   29502   29502   29501   29504   29503   29501   29504
   29507   29505   29506   29506   29505   29508   29507   29505   29508
   29511   29509   29510   29510   29509   29512   29511   29509   29512
   29515   29513   29514   29514   29513   29516   29515   29513   29516
   29519   29517   29518   29518   29517   29520   29519   29517   29520
   29523   29521   29522   29522   29521   29524   29523   29521   29524
   29527   29525   29526   29526   29525   29528   29527   29525   29528
   29531   29529   29530   29530   29529   29532   29531   29529   29532
   29535   29533   29534   29534   29533   29536   29535   29533   29536
   29539   29537   29538   29538   29537   29540   29539   29537   29540
   29543   29541   29542   29542   29541   29544   29543   29541   29544
   29547   29545   29546   29546   29545   29548   29547   29545   29548
   29551   29549   29550   29550   29549   29552   29551   29549   29552
   29555   29553   29554   29554   29553   29556   29555   29553   29556
   29559   29557   29558   29558   29557   29560   29559   29557   29560
   29563   29561   29562   29562   29561   29564   29563   29561   29564
   29567   29565   29566   29566   29565   29568   29567   29565   29568
   29571   29569   29570   29570   29569   29572   29571   29569   29572
   29575   29573   29574   29574   29573   29576   29575   29573   29576
   29579   29577   29578   29578   29577   29580   29579   29577   29580
   29583   29581   29582   29582   29581   29584   29583   29581   29584
   29587   29585   29586   29586   29585   29588   29587   29585   29588
   29591   29589   29590   29590   29589   29592   29591   29589   29592
   29595   29593   29594   29594   29593   29596   29595   29593   29596
   29599   29597   29598   29598   29597   29600   29599   29597   29600
   29603   29601   29602   29602   29601   29604   29603   29601   29604
   29607   29605   29606   29606   29605   29608   29607   29605   29608
   29611   29609   29610   29610   29609   29612   29611   29609   29612
   29615   29613   29614   29614   29613   29616   29615   29613   29616
   29619   29617   29618   29618   29617   29620   29619   29617   29620
   29623   29621   29622   29622   29621   29624   29623   29621   29624
   29627   29625   29626   29626   29625   29628   29627   29625   29628
   29631   29629   29630   29630   29629   29632   29631   29629   29632
   29635   29633   29634   29634   29633   29636   29635   29633   29636
   29639   29637   29638   29638   29637   29640   29639   29637   29640
   29643   29641   29642   29642   29641   29644   29643   29641   29644
   29647   29645   29646   29646   29645   29648   29647   29645   29648
   29651   29649   29650   29650   29649   29652   29651   29649   29652
   29655   29653   29654   29654   29653   29656   29655   29653   29656
   29659   29657   29658   29658   29657   29660   29659   29657   29660
   29663   29661   29662   29662   29661   29664   29663   29661   29664
   29667   29665   29666   29666   29665   29668   29667   29665   29668
   29671   29669   29670   29670   29669   29672   29671   29669   29672
   29675   29673   29674   29674   29673   29676   29675   29673   29676
   29679   29677   29678   29678   29677   29680   29679   29677   29680
   29683   29681   29682   29682   29681   29684   29683   29681   29684
   29687   29685   29686   29686   29685   29688   29687   29685   29688
   29691   29689   29690   29690   29689   29692   29691   29689   29692
   29695   29693   29694   29694   29693   29696   29695   29693   29696
   29699   29697   29698   29698   29697   29700   29699   29697   29700
   29703   29701   29702   29702   29701   29704   29703   29701   29704
   29707   29705   29706   29706   29705   29708   29707   29705   29708
   29711   29709   29710   29710   29709   29712   29711   29709   29712
   29715   29713   29714   29714   29713   29716   29715   29713   29716
   29719   29717   29718   29718   29717   29720   29719   29717   29720
   29723   29721   29722   29722   29721   29724   29723   29721   29724
   29727   29725   29726   29726   29725   29728   29727   29725   29728
   29731   29729   29730   29730   29729   29732   29731   29729   29732
   29735   29733   29734   29734   29733   29736   29735   29733   29736
   29739   29737   29738   29738   29737   29740   29739   29737   29740
   29743   29741   29742   29742   29741   29744   29743   29741   29744
   29747   29745   29746   29746   29745   29748   29747   29745   29748
   29751   29749   29750   29750   29749   29752   29751   29749   29752
   29755   29753   29754   29754   29753   29756   29755   29753   29756
   29759   29757   29758   29758   29757   29760   29759   29757   29760
   29763   29761   29762   29762   29761   29764   29763   29761   29764
   29767   29765   29766   29766   29765   29768   29767   29765   29768
   29771   29769   29770   29770   29769   29772   29771   29769   29772
   29775   29773   29774   29774   29773   29776   29775   29773   29776
   29779   29777   29778   29778   29777   29780   29779   29777   29780
   29783   29781   29782   29782   29781   29784   29783   29781   29784
   29787   29785   29786   29786   29785   29788   29787   29785   29788
   29791   29789   29790   29790   29789   29792   29791   29789   29792
   29795   29793   29794   29794   29793   29796   29795   29793   29796
   29799   29797   29798   29798   29797   29800   29799   29797   29800
   29803   29801   29802   29802   29801   29804   29803   29801   29804
   29807   29805   29806   29806   29805   29808   29807   29805   29808
   29811   29809   29810   29810   29809   29812   29811   29809   29812
   29815   29813   29814   29814   29813   29816   29815   29813   29816
   29819   29817   29818   29818   29817   29820   29819   29817   29820
   29823   29821   29822   29822   29821   29824   29823   29821   29824
   29827   29825   29826   29826   29825   29828   29827   29825   29828
   29831   29829   29830   29830   29829   29832   29831   29829   29832
   29835   29833   29834   29834   29833   29836   29835   29833   29836
   29839   29837   29838   29838   29837   29840   29839   29837   29840
   29843   29841   29842   29842   29841   29844   29843   29841   29844
   29847   29845   29846   29846   29845   29848   29847   29845   29848
   29851   29849   29850   29850   29849   29852   29851   29849   29852
   29855   29853   29854   29854   29853   29856   29855   29853   29856
   29859   29857   29858   29858   29857   29860   29859   29857   29860
   29863   29861   29862   29862   29861   29864   29863   29861   29864
   29867   29865   29866   29866   29865   29868   29867   29865   29868
   29871   29869   29870   29870   29869   29872   29871   29869   29872
   29875   29873   29874   29874   29873   29876   29875   29873   29876
   29879   29877   29878   29878   29877   29880   29879   29877   29880
   29883   29881   29882   29882   29881   29884   29883   29881   29884
   29887   29885   29886   29886   29885   29888   29887   29885   29888
   29891   29889   29890   29890   29889   29892   29891   29889   29892
   29895   29893   29894   29894   29893   29896   29895   29893   29896
   29899   29897   29898   29898   29897   29900   29899   29897   29900
   29903   29901   29902   29902   29901   29904   29903   29901   29904
   29907   29905   29906   29906   29905   29908   29907   29905   29908
   29911   29909   29910   29910   29909   29912   29911   29909   29912
   29915   29913   29914   29914   29913   29916   29915   29913   29916
   29919   29917   29918   29918   29917   29920   29919   29917   29920
   29923   29921   29922   29922   29921   29924   29923   29921   29924
   29927   29925   29926   29926   29925   29928   29927   29925   29928
   29931   29929   29930   29930   29929   29932   29931   29929   29932
   29935   29933   29934   29934   29933   29936   29935   29933   29936
   29939   29937   29938   29938   29937   29940   29939   29937   29940
   29943   29941   29942   29942   29941   29944   29943   29941   29944
   29947   29945   29946   29946   29945   29948   29947   29945   29948
   29951   29949   29950   29950   29949   29952   29951   29949   29952
   29955   29953   29954   29954   29953   29956   29955   29953   29956
   29959   29957   29958   29958   29957   29960   29959   29957   29960
   29963   29961   29962   29962   29961   29964   29963   29961   29964
   29967   29965   29966   29966   29965   29968   29967   29965   29968
   29971   29969   29970   29970   29969   29972   29971   29969   29972
   29975   29973   29974   29974   29973   29976   29975   29973   29976
   29979   29977   29978   29978   29977   29980   29979   29977   29980
   29983   29981   29982   29982   29981   29984   29983   29981   29984
   29987   29985   29986   29986   29985   29988   29987   29985   29988
   29991   29989   29990   29990   29989   29992   29991   29989   29992
   29995   29993   29994   29994   29993   29996   29995   29993   29996
   29999   29997   29998   29998   29997   30000   29999   29997   30000
   30003   30001   30002   30002   30001   30004   30003   30001   30004
   30007   30005   30006   30006   30005   30008   30007   30005   30008
   30011   30009   30010   30010   30009   30012   30011   30009   30012
   30015   30013   30014   30014   30013   30016   30015   30013   30016
   30019   30017   30018   30018   30017   30020   30019   30017   30020
   30023   30021   30022   30022   30021   30024   30023   30021   30024
   30027   30025   30026   30026   30025   30028   30027   30025   30028
   30031   30029   30030   30030   30029   30032   30031   30029   30032
   30035   30033   30034   30034   30033   30036   30035   30033   30036
   30039   30037   30038   30038   30037   30040   30039   30037   30040
   30043   30041   30042   30042   30041   30044   30043   30041   30044
   30047   30045   30046   30046   30045   30048   30047   30045   30048
   30051   30049   30050   30050   30049   30052   30051   30049   30052
   30055   30053   30054   30054   30053   30056   30055   30053   30056
   30059   30057   30058   30058   30057   30060   30059   30057   30060
   30063   30061   30062   30062   30061   30064   30063   30061   30064
   30067   30065   30066   30066   30065   30068   30067   30065   30068
   30071   30069   30070   30070   30069   30072   30071   30069   30072
   30075   30073   30074   30074   30073   30076   30075   30073   30076
   30079   30077   30078   30078   30077   30080   30079   30077   30080
   30083   30081   30082   30082   30081   30084   30083   30081   30084
   30087   30085   30086   30086   30085   30088   30087   30085   30088
   30091   30089   30090   30090   30089   30092   30091   30089   30092
   30095   30093   30094   30094   30093   30096   30095   30093   30096
   30099   30097   30098   30098   30097   30100   30099   30097   30100
   30103   30101   30102   30102   30101   30104   30103   30101   30104
   30107   30105   30106   30106   30105   30108   30107   30105   30108
   30111   30109   30110   30110   30109   30112   30111   30109   30112
   30115   30113   30114   30114   30113   30116   30115   30113   30116
   30119   30117   30118   30118   30117   30120   30119   30117   30120
   30123   30121   30122   30122   30121   30124   30123   30121   30124
   30127   30125   30126   30126   30125   30128   30127   30125   30128
   30131   30129   30130   30130   30129   30132   30131   30129   30132
   30135   30133   30134   30134   30133   30136   30135   30133   30136
   30139   30137   30138   30138   30137   30140   30139   30137   30140
   30143   30141   30142   30142   30141   30144   30143   30141   30144
   30147   30145   30146   30146   30145   30148   30147   30145   30148
   30151   30149   30150   30150   30149   30152   30151   30149   30152
   30155   30153   30154   30154   30153   30156   30155   30153   30156
   30159   30157   30158   30158   30157   30160   30159   30157   30160
   30163   30161   30162   30162   30161   30164   30163   30161   30164
   30167   30165   30166   30166   30165   30168   30167   30165   30168
   30171   30169   30170   30170   30169   30172   30171   30169   30172
   30175   30173   30174   30174   30173   30176   30175   30173   30176
   30179   30177   30178   30178   30177   30180   30179   30177   30180
   30183   30181   30182   30182   30181   30184   30183   30181   30184
   30187   30185   30186   30186   30185   30188   30187   30185   30188
   30191   30189   30190   30190   30189   30192   30191   30189   30192
   30195   30193   30194   30194   30193   30196   30195   30193   30196
   30199   30197   30198   30198   30197   30200   30199   30197   30200
   30203   30201   30202   30202   30201   30204   30203   30201   30204
   30207   30205   30206   30206   30205   30208   30207   30205   30208
   30211   30209   30210   30210   30209   30212   30211   30209   30212
   30215   30213   30214   30214   30213   30216   30215   30213   30216
   30219   30217   30218   30218   30217   30220   30219   30217   30220
   30223   30221   30222   30222   30221   30224   30223   30221   30224
   30227   30225   30226   30226   30225   30228   30227   30225   30228
   30231   30229   30230   30230   30229   30232   30231   30229   30232
   30235   30233   30234   30234   30233   30236   30235   30233   30236
   30239   30237   30238   30238   30237   30240   30239   30237   30240
   30243   30241   30242   30242   30241   30244   30243   30241   30244
   30247   30245   30246   30246   30245   30248   30247   30245   30248
   30251   30249   30250   30250   30249   30252   30251   30249   30252
   30255   30253   30254   30254   30253   30256   30255   30253   30256
   30259   30257   30258   30258   30257   30260   30259   30257   30260
   30263   30261   30262   30262   30261   30264   30263   30261   30264
   30267   30265   30266   30266   30265   30268   30267   30265   30268
   30271   30269   30270   30270   30269   30272   30271   30269   30272
   30275   30273   30274   30274   30273   30276   30275   30273   30276
   30279   30277   30278   30278   30277   30280   30279   30277   30280
   30283   30281   30282   30282   30281   30284   30283   30281   30284
   30287   30285   30286   30286   30285   30288   30287   30285   30288
   30291   30289   30290   30290   30289   30292   30291   30289   30292
   30295   30293   30294   30294   30293   30296   30295   30293   30296
   30299   30297   30298   30298   30297   30300   30299   30297   30300
   30303   30301   30302   30302   30301   30304   30303   30301   30304
   30307   30305   30306   30306   30305   30308   30307   30305   30308
   30311   30309   30310   30310   30309   30312   30311   30309   30312
   30315   30313   30314   30314   30313   30316   30315   30313   30316
   30319   30317   30318   30318   30317   30320   30319   30317   30320
   30323   30321   30322   30322   30321   30324   30323   30321   30324
   30327   30325   30326   30326   30325   30328   30327   30325   30328
   30331   30329   30330   30330   30329   30332   30331   30329   30332
   30335   30333   30334   30334   30333   30336   30335   30333   30336
   30339   30337   30338   30338   30337   30340   30339   30337   30340
   30343   30341   30342   30342   30341   30344   30343   30341   30344
   30347   30345   30346   30346   30345   30348   30347   30345   30348
   30351   30349   30350   30350   30349   30352   30351   30349   30352
   30355   30353   30354   30354   30353   30356   30355   30353   30356
   30359   30357   30358   30358   30357   30360   30359   30357   30360
   30363   30361   30362   30362   30361   30364   30363   30361   30364
   30367   30365   30366   30366   30365   30368   30367   30365   30368
   30371   30369   30370   30370   30369   30372   30371   30369   30372
   30375   30373   30374   30374   30373   30376   30375   30373   30376
   30379   30377   30378   30378   30377   30380   30379   30377   30380
   30383   30381   30382   30382   30381   30384   30383   30381   30384
   30387   30385   30386   30386   30385   30388   30387   30385   30388
   30391   30389   30390   30390   30389   30392   30391   30389   30392
   30395   30393   30394   30394   30393   30396   30395   30393   30396
   30399   30397   30398   30398   30397   30400   30399   30397   30400
   30403   30401   30402   30402   30401   30404   30403   30401   30404
   30407   30405   30406   30406   30405   30408   30407   30405   30408
   30411   30409   30410   30410   30409   30412   30411   30409   30412
   30415   30413   30414   30414   30413   30416   30415   30413   30416
   30419   30417   30418   30418   30417   30420   30419   30417   30420
   30423   30421   30422   30422   30421   30424   30423   30421   30424
   30427   30425   30426   30426   30425   30428   30427   30425   30428
   30431   30429   30430   30430   30429   30432   30431   30429   30432
   30435   30433   30434   30434   30433   30436   30435   30433   30436
   30439   30437   30438   30438   30437   30440   30439   30437   30440
   30443   30441   30442   30442   30441   30444   30443   30441   30444
   30447   30445   30446   30446   30445   30448   30447   30445   30448
   30451   30449   30450   30450   30449   30452   30451   30449   30452
   30455   30453   30454   30454   30453   30456   30455   30453   30456
   30459   30457   30458   30458   30457   30460   30459   30457   30460
   30463   30461   30462   30462   30461   30464   30463   30461   30464
   30467   30465   30466   30466   30465   30468   30467   30465   30468
   30471   30469   30470   30470   30469   30472   30471   30469   30472
   30475   30473   30474   30474   30473   30476   30475   30473   30476
   30479   30477   30478   30478   30477   30480   30479   30477   30480
   30483   30481   30482   30482   30481   30484   30483   30481   30484
   30487   30485   30486   30486   30485   30488   30487   30485   30488
   30491   30489   30490   30490   30489   30492   30491   30489   30492
   30495   30493   30494   30494   30493   30496   30495   30493   30496
   30499   30497   30498   30498   30497   30500   30499   30497   30500
   30503   30501   30502   30502   30501   30504   30503   30501   30504
   30507   30505   30506   30506   30505   30508   30507   30505   30508
   30511   30509   30510   30510   30509   30512   30511   30509   30512
   30515   30513   30514   30514   30513   30516   30515   30513   30516
   30519   30517   30518   30518   30517   30520   30519   30517   30520
   30523   30521   30522   30522   30521   30524   30523   30521   30524
   30527   30525   30526   30526   30525   30528   30527   30525   30528
   30531   30529   30530   30530   30529   30532   30531   30529   30532
   30535   30533   30534   30534   30533   30536   30535   30533   30536
   30539   30537   30538   30538   30537   30540   30539   30537   30540
   30543   30541   30542   30542   30541   30544   30543   30541   30544
   30547   30545   30546   30546   30545   30548   30547   30545   30548
   30551   30549   30550   30550   30549   30552   30551   30549   30552
   30555   30553   30554   30554   30553   30556   30555   30553   30556
   30559   30557   30558   30558   30557   30560   30559   30557   30560
   30563   30561   30562   30562   30561   30564   30563   30561   30564
   30567   30565   30566   30566   30565   30568   30567   30565   30568
   30571   30569   30570   30570   30569   30572   30571   30569   30572
   30575   30573   30574   30574   30573   30576   30575   30573   30576
   30579   30577   30578   30578   30577   30580   30579   30577   30580
   30583   30581   30582   30582   30581   30584   30583   30581   30584
   30587   30585   30586   30586   30585   30588   30587   30585   30588
   30591   30589   30590   30590   30589   30592   30591   30589   30592
   30595   30593   30594   30594   30593   30596   30595   30593   30596
   30599   30597   30598   30598   30597   30600   30599   30597   30600
   30603   30601   30602   30602   30601   30604   30603   30601   30604
   30607   30605   30606   30606   30605   30608   30607   30605   30608
   30611   30609   30610   30610   30609   30612   30611   30609   30612
   30615   30613   30614   30614   30613   30616   30615   30613   30616
   30619   30617   30618   30618   30617   30620   30619   30617   30620
   30623   30621   30622   30622   30621   30624   30623   30621   30624
   30627   30625   30626   30626   30625   30628   30627   30625   30628
   30631   30629   30630   30630   30629   30632   30631   30629   30632
   30635   30633   30634   30634   30633   30636   30635   30633   30636
   30639   30637   30638   30638   30637   30640   30639   30637   30640
   30643   30641   30642   30642   30641   30644   30643   30641   30644
   30647   30645   30646   30646   30645   30648   30647   30645   30648
   30651   30649   30650   30650   30649   30652   30651   30649   30652
   30655   30653   30654   30654   30653   30656   30655   30653   30656
   30659   30657   30658   30658   30657   30660   30659   30657   30660
   30663   30661   30662   30662   30661   30664   30663   30661   30664
   30667   30665   30666   30666   30665   30668   30667   30665   30668
   30671   30669   30670   30670   30669   30672   30671   30669   30672
   30675   30673   30674   30674   30673   30676   30675   30673   30676
   30679   30677   30678   30678   30677   30680   30679   30677   30680
   30683   30681   30682   30682   30681   30684   30683   30681   30684
   30687   30685   30686   30686   30685   30688   30687   30685   30688
   30691   30689   30690   30690   30689   30692   30691   30689   30692
   30695   30693   30694   30694   30693   30696   30695   30693   30696
   30699   30697   30698   30698   30697   30700   30699   30697   30700
   30703   30701   30702   30702   30701   30704   30703   30701   30704
   30707   30705   30706   30706   30705   30708   30707   30705   30708
   30711   30709   30710   30710   30709   30712   30711   30709   30712
   30715   30713   30714   30714   30713   30716   30715   30713   30716
   30719   30717   30718   30718   30717   30720   30719   30717   30720
   30723   30721   30722   30722   30721   30724   30723   30721   30724
   30727   30725   30726   30726   30725   30728   30727   30725   30728
   30731   30729   30730   30730   30729   30732   30731   30729   30732
   30735   30733   30734   30734   30733   30736   30735   30733   30736
   30739   30737   30738   30738   30737   30740   30739   30737   30740
   30743   30741   30742   30742   30741   30744   30743   30741   30744
   30747   30745   30746   30746   30745   30748   30747   30745   30748
   30751   30749   30750   30750   30749   30752   30751   30749   30752
   30755   30753   30754   30754   30753   30756   30755   30753   30756
   30759   30757   30758   30758   30757   30760   30759   30757   30760
   30763   30761   30762   30762   30761   30764   30763   30761   30764
   30767   30765   30766   30766   30765   30768   30767   30765   30768
   30771   30769   30770   30770   30769   30772   30771   30769   30772
   30775   30773   30774   30774   30773   30776   30775   30773   30776
   30779   30777   30778   30778   30777   30780   30779   30777   30780
   30783   30781   30782   30782   30781   30784   30783   30781   30784
   30787   30785   30786   30786   30785   30788   30787   30785   30788
   30791   30789   30790   30790   30789   30792   30791   30789   30792
   30795   30793   30794   30794   30793   30796   30795   30793   30796
   30799   30797   30798   30798   30797   30800   30799   30797   30800
   30803   30801   30802   30802   30801   30804   30803   30801   30804
   30807   30805   30806   30806   30805   30808   30807   30805   30808
   30811   30809   30810   30810   30809   30812   30811   30809   30812
   30815   30813   30814   30814   30813   30816   30815   30813   30816
   30819   30817   30818   30818   30817   30820   30819   30817   30820
   30823   30821   30822   30822   30821   30824   30823   30821   30824
   30827   30825   30826   30826   30825   30828   30827   30825   30828
   30831   30829   30830   30830   30829   30832   30831   30829   30832
   30835   30833   30834   30834   30833   30836   30835   30833   30836
   30839   30837   30838   30838   30837   30840   30839   30837   30840
   30843   30841   30842   30842   30841   30844   30843   30841   30844
   30847   30845   30846   30846   30845   30848   30847   30845   30848
   30851   30849   30850   30850   30849   30852   30851   30849   30852
   30855   30853   30854   30854   30853   30856   30855   30853   30856
   30859   30857   30858   30858   30857   30860   30859   30857   30860
   30863   30861   30862   30862   30861   30864   30863   30861   30864
   30867   30865   30866   30866   30865   30868   30867   30865   30868
   30871   30869   30870   30870   30869   30872   30871   30869   30872
   30875   30873   30874   30874   30873   30876   30875   30873   30876
   30879   30877   30878   30878   30877   30880   30879   30877   30880
   30883   30881   30882   30882   30881   30884   30883   30881   30884
   30887   30885   30886   30886   30885   30888   30887   30885   30888
   30891   30889   30890   30890   30889   30892   30891   30889   30892
   30895   30893   30894   30894   30893   30896   30895   30893   30896
   30899   30897   30898   30898   30897   30900   30899   30897   30900
   30903   30901   30902   30902   30901   30904   30903   30901   30904
   30907   30905   30906   30906   30905   30908   30907   30905   30908
   30911   30909   30910   30910   30909   30912   30911   30909   30912
   30915   30913   30914   30914   30913   30916   30915   30913   30916
   30919   30917   30918   30918   30917   30920   30919   30917   30920
   30923   30921   30922   30922   30921   30924   30923   30921   30924
   30927   30925   30926   30926   30925   30928   30927   30925   30928
   30931   30929   30930   30930   30929   30932   30931   30929   30932
   30935   30933   30934   30934   30933   30936   30935   30933   30936
   30939   30937   30938   30938   30937   30940   30939   30937   30940
   30943   30941   30942   30942   30941   30944   30943   30941   30944
   30947   30945   30946   30946   30945   30948   30947   30945   30948
   30951   30949   30950   30950   30949   30952   30951   30949   30952
   30955   30953   30954   30954   30953   30956   30955   30953   30956
   30959   30957   30958   30958   30957   30960   30959   30957   30960
   30963   30961   30962   30962   30961   30964   30963   30961   30964
   30967   30965   30966   30966   30965   30968   30967   30965   30968
   30971   30969   30970   30970   30969   30972   30971   30969   30972
   30975   30973   30974   30974   30973   30976   30975   30973   30976
   30979   30977   30978   30978   30977   30980   30979   30977   30980
   30983   30981   30982   30982   30981   30984   30983   30981   30984
   30987   30985   30986   30986   30985   30988   30987   30985   30988
   30991   30989   30990   30990   30989   30992   30991   30989   30992
   30995   30993   30994   30994   30993   30996   30995   30993   30996
   30999   30997   30998   30998   30997   31000   30999   30997   31000
   31003   31001   31002   31002   31001   31004   31003   31001   31004
   31007   31005   31006   31006   31005   31008   31007   31005   31008
   31011   31009   31010   31010   31009   31012   31011   31009   31012
   31015   31013   31014   31014   31013   31016   31015   31013   31016
   31019   31017   31018   31018   31017   31020   31019   31017   31020
   31023   31021   31022   31022   31021   31024   31023   31021   31024
   31027   31025   31026   31026   31025   31028   31027   31025   31028
   31031   31029   31030   31030   31029   31032   31031   31029   31032
   31035   31033   31034   31034   31033   31036   31035   31033   31036
   31039   31037   31038   31038   31037   31040   31039   31037   31040
   31043   31041   31042   31042   31041   31044   31043   31041   31044
   31047   31045   31046   31046   31045   31048   31047   31045   31048
   31051   31049   31050   31050   31049   31052   31051   31049   31052
   31055   31053   31054   31054   31053   31056   31055   31053   31056
   31059   31057   31058   31058   31057   31060   31059   31057   31060
   31063   31061   31062   31062   31061   31064   31063   31061   31064
   31067   31065   31066   31066   31065   31068   31067   31065   31068
   31071   31069   31070   31070   31069   31072   31071   31069   31072
   31075   31073   31074   31074   31073   31076   31075   31073   31076
   31079   31077   31078   31078   31077   31080   31079   31077   31080
   31083   31081   31082   31082   31081   31084   31083   31081   31084
   31087   31085   31086   31086   31085   31088   31087   31085   31088
   31091   31089   31090   31090   31089   31092   31091   31089   31092
   31095   31093   31094   31094   31093   31096   31095   31093   31096
   31099   31097   31098   31098   31097   31100   31099   31097   31100
   31103   31101   31102   31102   31101   31104   31103   31101   31104
   31107   31105   31106   31106   31105   31108   31107   31105   31108
   31111   31109   31110   31110   31109   31112   31111   31109   31112
   31115   31113   31114   31114   31113   31116   31115   31113   31116
   31119   31117   31118   31118   31117   31120   31119   31117   31120
   31123   31121   31122   31122   31121   31124   31123   31121   31124
   31127   31125   31126   31126   31125   31128   31127   31125   31128
   31131   31129   31130   31130   31129   31132   31131   31129   31132
   31135   31133   31134   31134   31133   31136   31135   31133   31136
   31139   31137   31138   31138   31137   31140   31139   31137   31140
   31143   31141   31142   31142   31141   31144   31143   31141   31144
   31147   31145   31146   31146   31145   31148   31147   31145   31148
   31151   31149   31150   31150   31149   31152   31151   31149   31152
   31155   31153   31154   31154   31153   31156   31155   31153   31156
   31159   31157   31158   31158   31157   31160   31159   31157   31160
   31163   31161   31162   31162   31161   31164   31163   31161   31164
   31167   31165   31166   31166   31165   31168   31167   31165   31168
   31171   31169   31170   31170   31169   31172   31171   31169   31172
   31175   31173   31174   31174   31173   31176   31175   31173   31176
   31179   31177   31178   31178   31177   31180   31179   31177   31180
   31183   31181   31182   31182   31181   31184   31183   31181   31184
   31187   31185   31186   31186   31185   31188   31187   31185   31188
   31191   31189   31190   31190   31189   31192   31191   31189   31192
   31195   31193   31194   31194   31193   31196   31195   31193   31196
   31199   31197   31198   31198   31197   31200   31199   31197   31200
   31203   31201   31202   31202   31201   31204   31203   31201   31204
   31207   31205   31206   31206   31205   31208   31207   31205   31208
   31211   31209   31210   31210   31209   31212   31211   31209   31212
   31215   31213   31214   31214   31213   31216   31215   31213   31216
   31219   31217   31218   31218   31217   31220   31219   31217   31220
   31223   31221   31222   31222   31221   31224   31223   31221   31224
   31227   31225   31226   31226   31225   31228   31227   31225   31228
   31231   31229   31230   31230   31229   31232   31231   31229   31232
   31235   31233   31234   31234   31233   31236   31235   31233   31236
   31239   31237   31238   31238   31237   31240   31239   31237   31240
   31243   31241   31242   31242   31241   31244   31243   31241   31244
   31247   31245   31246   31246   31245   31248   31247   31245   31248
   31251   31249   31250   31250   31249   31252   31251   31249   31252
   31255   31253   31254   31254   31253   31256   31255   31253   31256
   31259   31257   31258   31258   31257   31260   31259   31257   31260
   31263   31261   31262   31262   31261   31264   31263   31261   31264
   31267   31265   31266   31266   31265   31268   31267   31265   31268
   31271   31269   31270   31270   31269   31272   31271   31269   31272
   31275   31273   31274   31274   31273   31276   31275   31273   31276
   31279   31277   31278   31278   31277   31280   31279   31277   31280
   31283   31281   31282   31282   31281   31284   31283   31281   31284
   31287   31285   31286   31286   31285   31288   31287   31285   31288
   31291   31289   31290   31290   31289   31292   31291   31289   31292
   31295   31293   31294   31294   31293   31296   31295   31293   31296
   31299   31297   31298   31298   31297   31300   31299   31297   31300
   31303   31301   31302   31302   31301   31304   31303   31301   31304
   31307   31305   31306   31306   31305   31308   31307   31305   31308
   31311   31309   31310   31310   31309   31312   31311   31309   31312
   31315   31313   31314   31314   31313   31316   31315   31313   31316
   31319   31317   31318   31318   31317   31320   31319   31317   31320
   31323   31321   31322   31322   31321   31324   31323   31321   31324
   31327   31325   31326   31326   31325   31328   31327   31325   31328
   31331   31329   31330   31330   31329   31332   31331   31329   31332
   31335   31333   31334   31334   31333   31336   31335   31333   31336
   31339   31337   31338   31338   31337   31340   31339   31337   31340
   31343   31341   31342   31342   31341   31344   31343   31341   31344
   31347   31345   31346   31346   31345   31348   31347   31345   31348
   31351   31349   31350   31350   31349   31352   31351   31349   31352
   31355   31353   31354   31354   31353   31356   31355   31353   31356
   31359   31357   31358   31358   31357   31360   31359   31357   31360
   31363   31361   31362   31362   31361   31364   31363   31361   31364
   31367   31365   31366   31366   31365   31368   31367   31365   31368
   31371   31369   31370   31370   31369   31372   31371   31369   31372
   31375   31373   31374   31374   31373   31376   31375   31373   31376
   31379   31377   31378   31378   31377   31380   31379   31377   31380
   31383   31381   31382   31382   31381   31384   31383   31381   31384
   31387   31385   31386   31386   31385   31388   31387   31385   31388
   31391   31389   31390   31390   31389   31392   31391   31389   31392
   31395   31393   31394   31394   31393   31396   31395   31393   31396
   31399   31397   31398   31398   31397   31400   31399   31397   31400
   31403   31401   31402   31402   31401   31404   31403   31401   31404
   31407   31405   31406   31406   31405   31408   31407   31405   31408
   31411   31409   31410   31410   31409   31412   31411   31409   31412
   31415   31413   31414   31414   31413   31416   31415   31413   31416
   31419   31417   31418   31418   31417   31420   31419   31417   31420
   31423   31421   31422   31422   31421   31424   31423   31421   31424
   31427   31425   31426   31426   31425   31428   31427   31425   31428
   31431   31429   31430   31430   31429   31432   31431   31429   31432
   31435   31433   31434   31434   31433   31436   31435   31433   31436
   31439   31437   31438   31438   31437   31440   31439   31437   31440
   31443   31441   31442   31442   31441   31444   31443   31441   31444
   31447   31445   31446   31446   31445   31448   31447   31445   31448
   31451   31449   31450   31450   31449   31452   31451   31449   31452
   31455   31453   31454   31454   31453   31456   31455   31453   31456
   31459   31457   31458   31458   31457   31460   31459   31457   31460
   31463   31461   31462   31462   31461   31464   31463   31461   31464
   31467   31465   31466   31466   31465   31468   31467   31465   31468
   31471   31469   31470   31470   31469   31472   31471   31469   31472
   31475   31473   31474   31474   31473   31476   31475   31473   31476
   31479   31477   31478   31478   31477   31480   31479   31477   31480
   31483   31481   31482   31482   31481   31484   31483   31481   31484
   31487   31485   31486   31486   31485   31488   31487   31485   31488
   31491   31489   31490   31490   31489   31492   31491   31489   31492
   31495   31493   31494   31494   31493   31496   31495   31493   31496
   31499   31497   31498   31498   31497   31500   31499   31497   31500
   31503   31501   31502   31502   31501   31504   31503   31501   31504
   31507   31505   31506   31506   31505   31508   31507   31505   31508
   31511   31509   31510   31510   31509   31512   31511   31509   31512
   31515   31513   31514   31514   31513   31516   31515   31513   31516
   31519   31517   31518   31518   31517   31520   31519   31517   31520
   31523   31521   31522   31522   31521   31524   31523   31521   31524
   31527   31525   31526   31526   31525   31528   31527   31525   31528
   31531   31529   31530   31530   31529   31532   31531   31529   31532
   31535   31533   31534   31534   31533   31536   31535   31533   31536
   31539   31537   31538   31538   31537   31540   31539   31537   31540
   31543   31541   31542   31542   31541   31544   31543   31541   31544
   31547   31545   31546   31546   31545   31548   31547   31545   31548
   31551   31549   31550   31550   31549   31552   31551   31549   31552
   31555   31553   31554   31554   31553   31556   31555   31553   31556
   31559   31557   31558   31558   31557   31560   31559   31557   31560
   31563   31561   31562   31562   31561   31564   31563   31561   31564
   31567   31565   31566   31566   31565   31568   31567   31565   31568
   31571   31569   31570   31570   31569   31572   31571   31569   31572
   31575   31573   31574   31574   31573   31576   31575   31573   31576
   31579   31577   31578   31578   31577   31580   31579   31577   31580
   31583   31581   31582   31582   31581   31584   31583   31581   31584
   31587   31585   31586   31586   31585   31588   31587   31585   31588
   31591   31589   31590   31590   31589   31592   31591   31589   31592
   31595   31593   31594   31594   31593   31596   31595   31593   31596
   31599   31597   31598   31598   31597   31600   31599   31597   31600
   31603   31601   31602   31602   31601   31604   31603   31601   31604
   31607   31605   31606   31606   31605   31608   31607   31605   31608
   31611   31609   31610   31610   31609   31612   31611   31609   31612
   31615   31613   31614   31614   31613   31616   31615   31613   31616
   31619   31617   31618   31618   31617   31620   31619   31617   31620
   31623   31621   31622   31622   31621   31624   31623   31621   31624
   31627   31625   31626   31626   31625   31628   31627   31625   31628
   31631   31629   31630   31630   31629   31632   31631   31629   31632
   31635   31633   31634   31634   31633   31636   31635   31633   31636
   31639   31637   31638   31638   31637   31640   31639   31637   31640
   31643   31641   31642   31642   31641   31644   31643   31641   31644
   31647   31645   31646   31646   31645   31648   31647   31645   31648
   31651   31649   31650   31650   31649   31652   31651   31649   31652
   31655   31653   31654   31654   31653   31656   31655   31653   31656
   31659   31657   31658   31658   31657   31660   31659   31657   31660
   31663   31661   31662   31662   31661   31664   31663   31661   31664
   31667   31665   31666   31666   31665   31668   31667   31665   31668
   31671   31669   31670   31670   31669   31672   31671   31669   31672
   31675   31673   31674   31674   31673   31676   31675   31673   31676
   31679   31677   31678   31678   31677   31680   31679   31677   31680
   31683   31681   31682   31682   31681   31684   31683   31681   31684
   31687   31685   31686   31686   31685   31688   31687   31685   31688
   31691   31689   31690   31690   31689   31692   31691   31689   31692
   31695   31693   31694   31694   31693   31696   31695   31693   31696
   31699   31697   31698   31698   31697   31700   31699   31697   31700
   31703   31701   31702   31702   31701   31704   31703   31701   31704
   31707   31705   31706   31706   31705   31708   31707   31705   31708
   31711   31709   31710   31710   31709   31712   31711   31709   31712
   31715   31713   31714   31714   31713   31716   31715   31713   31716
   31719   31717   31718   31718   31717   31720   31719   31717   31720
   31723   31721   31722   31722   31721   31724   31723   31721   31724
   31727   31725   31726   31726   31725   31728   31727   31725   31728
   31731   31729   31730   31730   31729   31732   31731   31729   31732
   31735   31733   31734   31734   31733   31736   31735   31733   31736
   31739   31737   31738   31738   31737   31740   31739   31737   31740
   31743   31741   31742   31742   31741   31744   31743   31741   31744
   31747   31745   31746   31746   31745   31748   31747   31745   31748
   31751   31749   31750   31750   31749   31752   31751   31749   31752
   31755   31753   31754   31754   31753   31756   31755   31753   31756
   31759   31757   31758   31758   31757   31760   31759   31757   31760
   31763   31761   31762   31762   31761   31764   31763   31761   31764
   31767   31765   31766   31766   31765   31768   31767   31765   31768
   31771   31769   31770   31770   31769   31772   31771   31769   31772
   31775   31773   31774   31774   31773   31776   31775   31773   31776
   31779   31777   31778   31778   31777   31780   31779   31777   31780
   31783   31781   31782   31782   31781   31784   31783   31781   31784
   31787   31785   31786   31786   31785   31788   31787   31785   31788
   31791   31789   31790   31790   31789   31792   31791   31789   31792
   31795   31793   31794   31794   31793   31796   31795   31793   31796
   31799   31797   31798   31798   31797   31800   31799   31797   31800
   31803   31801   31802   31802   31801   31804   31803   31801   31804
   31807   31805   31806   31806   31805   31808   31807   31805   31808
   31811   31809   31810   31810   31809   31812   31811   31809   31812
   31815   31813   31814   31814   31813   31816   31815   31813   31816
   31819   31817   31818   31818   31817   31820   31819   31817   31820
   31823   31821   31822   31822   31821   31824   31823   31821   31824
   31827   31825   31826   31826   31825   31828   31827   31825   31828
   31831   31829   31830   31830   31829   31832   31831   31829   31832
   31835   31833   31834   31834   31833   31836   31835   31833   31836
   31839   31837   31838   31838   31837   31840   31839   31837   31840
   31843   31841   31842   31842   31841   31844   31843   31841   31844
   31847   31845   31846   31846   31845   31848   31847   31845   31848
   31851   31849   31850   31850   31849   31852   31851   31849   31852
   31855   31853   31854   31854   31853   31856   31855   31853   31856
   31859   31857   31858   31858   31857   31860   31859   31857   31860
   31863   31861   31862   31862   31861   31864   31863   31861   31864
   31867   31865   31866   31866   31865   31868   31867   31865   31868
   31871   31869   31870   31870   31869   31872   31871   31869   31872
   31875   31873   31874   31874   31873   31876   31875   31873   31876
   31879   31877   31878   31878   31877   31880   31879   31877   31880
   31883   31881   31882   31882   31881   31884   31883   31881   31884
   31887   31885   31886   31886   31885   31888   31887   31885   31888
   31891   31889   31890   31890   31889   31892   31891   31889   31892
   31895   31893   31894   31894   31893   31896   31895   31893   31896
   31899   31897   31898   31898   31897   31900   31899   31897   31900
   31903   31901   31902   31902   31901   31904   31903   31901   31904
   31907   31905   31906   31906   31905   31908   31907   31905   31908
   31911   31909   31910   31910   31909   31912   31911   31909   31912
   31915   31913   31914   31914   31913   31916   31915   31913   31916
   31919   31917   31918   31918   31917   31920   31919   31917   31920
   31923   31921   31922   31922   31921   31924   31923   31921   31924
   31927   31925   31926   31926   31925   31928   31927   31925   31928
   31931   31929   31930   31930   31929   31932   31931   31929   31932
   31935   31933   31934   31934   31933   31936   31935   31933   31936
   31939   31937   31938   31938   31937   31940   31939   31937   31940
   31943   31941   31942   31942   31941   31944   31943   31941   31944
   31947   31945   31946   31946   31945   31948   31947   31945   31948
   31951   31949   31950   31950   31949   31952   31951   31949   31952
   31955   31953   31954   31954   31953   31956   31955   31953   31956
   31959   31957   31958   31958   31957   31960   31959   31957   31960
   31963   31961   31962   31962   31961   31964   31963   31961   31964
   31967   31965   31966   31966   31965   31968   31967   31965   31968
   31971   31969   31970   31970   31969   31972   31971   31969   31972
   31975   31973   31974   31974   31973   31976   31975   31973   31976
   31979   31977   31978   31978   31977   31980   31979   31977   31980
   31983   31981   31982   31982   31981   31984   31983   31981   31984
   31987   31985   31986   31986   31985   31988   31987   31985   31988
   31991   31989   31990   31990   31989   31992   31991   31989   31992
   31995   31993   31994   31994   31993   31996   31995   31993   31996
   31999   31997   31998   31998   31997   32000   31999   31997   32000
   32003   32001   32002   32002   32001   32004   32003   32001   32004
   32007   32005   32006   32006   32005   32008   32007   32005   32008
   32011   32009   32010   32010   32009   32012   32011   32009   32012
   32015   32013   32014   32014   32013   32016   32015   32013   32016
   32019   32017   32018   32018   32017   32020   32019   32017   32020
   32023   32021   32022   32022   32021   32024   32023   32021   32024
   32027   32025   32026   32026   32025   32028   32027   32025   32028
   32031   32029   32030   32030   32029   32032   32031   32029   32032
   32035   32033   32034   32034   32033   32036   32035   32033   32036
   32039   32037   32038   32038   32037   32040   32039   32037   32040
   32043   32041   32042   32042   32041   32044   32043   32041   32044
   32047   32045   32046   32046   32045   32048   32047   32045   32048
   32051   32049   32050   32050   32049   32052   32051   32049   32052
   32055   32053   32054   32054   32053   32056   32055   32053   32056
   32059   32057   32058   32058   32057   32060   32059   32057   32060
   32063   32061   32062   32062   32061   32064   32063   32061   32064
   32067   32065   32066   32066   32065   32068   32067   32065   32068
   32071   32069   32070   32070   32069   32072   32071   32069   32072
   32075   32073   32074   32074   32073   32076   32075   32073   32076
   32079   32077   32078   32078   32077   32080   32079   32077   32080
   32083   32081   32082   32082   32081   32084   32083   32081   32084
   32087   32085   32086   32086   32085   32088   32087   32085   32088
   32091   32089   32090   32090   32089   32092   32091   32089   32092
   32095   32093   32094   32094   32093   32096   32095   32093   32096
   32099   32097   32098   32098   32097   32100   32099   32097   32100
   32103   32101   32102   32102   32101   32104   32103   32101   32104
   32107   32105   32106   32106   32105   32108   32107   32105   32108
   32111   32109   32110   32110   32109   32112   32111   32109   32112
   32115   32113   32114   32114   32113   32116   32115   32113   32116
   32119   32117   32118   32118   32117   32120   32119   32117   32120
   32123   32121   32122   32122   32121   32124   32123   32121   32124
   32127   32125   32126   32126   32125   32128   32127   32125   32128
   32131   32129   32130   32130   32129   32132   32131   32129   32132
   32135   32133   32134   32134   32133   32136   32135   32133   32136
   32139   32137   32138   32138   32137   32140   32139   32137   32140
   32143   32141   32142   32142   32141   32144   32143   32141   32144
   32147   32145   32146   32146   32145   32148   32147   32145   32148
   32151   32149   32150   32150   32149   32152   32151   32149   32152
   32155   32153   32154   32154   32153   32156   32155   32153   32156
   32159   32157   32158   32158   32157   32160   32159   32157   32160
   32163   32161   32162   32162   32161   32164   32163   32161   32164
   32167   32165   32166   32166   32165   32168   32167   32165   32168
   32171   32169   32170   32170   32169   32172   32171   32169   32172
   32175   32173   32174   32174   32173   32176   32175   32173   32176
   32179   32177   32178   32178   32177   32180   32179   32177   32180
   32183   32181   32182   32182   32181   32184   32183   32181   32184
   32187   32185   32186   32186   32185   32188   32187   32185   32188
   32191   32189   32190   32190   32189   32192   32191   32189   32192
   32195   32193   32194   32194   32193   32196   32195   32193   32196
   32199   32197   32198   32198   32197   32200   32199   32197   32200
   32203   32201   32202   32202   32201   32204   32203   32201   32204
   32207   32205   32206   32206   32205   32208   32207   32205   32208
   32211   32209   32210   32210   32209   32212   32211   32209   32212
   32215   32213   32214   32214   32213   32216   32215   32213   32216
   32219   32217   32218   32218   32217   32220   32219   32217   32220
   32223   32221   32222   32222   32221   32224   32223   32221   32224
   32227   32225   32226   32226   32225   32228   32227   32225   32228
   32231   32229   32230   32230   32229   32232   32231   32229   32232
   32235   32233   32234   32234   32233   32236   32235   32233   32236
   32239   32237   32238   32238   32237   32240   32239   32237   32240
   32243   32241   32242   32242   32241   32244   32243   32241   32244
   32247   32245   32246   32246   32245   32248   32247   32245   32248
   32251   32249   32250   32250   32249   32252   32251   32249   32252
   32255   32253   32254   32254   32253   32256   32255   32253   32256
   32259   32257   32258   32258   32257   32260   32259   32257   32260
   32263   32261   32262   32262   32261   32264   32263   32261   32264
   32267   32265   32266   32266   32265   32268   32267   32265   32268
   32271   32269   32270   32270   32269   32272   32271   32269   32272
   32275   32273   32274   32274   32273   32276   32275   32273   32276
   32279   32277   32278   32278   32277   32280   32279   32277   32280
   32283   32281   32282   32282   32281   32284   32283   32281   32284
   32287   32285   32286   32286   32285   32288   32287   32285   32288
   32291   32289   32290   32290   32289   32292   32291   32289   32292
   32295   32293   32294   32294   32293   32296   32295   32293   32296
   32299   32297   32298   32298   32297   32300   32299   32297   32300
   32303   32301   32302   32302   32301   32304   32303   32301   32304
   32307   32305   32306   32306   32305   32308   32307   32305   32308
   32311   32309   32310   32310   32309   32312   32311   32309   32312
   32315   32313   32314   32314   32313   32316   32315   32313   32316
   32319   32317   32318   32318   32317   32320   32319   32317   32320
   32323   32321   32322   32322   32321   32324   32323   32321   32324
   32327   32325   32326   32326   32325   32328   32327   32325   32328
   32331   32329   32330   32330   32329   32332   32331   32329   32332
   32335   32333   32334   32334   32333   32336   32335   32333   32336
   32339   32337   32338   32338   32337   32340   32339   32337   32340
   32343   32341   32342   32342   32341   32344   32343   32341   32344
   32347   32345   32346   32346   32345   32348   32347   32345   32348
   32351   32349   32350   32350   32349   32352   32351   32349   32352
   32355   32353   32354   32354   32353   32356   32355   32353   32356
   32359   32357   32358   32358   32357   32360   32359   32357   32360
   32363   32361   32362   32362   32361   32364   32363   32361   32364
   32367   32365   32366   32366   32365   32368   32367   32365   32368
   32371   32369   32370   32370   32369   32372   32371   32369   32372
   32375   32373   32374   32374   32373   32376   32375   32373   32376
   32379   32377   32378   32378   32377   32380   32379   32377   32380
   32383   32381   32382   32382   32381   32384   32383   32381   32384
   32387   32385   32386   32386   32385   32388   32387   32385   32388
   32391   32389   32390   32390   32389   32392   32391   32389   32392
   32395   32393   32394   32394   32393   32396   32395   32393   32396
   32399   32397   32398   32398   32397   32400   32399   32397   32400
   32403   32401   32402   32402   32401   32404   32403   32401   32404
   32407   32405   32406   32406   32405   32408   32407   32405   32408
   32411   32409   32410   32410   32409   32412   32411   32409   32412
   32415   32413   32414   32414   32413   32416   32415   32413   32416
   32419   32417   32418   32418   32417   32420   32419   32417   32420
   32423   32421   32422   32422   32421   32424   32423   32421   32424
   32427   32425   32426   32426   32425   32428   32427   32425   32428
   32431   32429   32430   32430   32429   32432   32431   32429   32432
   32435   32433   32434   32434   32433   32436   32435   32433   32436
   32439   32437   32438   32438   32437   32440   32439   32437   32440
   32443   32441   32442   32442   32441   32444   32443   32441   32444
   32447   32445   32446   32446   32445   32448   32447   32445   32448
   32451   32449   32450   32450   32449   32452   32451   32449   32452
   32455   32453   32454   32454   32453   32456   32455   32453   32456
   32459   32457   32458   32458   32457   32460   32459   32457   32460
   32463   32461   32462   32462   32461   32464   32463   32461   32464
   32467   32465   32466   32466   32465   32468   32467   32465   32468
   32471   32469   32470   32470   32469   32472   32471   32469   32472
   32475   32473   32474   32474   32473   32476   32475   32473   32476
   32479   32477   32478   32478   32477   32480   32479   32477   32480
   32483   32481   32482   32482   32481   32484   32483   32481   32484
   32487   32485   32486   32486   32485   32488   32487   32485   32488
   32491   32489   32490   32490   32489   32492   32491   32489   32492
   32495   32493   32494   32494   32493   32496   32495   32493   32496
   32499   32497   32498   32498   32497   32500   32499   32497   32500
   32503   32501   32502   32502   32501   32504   32503   32501   32504
   32507   32505   32506   32506   32505   32508   32507   32505   32508
   32511   32509   32510   32510   32509   32512   32511   32509   32512
   32515   32513   32514   32514   32513   32516   32515   32513   32516
   32519   32517   32518   32518   32517   32520   32519   32517   32520
   32523   32521   32522   32522   32521   32524   32523   32521   32524
   32527   32525   32526   32526   32525   32528   32527   32525   32528
   32531   32529   32530   32530   32529   32532   32531   32529   32532
   32535   32533   32534   32534   32533   32536   32535   32533   32536
   32539   32537   32538   32538   32537   32540   32539   32537   32540
   32543   32541   32542   32542   32541   32544   32543   32541   32544
   32547   32545   32546   32546   32545   32548   32547   32545   32548
   32551   32549   32550   32550   32549   32552   32551   32549   32552
   32555   32553   32554   32554   32553   32556   32555   32553   32556
   32559   32557   32558   32558   32557   32560   32559   32557   32560
   32563   32561   32562   32562   32561   32564   32563   32561   32564
   32567   32565   32566   32566   32565   32568   32567   32565   32568
   32571   32569   32570   32570   32569   32572   32571   32569   32572
   32575   32573   32574   32574   32573   32576   32575   32573   32576
   32579   32577   32578   32578   32577   32580   32579   32577   32580
   32583   32581   32582   32582   32581   32584   32583   32581   32584
   32587   32585   32586   32586   32585   32588   32587   32585   32588
   32591   32589   32590   32590   32589   32592   32591   32589   32592
   32595   32593   32594   32594   32593   32596   32595   32593   32596
   32599   32597   32598   32598   32597   32600   32599   32597   32600
   32603   32601   32602   32602   32601   32604   32603   32601   32604
   32607   32605   32606   32606   32605   32608   32607   32605   32608
   32611   32609   32610   32610   32609   32612   32611   32609   32612
   32615   32613   32614   32614   32613   32616   32615   32613   32616
   32619   32617   32618   32618   32617   32620   32619   32617   32620
   32623   32621   32622   32622   32621   32624   32623   32621   32624
   32627   32625   32626   32626   32625   32628   32627   32625   32628
   32631   32629   32630   32630   32629   32632   32631   32629   32632
   32635   32633   32634   32634   32633   32636   32635   32633   32636
   32639   32637   32638   32638   32637   32640   32639   32637   32640
   32643   32641   32642   32642   32641   32644   32643   32641   32644
   32647   32645   32646   32646   32645   32648   32647   32645   32648
   32651   32649   32650   32650   32649   32652   32651   32649   32652
   32655   32653   32654   32654   32653   32656   32655   32653   32656
   32659   32657   32658   32658   32657   32660   32659   32657   32660
   32663   32661   32662   32662   32661   32664   32663   32661   32664
   32667   32665   32666   32666   32665   32668   32667   32665   32668
   32671   32669   32670   32670   32669   32672   32671   32669   32672
   32675   32673   32674   32674   32673   32676   32675   32673   32676
   32679   32677   32678   32678   32677   32680   32679   32677   32680
   32683   32681   32682   32682   32681   32684   32683   32681   32684
   32687   32685   32686   32686   32685   32688   32687   32685   32688
   32691   32689   32690   32690   32689   32692   32691   32689   32692
   32695   32693   32694   32694   32693   32696   32695   32693   32696
   32699   32697   32698   32698   32697   32700   32699   32697   32700
   32703   32701   32702   32702   32701   32704   32703   32701   32704
   32707   32705   32706   32706   32705   32708   32707   32705   32708
   32711   32709   32710   32710   32709   32712   32711   32709   32712
   32715   32713   32714   32714   32713   32716   32715   32713   32716
   32719   32717   32718   32718   32717   32720   32719   32717   32720
   32723   32721   32722   32722   32721   32724   32723   32721   32724
   32727   32725   32726   32726   32725   32728   32727   32725   32728
   32731   32729   32730   32730   32729   32732   32731   32729   32732
   32735   32733   32734   32734   32733   32736   32735   32733   32736
   32739   32737   32738   32738   32737   32740   32739   32737   32740
   32743   32741   32742   32742   32741   32744   32743   32741   32744
   32747   32745   32746   32746   32745   32748   32747   32745   32748
   32751   32749   32750   32750   32749   32752   32751   32749   32752
   32755   32753   32754   32754   32753   32756   32755   32753   32756
   32759   32757   32758   32758   32757   32760   32759   32757   32760
   32763   32761   32762   32762   32761   32764   32763   32761   32764
   32767   32765   32766   32766   32765   32768   32767   32765   32768
   32771   32769   32770   32770   32769   32772   32771   32769   32772
   32775   32773   32774   32774   32773   32776   32775   32773   32776
   32779   32777   32778   32778   32777   32780   32779   32777   32780
   32783   32781   32782   32782   32781   32784   32783   32781   32784
   32787   32785   32786   32786   32785   32788   32787   32785   32788
   32791   32789   32790   32790   32789   32792   32791   32789   32792
   32795   32793   32794   32794   32793   32796   32795   32793   32796
   32799   32797   32798   32798   32797   32800   32799   32797   32800
   32803   32801   32802   32802   32801   32804   32803   32801   32804
   32807   32805   32806   32806   32805   32808   32807   32805   32808
   32811   32809   32810   32810   32809   32812   32811   32809   32812
   32815   32813   32814   32814   32813   32816   32815   32813   32816
   32819   32817   32818   32818   32817   32820   32819   32817   32820
   32823   32821   32822   32822   32821   32824   32823   32821   32824
   32827   32825   32826   32826   32825   32828   32827   32825   32828
   32831   32829   32830   32830   32829   32832   32831   32829   32832
   32835   32833   32834   32834   32833   32836   32835   32833   32836
   32839   32837   32838   32838   32837   32840   32839   32837   32840
   32843   32841   32842   32842   32841   32844   32843   32841   32844
   32847   32845   32846   32846   32845   32848   32847   32845   32848
   32851   32849   32850   32850   32849   32852   32851   32849   32852
   32855   32853   32854   32854   32853   32856   32855   32853   32856
   32859   32857   32858   32858   32857   32860   32859   32857   32860
   32863   32861   32862   32862   32861   32864   32863   32861   32864
   32867   32865   32866   32866   32865   32868   32867   32865   32868
   32871   32869   32870   32870   32869   32872   32871   32869   32872
   32875   32873   32874   32874   32873   32876   32875   32873   32876
   32879   32877   32878   32878   32877   32880   32879   32877   32880
   32883   32881   32882   32882   32881   32884   32883   32881   32884
   32887   32885   32886   32886   32885   32888   32887   32885   32888
   32891   32889   32890   32890   32889   32892   32891   32889   32892
   32895   32893   32894   32894   32893   32896   32895   32893   32896
   32899   32897   32898   32898   32897   32900   32899   32897   32900
   32903   32901   32902   32902   32901   32904   32903   32901   32904
   32907   32905   32906   32906   32905   32908   32907   32905   32908
   32911   32909   32910   32910   32909   32912   32911   32909   32912
   32915   32913   32914   32914   32913   32916   32915   32913   32916
   32919   32917   32918   32918   32917   32920   32919   32917   32920
   32923   32921   32922   32922   32921   32924   32923   32921   32924
   32927   32925   32926   32926   32925   32928   32927   32925   32928
   32931   32929   32930   32930   32929   32932   32931   32929   32932
   32935   32933   32934   32934   32933   32936   32935   32933   32936
   32939   32937   32938   32938   32937   32940   32939   32937   32940
   32943   32941   32942   32942   32941   32944   32943   32941   32944
   32947   32945   32946   32946   32945   32948   32947   32945   32948
   32951   32949   32950   32950   32949   32952   32951   32949   32952
   32955   32953   32954   32954   32953   32956   32955   32953   32956
   32959   32957   32958   32958   32957   32960   32959   32957   32960
   32963   32961   32962   32962   32961   32964   32963   32961   32964
   32967   32965   32966   32966   32965   32968   32967   32965   32968
   32971   32969   32970   32970   32969   32972   32971   32969   32972
   32975   32973   32974   32974   32973   32976   32975   32973   32976
   32979   32977   32978   32978   32977   32980   32979   32977   32980
   32983   32981   32982   32982   32981   32984   32983   32981   32984
   32987   32985   32986   32986   32985   32988   32987   32985   32988
   32991   32989   32990   32990   32989   32992   32991   32989   32992
   32995   32993   32994   32994   32993   32996   32995   32993   32996
   32999   32997   32998   32998   32997   33000   32999   32997   33000
   33003   33001   33002   33002   33001   33004   33003   33001   33004
   33007   33005   33006   33006   33005   33008   33007   33005   33008
   33011   33009   33010   33010   33009   33012   33011   33009   33012
   33015   33013   33014   33014   33013   33016   33015   33013   33016
   33019   33017   33018   33018   33017   33020   33019   33017   33020
   33023   33021   33022   33022   33021   33024   33023   33021   33024
   33027   33025   33026   33026   33025   33028   33027   33025   33028
   33031   33029   33030   33030   33029   33032   33031   33029   33032
   33035   33033   33034   33034   33033   33036   33035   33033   33036
   33039   33037   33038   33038   33037   33040   33039   33037   33040
   33043   33041   33042   33042   33041   33044   33043   33041   33044
   33047   33045   33046   33046   33045   33048   33047   33045   33048
   33051   33049   33050   33050   33049   33052   33051   33049   33052
   33055   33053   33054   33054   33053   33056   33055   33053   33056
   33059   33057   33058   33058   33057   33060   33059   33057   33060
   33063   33061   33062   33062   33061   33064   33063   33061   33064
   33067   33065   33066   33066   33065   33068   33067   33065   33068
   33071   33069   33070   33070   33069   33072   33071   33069   33072
   33075   33073   33074   33074   33073   33076   33075   33073   33076
   33079   33077   33078   33078   33077   33080   33079   33077   33080
   33083   33081   33082   33082   33081   33084   33083   33081   33084
   33087   33085   33086   33086   33085   33088   33087   33085   33088
   33091   33089   33090   33090   33089   33092   33091   33089   33092
   33095   33093   33094   33094   33093   33096   33095   33093   33096
   33099   33097   33098   33098   33097   33100   33099   33097   33100
   33103   33101   33102   33102   33101   33104   33103   33101   33104
   33107   33105   33106   33106   33105   33108   33107   33105   33108
   33111   33109   33110   33110   33109   33112   33111   33109   33112
   33115   33113   33114   33114   33113   33116   33115   33113   33116
   33119   33117   33118   33118   33117   33120   33119   33117   33120
   33123   33121   33122   33122   33121   33124   33123   33121   33124
   33127   33125   33126   33126   33125   33128   33127   33125   33128
   33131   33129   33130   33130   33129   33132   33131   33129   33132
   33135   33133   33134   33134   33133   33136   33135   33133   33136
   33139   33137   33138   33138   33137   33140   33139   33137   33140
   33143   33141   33142   33142   33141   33144   33143   33141   33144
   33147   33145   33146   33146   33145   33148   33147   33145   33148
   33151   33149   33150   33150   33149   33152   33151   33149   33152
   33155   33153   33154   33154   33153   33156   33155   33153   33156
   33159   33157   33158   33158   33157   33160   33159   33157   33160
   33163   33161   33162   33162   33161   33164   33163   33161   33164
   33167   33165   33166   33166   33165   33168   33167   33165   33168
   33171   33169   33170   33170   33169   33172   33171   33169   33172
   33175   33173   33174   33174   33173   33176   33175   33173   33176
   33179   33177   33178   33178   33177   33180   33179   33177   33180
   33183   33181   33182   33182   33181   33184   33183   33181   33184
   33187   33185   33186   33186   33185   33188   33187   33185   33188
   33191   33189   33190   33190   33189   33192   33191   33189   33192
   33195   33193   33194   33194   33193   33196   33195   33193   33196
   33199   33197   33198   33198   33197   33200   33199   33197   33200
   33203   33201   33202   33202   33201   33204   33203   33201   33204
   33207   33205   33206   33206   33205   33208   33207   33205   33208
   33211   33209   33210   33210   33209   33212   33211   33209   33212
   33215   33213   33214   33214   33213   33216   33215   33213   33216
   33219   33217   33218   33218   33217   33220   33219   33217   33220
   33223   33221   33222   33222   33221   33224   33223   33221   33224
   33227   33225   33226   33226   33225   33228   33227   33225   33228
   33231   33229   33230   33230   33229   33232   33231   33229   33232
   33235   33233   33234   33234   33233   33236   33235   33233   33236
   33239   33237   33238   33238   33237   33240   33239   33237   33240
   33243   33241   33242   33242   33241   33244   33243   33241   33244
   33247   33245   33246   33246   33245   33248   33247   33245   33248
   33251   33249   33250   33250   33249   33252   33251   33249   33252
   33255   33253   33254   33254   33253   33256   33255   33253   33256
   33259   33257   33258   33258   33257   33260   33259   33257   33260
   33263   33261   33262   33262   33261   33264   33263   33261   33264
   33267   33265   33266   33266   33265   33268   33267   33265   33268
   33271   33269   33270   33270   33269   33272   33271   33269   33272
   33275   33273   33274   33274   33273   33276   33275   33273   33276
   33279   33277   33278   33278   33277   33280   33279   33277   33280
   33283   33281   33282   33282   33281   33284   33283   33281   33284
   33287   33285   33286   33286   33285   33288   33287   33285   33288
   33291   33289   33290   33290   33289   33292   33291   33289   33292
   33295   33293   33294   33294   33293   33296   33295   33293   33296
   33299   33297   33298   33298   33297   33300   33299   33297   33300
   33303   33301   33302   33302   33301   33304   33303   33301   33304
   33307   33305   33306   33306   33305   33308   33307   33305   33308
   33311   33309   33310   33310   33309   33312   33311   33309   33312
   33315   33313   33314   33314   33313   33316   33315   33313   33316
   33319   33317   33318   33318   33317   33320   33319   33317   33320
   33323   33321   33322   33322   33321   33324   33323   33321   33324
   33327   33325   33326   33326   33325   33328   33327   33325   33328
   33331   33329   33330   33330   33329   33332   33331   33329   33332
   33335   33333   33334   33334   33333   33336   33335   33333   33336
   33339   33337   33338   33338   33337   33340   33339   33337   33340
   33343   33341   33342   33342   33341   33344   33343   33341   33344
   33347   33345   33346   33346   33345   33348   33347   33345   33348
   33351   33349   33350   33350   33349   33352   33351   33349   33352
   33355   33353   33354   33354   33353   33356   33355   33353   33356
   33359   33357   33358   33358   33357   33360   33359   33357   33360
   33363   33361   33362   33362   33361   33364   33363   33361   33364
   33367   33365   33366   33366   33365   33368   33367   33365   33368
   33371   33369   33370   33370   33369   33372   33371   33369   33372
   33375   33373   33374   33374   33373   33376   33375   33373   33376
   33379   33377   33378   33378   33377   33380   33379   33377   33380
   33383   33381   33382   33382   33381   33384   33383   33381   33384
   33387   33385   33386   33386   33385   33388   33387   33385   33388
   33391   33389   33390   33390   33389   33392   33391   33389   33392
   33395   33393   33394   33394   33393   33396   33395   33393   33396
   33399   33397   33398   33398   33397   33400   33399   33397   33400
   33403   33401   33402   33402   33401   33404   33403   33401   33404
   33407   33405   33406   33406   33405   33408   33407   33405   33408
   33411   33409   33410   33410   33409   33412   33411   33409   33412
   33415   33413   33414   33414   33413   33416   33415   33413   33416
   33419   33417   33418   33418   33417   33420   33419   33417   33420
   33423   33421   33422   33422   33421   33424   33423   33421   33424
   33427   33425   33426   33426   33425   33428   33427   33425   33428
   33431   33429   33430   33430   33429   33432   33431   33429   33432
   33435   33433   33434   33434   33433   33436   33435   33433   33436
   33439   33437   33438   33438   33437   33440   33439   33437   33440
   33443   33441   33442   33442   33441   33444   33443   33441   33444
   33447   33445   33446   33446   33445   33448   33447   33445   33448
   33451   33449   33450   33450   33449   33452   33451   33449   33452
   33455   33453   33454   33454   33453   33456   33455   33453   33456
   33459   33457   33458   33458   33457   33460   33459   33457   33460
   33463   33461   33462   33462   33461   33464   33463   33461   33464
   33467   33465   33466   33466   33465   33468   33467   33465   33468
   33471   33469   33470   33470   33469   33472   33471   33469   33472
   33475   33473   33474   33474   33473   33476   33475   33473   33476
   33479   33477   33478   33478   33477   33480   33479   33477   33480
   33483   33481   33482   33482   33481   33484   33483   33481   33484
   33487   33485   33486   33486   33485   33488   33487   33485   33488
   33491   33489   33490   33490   33489   33492   33491   33489   33492
   33495   33493   33494   33494   33493   33496   33495   33493   33496
   33499   33497   33498   33498   33497   33500   33499   33497   33500
   33503   33501   33502   33502   33501   33504   33503   33501   33504
   33507   33505   33506   33506   33505   33508   33507   33505   33508
   33511   33509   33510   33510   33509   33512   33511   33509   33512
   33515   33513   33514   33514   33513   33516   33515   33513   33516
   33519   33517   33518   33518   33517   33520   33519   33517   33520
   33523   33521   33522   33522   33521   33524   33523   33521   33524
   33527   33525   33526   33526   33525   33528   33527   33525   33528
   33531   33529   33530   33530   33529   33532   33531   33529   33532
   33535   33533   33534   33534   33533   33536   33535   33533   33536
   33539   33537   33538   33538   33537   33540   33539   33537   33540
   33543   33541   33542   33542   33541   33544   33543   33541   33544
   33547   33545   33546   33546   33545   33548   33547   33545   33548
   33551   33549   33550   33550   33549   33552   33551   33549   33552
   33555   33553   33554   33554   33553   33556   33555   33553   33556
   33559   33557   33558   33558   33557   33560   33559   33557   33560
   33563   33561   33562   33562   33561   33564   33563   33561   33564
   33567   33565   33566   33566   33565   33568   33567   33565   33568
   33571   33569   33570   33570   33569   33572   33571   33569   33572
   33575   33573   33574   33574   33573   33576   33575   33573   33576
   33579   33577   33578   33578   33577   33580   33579   33577   33580
   33583   33581   33582   33582   33581   33584   33583   33581   33584
   33587   33585   33586   33586   33585   33588   33587   33585   33588
   33591   33589   33590   33590   33589   33592   33591   33589   33592
   33595   33593   33594   33594   33593   33596   33595   33593   33596
   33599   33597   33598   33598   33597   33600   33599   33597   33600
   33603   33601   33602   33602   33601   33604   33603   33601   33604
   33607   33605   33606   33606   33605   33608   33607   33605   33608
   33611   33609   33610   33610   33609   33612   33611   33609   33612
   33615   33613   33614   33614   33613   33616   33615   33613   33616
   33619   33617   33618   33618   33617   33620   33619   33617   33620
   33623   33621   33622   33622   33621   33624   33623   33621   33624
   33627   33625   33626   33626   33625   33628   33627   33625   33628
   33631   33629   33630   33630   33629   33632   33631   33629   33632
   33635   33633   33634   33634   33633   33636   33635   33633   33636
   33639   33637   33638   33638   33637   33640   33639   33637   33640
   33643   33641   33642   33642   33641   33644   33643   33641   33644
   33647   33645   33646   33646   33645   33648   33647   33645   33648
   33651   33649   33650   33650   33649   33652   33651   33649   33652
   33655   33653   33654   33654   33653   33656   33655   33653   33656
   33659   33657   33658   33658   33657   33660   33659   33657   33660
   33663   33661   33662   33662   33661   33664   33663   33661   33664
   33667   33665   33666   33666   33665   33668   33667   33665   33668
   33671   33669   33670   33670   33669   33672   33671   33669   33672
   33675   33673   33674   33674   33673   33676   33675   33673   33676
   33679   33677   33678   33678   33677   33680   33679   33677   33680
   33683   33681   33682   33682   33681   33684   33683   33681   33684
   33687   33685   33686   33686   33685   33688   33687   33685   33688
   33691   33689   33690   33690   33689   33692   33691   33689   33692
   33695   33693   33694   33694   33693   33696   33695   33693   33696
   33699   33697   33698   33698   33697   33700   33699   33697   33700
   33703   33701   33702   33702   33701   33704   33703   33701   33704
   33707   33705   33706   33706   33705   33708   33707   33705   33708
   33711   33709   33710   33710   33709   33712   33711   33709   33712
   33715   33713   33714   33714   33713   33716   33715   33713   33716
   33719   33717   33718   33718   33717   33720   33719   33717   33720
   33723   33721   33722   33722   33721   33724   33723   33721   33724
   33727   33725   33726   33726   33725   33728   33727   33725   33728
   33731   33729   33730   33730   33729   33732   33731   33729   33732
   33735   33733   33734   33734   33733   33736   33735   33733   33736
   33739   33737   33738   33738   33737   33740   33739   33737   33740
   33743   33741   33742   33742   33741   33744   33743   33741   33744
   33747   33745   33746   33746   33745   33748   33747   33745   33748
   33751   33749   33750   33750   33749   33752   33751   33749   33752
   33755   33753   33754   33754   33753   33756   33755   33753   33756
   33759   33757   33758   33758   33757   33760   33759   33757   33760
   33763   33761   33762   33762   33761   33764   33763   33761   33764
   33767   33765   33766   33766   33765   33768   33767   33765   33768
   33771   33769   33770   33770   33769   33772   33771   33769   33772
   33775   33773   33774   33774   33773   33776   33775   33773   33776
   33779   33777   33778   33778   33777   33780   33779   33777   33780
   33783   33781   33782   33782   33781   33784   33783   33781   33784
   33787   33785   33786   33786   33785   33788   33787   33785   33788
   33791   33789   33790   33790   33789   33792   33791   33789   33792
   33795   33793   33794   33794   33793   33796   33795   33793   33796
   33799   33797   33798   33798   33797   33800   33799   33797   33800
   33803   33801   33802   33802   33801   33804   33803   33801   33804
   33807   33805   33806   33806   33805   33808   33807   33805   33808
   33811   33809   33810   33810   33809   33812   33811   33809   33812
   33815   33813   33814   33814   33813   33816   33815   33813   33816
   33819   33817   33818   33818   33817   33820   33819   33817   33820
   33823   33821   33822   33822   33821   33824   33823   33821   33824
   33827   33825   33826   33826   33825   33828   33827   33825   33828
   33831   33829   33830   33830   33829   33832   33831   33829   33832
   33835   33833   33834   33834   33833   33836   33835   33833   33836
   33839   33837   33838   33838   33837   33840   33839   33837   33840
   33843   33841   33842   33842   33841   33844   33843   33841   33844
   33847   33845   33846   33846   33845   33848   33847   33845   33848
   33851   33849   33850   33850   33849   33852   33851   33849   33852
   33855   33853   33854   33854   33853   33856   33855   33853   33856
   33859   33857   33858   33858   33857   33860   33859   33857   33860
   33863   33861   33862   33862   33861   33864   33863   33861   33864
   33867   33865   33866   33866   33865   33868   33867   33865   33868
   33871   33869   33870   33870   33869   33872   33871   33869   33872
   33875   33873   33874   33874   33873   33876   33875   33873   33876
   33879   33877   33878   33878   33877   33880   33879   33877   33880
   33883   33881   33882   33882   33881   33884   33883   33881   33884
   33887   33885   33886   33886   33885   33888   33887   33885   33888
   33891   33889   33890   33890   33889   33892   33891   33889   33892
   33895   33893   33894   33894   33893   33896   33895   33893   33896
   33899   33897   33898   33898   33897   33900   33899   33897   33900
   33903   33901   33902   33902   33901   33904   33903   33901   33904
   33907   33905   33906   33906   33905   33908   33907   33905   33908
   33911   33909   33910   33910   33909   33912   33911   33909   33912
   33915   33913   33914   33914   33913   33916   33915   33913   33916
   33919   33917   33918   33918   33917   33920   33919   33917   33920
   33923   33921   33922   33922   33921   33924   33923   33921   33924
   33927   33925   33926   33926   33925   33928   33927   33925   33928
   33931   33929   33930   33930   33929   33932   33931   33929   33932
   33935   33933   33934   33934   33933   33936   33935   33933   33936
   33939   33937   33938   33938   33937   33940   33939   33937   33940
   33943   33941   33942   33942   33941   33944   33943   33941   33944
   33947   33945   33946   33946   33945   33948   33947   33945   33948
   33951   33949   33950   33950   33949   33952   33951   33949   33952
   33955   33953   33954   33954   33953   33956   33955   33953   33956
   33959   33957   33958   33958   33957   33960   33959   33957   33960
   33963   33961   33962   33962   33961   33964   33963   33961   33964
   33967   33965   33966   33966   33965   33968   33967   33965   33968
   33971   33969   33970   33970   33969   33972   33971   33969   33972
   33975   33973   33974   33974   33973   33976   33975   33973   33976
   33979   33977   33978   33978   33977   33980   33979   33977   33980
   33983   33981   33982   33982   33981   33984   33983   33981   33984
   33987   33985   33986   33986   33985   33988   33987   33985   33988
   33991   33989   33990   33990   33989   33992   33991   33989   33992
   33995   33993   33994   33994   33993   33996   33995   33993   33996
   33999   33997   33998   33998   33997   34000   33999   33997   34000
   34003   34001   34002   34002   34001   34004   34003   34001   34004
   34007   34005   34006   34006   34005   34008   34007   34005   34008
   34011   34009   34010   34010   34009   34012   34011   34009   34012
   34015   34013   34014   34014   34013   34016   34015   34013   34016
   34019   34017   34018   34018   34017   34020   34019   34017   34020
   34023   34021   34022   34022   34021   34024   34023   34021   34024
   34027   34025   34026   34026   34025   34028   34027   34025   34028
   34031   34029   34030   34030   34029   34032   34031   34029   34032
   34035   34033   34034   34034   34033   34036   34035   34033   34036
   34039   34037   34038   34038   34037   34040   34039   34037   34040
   34043   34041   34042   34042   34041   34044   34043   34041   34044
   34047   34045   34046   34046   34045   34048   34047   34045   34048
   34051   34049   34050   34050   34049   34052   34051   34049   34052
   34055   34053   34054   34054   34053   34056   34055   34053   34056
   34059   34057   34058   34058   34057   34060   34059   34057   34060
   34063   34061   34062   34062   34061   34064   34063   34061   34064
   34067   34065   34066   34066   34065   34068   34067   34065   34068
   34071   34069   34070   34070   34069   34072   34071   34069   34072
   34075   34073   34074   34074   34073   34076   34075   34073   34076
   34079   34077   34078   34078   34077   34080   34079   34077   34080
   34083   34081   34082   34082   34081   34084   34083   34081   34084
   34087   34085   34086   34086   34085   34088   34087   34085   34088
   34091   34089   34090   34090   34089   34092   34091   34089   34092
   34095   34093   34094   34094   34093   34096   34095   34093   34096
   34099   34097   34098   34098   34097   34100   34099   34097   34100
   34103   34101   34102   34102   34101   34104   34103   34101   34104
   34107   34105   34106   34106   34105   34108   34107   34105   34108
   34111   34109   34110   34110   34109   34112   34111   34109   34112
   34115   34113   34114   34114   34113   34116   34115   34113   34116
   34119   34117   34118   34118   34117   34120   34119   34117   34120
   34123   34121   34122   34122   34121   34124   34123   34121   34124
   34127   34125   34126   34126   34125   34128   34127   34125   34128
   34131   34129   34130   34130   34129   34132   34131   34129   34132
   34135   34133   34134   34134   34133   34136   34135   34133   34136
   34139   34137   34138   34138   34137   34140   34139   34137   34140
   34143   34141   34142   34142   34141   34144   34143   34141   34144
   34147   34145   34146   34146   34145   34148   34147   34145   34148
   34151   34149   34150   34150   34149   34152   34151   34149   34152
   34155   34153   34154   34154   34153   34156   34155   34153   34156
   34159   34157   34158   34158   34157   34160   34159   34157   34160
   34163   34161   34162   34162   34161   34164   34163   34161   34164
   34167   34165   34166   34166   34165   34168   34167   34165   34168
   34171   34169   34170   34170   34169   34172   34171   34169   34172
   34175   34173   34174   34174   34173   34176   34175   34173   34176
   34179   34177   34178   34178   34177   34180   34179   34177   34180
   34183   34181   34182   34182   34181   34184   34183   34181   34184
   34187   34185   34186   34186   34185   34188   34187   34185   34188
   34191   34189   34190   34190   34189   34192   34191   34189   34192
   34195   34193   34194   34194   34193   34196   34195   34193   34196
   34199   34197   34198   34198   34197   34200   34199   34197   34200
   34203   34201   34202   34202   34201   34204   34203   34201   34204
   34207   34205   34206   34206   34205   34208   34207   34205   34208
   34211   34209   34210   34210   34209   34212   34211   34209   34212
   34215   34213   34214   34214   34213   34216   34215   34213   34216
   34219   34217   34218   34218   34217   34220   34219   34217   34220
   34223   34221   34222   34222   34221   34224   34223   34221   34224
   34227   34225   34226   34226   34225   34228   34227   34225   34228
   34231   34229   34230   34230   34229   34232   34231   34229   34232
   34235   34233   34234   34234   34233   34236   34235   34233   34236
   34239   34237   34238   34238   34237   34240   34239   34237   34240
   34243   34241   34242   34242   34241   34244   34243   34241   34244
   34247   34245   34246   34246   34245   34248   34247   34245   34248
   34251   34249   34250   34250   34249   34252   34251   34249   34252
   34255   34253   34254   34254   34253   34256   34255   34253   34256
   34259   34257   34258   34258   34257   34260   34259   34257   34260
   34263   34261   34262   34262   34261   34264   34263   34261   34264
   34267   34265   34266   34266   34265   34268   34267   34265   34268
   34271   34269   34270   34270   34269   34272   34271   34269   34272
   34275   34273   34274   34274   34273   34276   34275   34273   34276
   34279   34277   34278   34278   34277   34280   34279   34277   34280
   34283   34281   34282   34282   34281   34284   34283   34281   34284
   34287   34285   34286   34286   34285   34288   34287   34285   34288
   34291   34289   34290   34290   34289   34292   34291   34289   34292
   34295   34293   34294   34294   34293   34296   34295   34293   34296
   34299   34297   34298   34298   34297   34300   34299   34297   34300
   34303   34301   34302   34302   34301   34304   34303   34301   34304
   34307   34305   34306   34306   34305   34308   34307   34305   34308
   34311   34309   34310   34310   34309   34312   34311   34309   34312
   34315   34313   34314   34314   34313   34316   34315   34313   34316
   34319   34317   34318   34318   34317   34320   34319   34317   34320
   34323   34321   34322   34322   34321   34324   34323   34321   34324
   34327   34325   34326   34326   34325   34328   34327   34325   34328
   34331   34329   34330   34330   34329   34332   34331   34329   34332
   34335   34333   34334   34334   34333   34336   34335   34333   34336
   34339   34337   34338   34338   34337   34340   34339   34337   34340
   34343   34341   34342   34342   34341   34344   34343   34341   34344
   34347   34345   34346   34346   34345   34348   34347   34345   34348
   34351   34349   34350   34350   34349   34352   34351   34349   34352
   34355   34353   34354   34354   34353   34356   34355   34353   34356
   34359   34357   34358   34358   34357   34360   34359   34357   34360
   34363   34361   34362   34362   34361   34364   34363   34361   34364
   34367   34365   34366   34366   34365   34368   34367   34365   34368
   34371   34369   34370   34370   34369   34372   34371   34369   34372
   34375   34373   34374   34374   34373   34376   34375   34373   34376
   34379   34377   34378   34378   34377   34380   34379   34377   34380
   34383   34381   34382   34382   34381   34384   34383   34381   34384
   34387   34385   34386   34386   34385   34388   34387   34385   34388
   34391   34389   34390   34390   34389   34392   34391   34389   34392
   34395   34393   34394   34394   34393   34396   34395   34393   34396
   34399   34397   34398   34398   34397   34400   34399   34397   34400
   34403   34401   34402   34402   34401   34404   34403   34401   34404
   34407   34405   34406   34406   34405   34408   34407   34405   34408
   34411   34409   34410   34410   34409   34412   34411   34409   34412
   34415   34413   34414   34414   34413   34416   34415   34413   34416
   34419   34417   34418   34418   34417   34420   34419   34417   34420
   34423   34421   34422   34422   34421   34424   34423   34421   34424
   34427   34425   34426   34426   34425   34428   34427   34425   34428
   34431   34429   34430   34430   34429   34432   34431   34429   34432
   34435   34433   34434   34434   34433   34436   34435   34433   34436
   34439   34437   34438   34438   34437   34440   34439   34437   34440
   34443   34441   34442   34442   34441   34444   34443   34441   34444
   34447   34445   34446   34446   34445   34448   34447   34445   34448
   34451   34449   34450   34450   34449   34452   34451   34449   34452
   34455   34453   34454   34454   34453   34456   34455   34453   34456
   34459   34457   34458   34458   34457   34460   34459   34457   34460
   34463   34461   34462   34462   34461   34464   34463   34461   34464
   34467   34465   34466   34466   34465   34468   34467   34465   34468
   34471   34469   34470   34470   34469   34472   34471   34469   34472
   34475   34473   34474   34474   34473   34476   34475   34473   34476
   34479   34477   34478   34478   34477   34480   34479   34477   34480
   34483   34481   34482   34482   34481   34484   34483   34481   34484
   34487   34485   34486   34486   34485   34488   34487   34485   34488
   34491   34489   34490   34490   34489   34492   34491   34489   34492
   34495   34493   34494   34494   34493   34496   34495   34493   34496
   34499   34497   34498   34498   34497   34500   34499   34497   34500
   34503   34501   34502   34502   34501   34504   34503   34501   34504
   34507   34505   34506   34506   34505   34508   34507   34505   34508
   34511   34509   34510   34510   34509   34512   34511   34509   34512
   34515   34513   34514   34514   34513   34516   34515   34513   34516
   34519   34517   34518   34518   34517   34520   34519   34517   34520
   34523   34521   34522   34522   34521   34524   34523   34521   34524
   34527   34525   34526   34526   34525   34528   34527   34525   34528
   34531   34529   34530   34530   34529   34532   34531   34529   34532
   34535   34533   34534   34534   34533   34536   34535   34533   34536
   34539   34537   34538   34538   34537   34540   34539   34537   34540
   34543   34541   34542   34542   34541   34544   34543   34541   34544
   34547   34545   34546   34546   34545   34548   34547   34545   34548
   34551   34549   34550   34550   34549   34552   34551   34549   34552
   34555   34553   34554   34554   34553   34556   34555   34553   34556
   34559   34557   34558   34558   34557   34560   34559   34557   34560
   34563   34561   34562   34562   34561   34564   34563   34561   34564
   34567   34565   34566   34566   34565   34568   34567   34565   34568
   34571   34569   34570   34570   34569   34572   34571   34569   34572
   34575   34573   34574   34574   34573   34576   34575   34573   34576
   34579   34577   34578   34578   34577   34580   34579   34577   34580
   34583   34581   34582   34582   34581   34584   34583   34581   34584
   34587   34585   34586   34586   34585   34588   34587   34585   34588
   34591   34589   34590   34590   34589   34592   34591   34589   34592
   34595   34593   34594   34594   34593   34596   34595   34593   34596
   34599   34597   34598   34598   34597   34600   34599   34597   34600
   34603   34601   34602   34602   34601   34604   34603   34601   34604
   34607   34605   34606   34606   34605   34608   34607   34605   34608
   34611   34609   34610   34610   34609   34612   34611   34609   34612
   34615   34613   34614   34614   34613   34616   34615   34613   34616
   34619   34617   34618   34618   34617   34620   34619   34617   34620
   34623   34621   34622   34622   34621   34624   34623   34621   34624
   34627   34625   34626   34626   34625   34628   34627   34625   34628
   34631   34629   34630   34630   34629   34632   34631   34629   34632
   34635   34633   34634   34634   34633   34636   34635   34633   34636
   34639   34637   34638   34638   34637   34640   34639   34637   34640
   34643   34641   34642   34642   34641   34644   34643   34641   34644
   34647   34645   34646   34646   34645   34648   34647   34645   34648
   34651   34649   34650   34650   34649   34652   34651   34649   34652
   34655   34653   34654   34654   34653   34656   34655   34653   34656
   34659   34657   34658   34658   34657   34660   34659   34657   34660
   34663   34661   34662   34662   34661   34664   34663   34661   34664
   34667   34665   34666   34666   34665   34668   34667   34665   34668
   34671   34669   34670   34670   34669   34672   34671   34669   34672
   34675   34673   34674   34674   34673   34676   34675   34673   34676
   34679   34677   34678   34678   34677   34680   34679   34677   34680
   34683   34681   34682   34682   34681   34684   34683   34681   34684
   34687   34685   34686   34686   34685   34688   34687   34685   34688
   34691   34689   34690   34690   34689   34692   34691   34689   34692
   34695   34693   34694   34694   34693   34696   34695   34693   34696
   34699   34697   34698   34698   34697   34700   34699   34697   34700
   34703   34701   34702   34702   34701   34704   34703   34701   34704
   34707   34705   34706   34706   34705   34708   34707   34705   34708
   34711   34709   34710   34710   34709   34712   34711   34709   34712
   34715   34713   34714   34714   34713   34716   34715   34713   34716
   34719   34717   34718   34718   34717   34720   34719   34717   34720
   34723   34721   34722   34722   34721   34724   34723   34721   34724
   34727   34725   34726   34726   34725   34728   34727   34725   34728
   34731   34729   34730   34730   34729   34732   34731   34729   34732
   34735   34733   34734   34734   34733   34736   34735   34733   34736
   34739   34737   34738   34738   34737   34740   34739   34737   34740
   34743   34741   34742   34742   34741   34744   34743   34741   34744
   34747   34745   34746   34746   34745   34748   34747   34745   34748
   34751   34749   34750   34750   34749   34752   34751   34749   34752
   34755   34753   34754   34754   34753   34756   34755   34753   34756
   34759   34757   34758   34758   34757   34760   34759   34757   34760
   34763   34761   34762   34762   34761   34764   34763   34761   34764
   34767   34765   34766   34766   34765   34768   34767   34765   34768
   34771   34769   34770   34770   34769   34772   34771   34769   34772
   34775   34773   34774   34774   34773   34776   34775   34773   34776
   34779   34777   34778   34778   34777   34780   34779   34777   34780
   34783   34781   34782   34782   34781   34784   34783   34781   34784
   34787   34785   34786   34786   34785   34788   34787   34785   34788
   34791   34789   34790   34790   34789   34792   34791   34789   34792
   34795   34793   34794   34794   34793   34796   34795   34793   34796
   34799   34797   34798   34798   34797   34800   34799   34797   34800
   34803   34801   34802   34802   34801   34804   34803   34801   34804
   34807   34805   34806   34806   34805   34808   34807   34805   34808
   34811   34809   34810   34810   34809   34812   34811   34809   34812
   34815   34813   34814   34814   34813   34816   34815   34813   34816
   34819   34817   34818   34818   34817   34820   34819   34817   34820
   34823   34821   34822   34822   34821   34824   34823   34821   34824
   34827   34825   34826   34826   34825   34828   34827   34825   34828
   34831   34829   34830   34830   34829   34832   34831   34829   34832
   34835   34833   34834   34834   34833   34836   34835   34833   34836
   34839   34837   34838   34838   34837   34840   34839   34837   34840
   34843   34841   34842   34842   34841   34844   34843   34841   34844
   34847   34845   34846   34846   34845   34848   34847   34845   34848
   34851   34849   34850   34850   34849   34852   34851   34849   34852
   34855   34853   34854   34854   34853   34856   34855   34853   34856
   34859   34857   34858   34858   34857   34860   34859   34857   34860
   34863   34861   34862   34862   34861   34864   34863   34861   34864
   34867   34865   34866   34866   34865   34868   34867   34865   34868
   34871   34869   34870   34870   34869   34872   34871   34869   34872
   34875   34873   34874   34874   34873   34876   34875   34873   34876
   34879   34877   34878   34878   34877   34880   34879   34877   34880
   34883   34881   34882   34882   34881   34884   34883   34881   34884
   34887   34885   34886   34886   34885   34888   34887   34885   34888
   34891   34889   34890   34890   34889   34892   34891   34889   34892
   34895   34893   34894   34894   34893   34896   34895   34893   34896
   34899   34897   34898   34898   34897   34900   34899   34897   34900
   34903   34901   34902   34902   34901   34904   34903   34901   34904
   34907   34905   34906   34906   34905   34908   34907   34905   34908
   34911   34909   34910   34910   34909   34912   34911   34909   34912
   34915   34913   34914   34914   34913   34916   34915   34913   34916
   34919   34917   34918   34918   34917   34920   34919   34917   34920
   34923   34921   34922   34922   34921   34924   34923   34921   34924
   34927   34925   34926   34926   34925   34928   34927   34925   34928
   34931   34929   34930   34930   34929   34932   34931   34929   34932
   34935   34933   34934   34934   34933   34936   34935   34933   34936
   34939   34937   34938   34938   34937   34940   34939   34937   34940
   34943   34941   34942   34942   34941   34944   34943   34941   34944
   34947   34945   34946   34946   34945   34948   34947   34945   34948
   34951   34949   34950   34950   34949   34952   34951   34949   34952
   34955   34953   34954   34954   34953   34956   34955   34953   34956
   34959   34957   34958   34958   34957   34960   34959   34957   34960
   34963   34961   34962   34962   34961   34964   34963   34961   34964
   34967   34965   34966   34966   34965   34968   34967   34965   34968
   34971   34969   34970   34970   34969   34972   34971   34969   34972
   34975   34973   34974   34974   34973   34976   34975   34973   34976
   34979   34977   34978   34978   34977   34980   34979   34977   34980
   34983   34981   34982   34982   34981   34984   34983   34981   34984
   34987   34985   34986   34986   34985   34988   34987   34985   34988
   34991   34989   34990   34990   34989   34992   34991   34989   34992
   34995   34993   34994   34994   34993   34996   34995   34993   34996
   34999   34997   34998   34998   34997   35000   34999   34997   35000
   35003   35001   35002   35002   35001   35004   35003   35001   35004
   35007   35005   35006   35006   35005   35008   35007   35005   35008
   35011   35009   35010   35010   35009   35012   35011   35009   35012
   35015   35013   35014   35014   35013   35016   35015   35013   35016
   35019   35017   35018   35018   35017   35020   35019   35017   35020
   35023   35021   35022   35022   35021   35024   35023   35021   35024
   35027   35025   35026   35026   35025   35028   35027   35025   35028
   35031   35029   35030   35030   35029   35032   35031   35029   35032
   35035   35033   35034   35034   35033   35036   35035   35033   35036
   35039   35037   35038   35038   35037   35040   35039   35037   35040
   35043   35041   35042   35042   35041   35044   35043   35041   35044
   35047   35045   35046   35046   35045   35048   35047   35045   35048
   35051   35049   35050   35050   35049   35052   35051   35049   35052
   35055   35053   35054   35054   35053   35056   35055   35053   35056
   35059   35057   35058   35058   35057   35060   35059   35057   35060
   35063   35061   35062   35062   35061   35064   35063   35061   35064
   35067   35065   35066   35066   35065   35068   35067   35065   35068
   35071   35069   35070   35070   35069   35072   35071   35069   35072
   35075   35073   35074   35074   35073   35076   35075   35073   35076
   35079   35077   35078   35078   35077   35080   35079   35077   35080
   35083   35081   35082   35082   35081   35084   35083   35081   35084
   35087   35085   35086   35086   35085   35088   35087   35085   35088
   35091   35089   35090   35090   35089   35092   35091   35089   35092
   35095   35093   35094   35094   35093   35096   35095   35093   35096
   35099   35097   35098   35098   35097   35100   35099   35097   35100
   35103   35101   35102   35102   35101   35104   35103   35101   35104
   35107   35105   35106   35106   35105   35108   35107   35105   35108
   35111   35109   35110   35110   35109   35112   35111   35109   35112
   35115   35113   35114   35114   35113   35116   35115   35113   35116
   35119   35117   35118   35118   35117   35120   35119   35117   35120
   35123   35121   35122   35122   35121   35124   35123   35121   35124
   35127   35125   35126   35126   35125   35128   35127   35125   35128
   35131   35129   35130   35130   35129   35132   35131   35129   35132
   35135   35133   35134   35134   35133   35136   35135   35133   35136
   35139   35137   35138   35138   35137   35140   35139   35137   35140
   35143   35141   35142   35142   35141   35144   35143   35141   35144
   35147   35145   35146   35146   35145   35148   35147   35145   35148
   35151   35149   35150   35150   35149   35152   35151   35149   35152
   35155   35153   35154   35154   35153   35156   35155   35153   35156
   35159   35157   35158   35158   35157   35160   35159   35157   35160
   35163   35161   35162   35162   35161   35164   35163   35161   35164
   35167   35165   35166   35166   35165   35168   35167   35165   35168
   35171   35169   35170   35170   35169   35172   35171   35169   35172
   35175   35173   35174   35174   35173   35176   35175   35173   35176
   35179   35177   35178   35178   35177   35180   35179   35177   35180
   35183   35181   35182   35182   35181   35184   35183   35181   35184
   35187   35185   35186   35186   35185   35188   35187   35185   35188
   35191   35189   35190   35190   35189   35192   35191   35189   35192
   35195   35193   35194   35194   35193   35196   35195   35193   35196
   35199   35197   35198   35198   35197   35200   35199   35197   35200
   35203   35201   35202   35202   35201   35204   35203   35201   35204
   35207   35205   35206   35206   35205   35208   35207   35205   35208
   35211   35209   35210   35210   35209   35212   35211   35209   35212
   35215   35213   35214   35214   35213   35216   35215   35213   35216
   35219   35217   35218   35218   35217   35220   35219   35217   35220
   35223   35221   35222   35222   35221   35224   35223   35221   35224
   35227   35225   35226   35226   35225   35228   35227   35225   35228
   35231   35229   35230   35230   35229   35232   35231   35229   35232
   35235   35233   35234   35234   35233   35236   35235   35233   35236
   35239   35237   35238   35238   35237   35240   35239   35237   35240
   35243   35241   35242   35242   35241   35244   35243   35241   35244
   35247   35245   35246   35246   35245   35248   35247   35245   35248
   35251   35249   35250   35250   35249   35252   35251   35249   35252
   35255   35253   35254   35254   35253   35256   35255   35253   35256
   35259   35257   35258   35258   35257   35260   35259   35257   35260
   35263   35261   35262   35262   35261   35264   35263   35261   35264
   35267   35265   35266   35266   35265   35268   35267   35265   35268
   35271   35269   35270   35270   35269   35272   35271   35269   35272
   35275   35273   35274   35274   35273   35276   35275   35273   35276
   35279   35277   35278   35278   35277   35280   35279   35277   35280
   35283   35281   35282   35282   35281   35284   35283   35281   35284
   35287   35285   35286   35286   35285   35288   35287   35285   35288
   35291   35289   35290   35290   35289   35292   35291   35289   35292
   35295   35293   35294   35294   35293   35296   35295   35293   35296
   35299   35297   35298   35298   35297   35300   35299   35297   35300
   35303   35301   35302   35302   35301   35304   35303   35301   35304
   35307   35305   35306   35306   35305   35308   35307   35305   35308
   35311   35309   35310   35310   35309   35312   35311   35309   35312
   35315   35313   35314   35314   35313   35316   35315   35313   35316
   35319   35317   35318   35318   35317   35320   35319   35317   35320
   35323   35321   35322   35322   35321   35324   35323   35321   35324
   35327   35325   35326   35326   35325   35328   35327   35325   35328
   35331   35329   35330   35330   35329   35332   35331   35329   35332
   35335   35333   35334   35334   35333   35336   35335   35333   35336
   35339   35337   35338   35338   35337   35340   35339   35337   35340
   35343   35341   35342   35342   35341   35344   35343   35341   35344
   35347   35345   35346   35346   35345   35348   35347   35345   35348
   35351   35349   35350   35350   35349   35352   35351   35349   35352
   35355   35353   35354   35354   35353   35356   35355   35353   35356
   35359   35357   35358   35358   35357   35360   35359   35357   35360
   35363   35361   35362   35362   35361   35364   35363   35361   35364
   35367   35365   35366   35366   35365   35368   35367   35365   35368
   35371   35369   35370   35370   35369   35372   35371   35369   35372
   35375   35373   35374   35374   35373   35376   35375   35373   35376
   35379   35377   35378   35378   35377   35380   35379   35377   35380
   35383   35381   35382   35382   35381   35384   35383   35381   35384
   35387   35385   35386   35386   35385   35388   35387   35385   35388
   35391   35389   35390   35390   35389   35392   35391   35389   35392
   35395   35393   35394   35394   35393   35396   35395   35393   35396
   35399   35397   35398   35398   35397   35400   35399   35397   35400
   35403   35401   35402   35402   35401   35404   35403   35401   35404
   35407   35405   35406   35406   35405   35408   35407   35405   35408
   35411   35409   35410   35410   35409   35412   35411   35409   35412
   35415   35413   35414   35414   35413   35416   35415   35413   35416
   35419   35417   35418   35418   35417   35420   35419   35417   35420
   35423   35421   35422   35422   35421   35424   35423   35421   35424
   35427   35425   35426   35426   35425   35428   35427   35425   35428
   35431   35429   35430   35430   35429   35432   35431   35429   35432
   35435   35433   35434   35434   35433   35436   35435   35433   35436
   35439   35437   35438   35438   35437   35440   35439   35437   35440
   35443   35441   35442   35442   35441   35444   35443   35441   35444
   35447   35445   35446   35446   35445   35448   35447   35445   35448
   35451   35449   35450   35450   35449   35452   35451   35449   35452
   35455   35453   35454   35454   35453   35456   35455   35453   35456
   35459   35457   35458   35458   35457   35460   35459   35457   35460
   35463   35461   35462   35462   35461   35464   35463   35461   35464
   35467   35465   35466   35466   35465   35468   35467   35465   35468
   35471   35469   35470   35470   35469   35472   35471   35469   35472
   35475   35473   35474   35474   35473   35476   35475   35473   35476
   35479   35477   35478   35478   35477   35480   35479   35477   35480
   35483   35481   35482   35482   35481   35484   35483   35481   35484
   35487   35485   35486   35486   35485   35488   35487   35485   35488
   35491   35489   35490   35490   35489   35492   35491   35489   35492
   35495   35493   35494   35494   35493   35496   35495   35493   35496
   35499   35497   35498   35498   35497   35500   35499   35497   35500
   35503   35501   35502   35502   35501   35504   35503   35501   35504
   35507   35505   35506   35506   35505   35508   35507   35505   35508
   35511   35509   35510   35510   35509   35512   35511   35509   35512
   35515   35513   35514   35514   35513   35516   35515   35513   35516
   35519   35517   35518   35518   35517   35520   35519   35517   35520
   35523   35521   35522   35522   35521   35524   35523   35521   35524
   35527   35525   35526   35526   35525   35528   35527   35525   35528
   35531   35529   35530   35530   35529   35532   35531   35529   35532
   35535   35533   35534   35534   35533   35536   35535   35533   35536
   35539   35537   35538   35538   35537   35540   35539   35537   35540
   35543   35541   35542   35542   35541   35544   35543   35541   35544
   35547   35545   35546   35546   35545   35548   35547   35545   35548
   35551   35549   35550   35550   35549   35552   35551   35549   35552
   35555   35553   35554   35554   35553   35556   35555   35553   35556
   35559   35557   35558   35558   35557   35560   35559   35557   35560
   35563   35561   35562   35562   35561   35564   35563   35561   35564
   35567   35565   35566   35566   35565   35568   35567   35565   35568
   35571   35569   35570   35570   35569   35572   35571   35569   35572
   35575   35573   35574   35574   35573   35576   35575   35573   35576
   35579   35577   35578   35578   35577   35580   35579   35577   35580
   35583   35581   35582   35582   35581   35584   35583   35581   35584
   35587   35585   35586   35586   35585   35588   35587   35585   35588
   35591   35589   35590   35590   35589   35592   35591   35589   35592
   35595   35593   35594   35594   35593   35596   35595   35593   35596
   35599   35597   35598   35598   35597   35600   35599   35597   35600
   35603   35601   35602   35602   35601   35604   35603   35601   35604
   35607   35605   35606   35606   35605   35608   35607   35605   35608
   35611   35609   35610   35610   35609   35612   35611   35609   35612
   35615   35613   35614   35614   35613   35616   35615   35613   35616
   35619   35617   35618   35618   35617   35620   35619   35617   35620
   35623   35621   35622   35622   35621   35624   35623   35621   35624
   35627   35625   35626   35626   35625   35628   35627   35625   35628
   35631   35629   35630   35630   35629   35632   35631   35629   35632
   35635   35633   35634   35634   35633   35636   35635   35633   35636
   35639   35637   35638   35638   35637   35640   35639   35637   35640
   35643   35641   35642   35642   35641   35644   35643   35641   35644
   35647   35645   35646   35646   35645   35648   35647   35645   35648
   35651   35649   35650   35650   35649   35652   35651   35649   35652
   35655   35653   35654   35654   35653   35656   35655   35653   35656
   35659   35657   35658   35658   35657   35660   35659   35657   35660
   35663   35661   35662   35662   35661   35664   35663   35661   35664
   35667   35665   35666   35666   35665   35668   35667   35665   35668
   35671   35669   35670   35670   35669   35672   35671   35669   35672
   35675   35673   35674   35674   35673   35676   35675   35673   35676
   35679   35677   35678   35678   35677   35680   35679   35677   35680
   35683   35681   35682   35682   35681   35684   35683   35681   35684
   35687   35685   35686   35686   35685   35688   35687   35685   35688
   35691   35689   35690   35690   35689   35692   35691   35689   35692
   35695   35693   35694   35694   35693   35696   35695   35693   35696
   35699   35697   35698   35698   35697   35700   35699   35697   35700
   35703   35701   35702   35702   35701   35704   35703   35701   35704
   35707   35705   35706   35706   35705   35708   35707   35705   35708
   35711   35709   35710   35710   35709   35712   35711   35709   35712
   35715   35713   35714   35714   35713   35716   35715   35713   35716
   35719   35717   35718   35718   35717   35720   35719   35717   35720
   35723   35721   35722   35722   35721   35724   35723   35721   35724
   35727   35725   35726   35726   35725   35728   35727   35725   35728
   35731   35729   35730   35730   35729   35732   35731   35729   35732
   35735   35733   35734   35734   35733   35736   35735   35733   35736
   35739   35737   35738   35738   35737   35740   35739   35737   35740
   35743   35741   35742   35742   35741   35744   35743   35741   35744
   35747   35745   35746   35746   35745   35748   35747   35745   35748
   35751   35749   35750   35750   35749   35752   35751   35749   35752
   35755   35753   35754   35754   35753   35756   35755   35753   35756
   35759   35757   35758   35758   35757   35760   35759   35757   35760
   35763   35761   35762   35762   35761   35764   35763   35761   35764
   35767   35765   35766   35766   35765   35768   35767   35765   35768
   35771   35769   35770   35770   35769   35772   35771   35769   35772
   35775   35773   35774   35774   35773   35776   35775   35773   35776
   35779   35777   35778   35778   35777   35780   35779   35777   35780
   35783   35781   35782   35782   35781   35784   35783   35781   35784
   35787   35785   35786   35786   35785   35788   35787   35785   35788
   35791   35789   35790   35790   35789   35792   35791   35789   35792
   35795   35793   35794   35794   35793   35796   35795   35793   35796
   35799   35797   35798   35798   35797   35800   35799   35797   35800
   35803   35801   35802   35802   35801   35804   35803   35801   35804
   35807   35805   35806   35806   35805   35808   35807   35805   35808
   35811   35809   35810   35810   35809   35812   35811   35809   35812
   35815   35813   35814   35814   35813   35816   35815   35813   35816
   35819   35817   35818   35818   35817   35820   35819   35817   35820
   35823   35821   35822   35822   35821   35824   35823   35821   35824
   35827   35825   35826   35826   35825   35828   35827   35825   35828
   35831   35829   35830   35830   35829   35832   35831   35829   35832
   35835   35833   35834   35834   35833   35836   35835   35833   35836
   35839   35837   35838   35838   35837   35840   35839   35837   35840
   35843   35841   35842   35842   35841   35844   35843   35841   35844
   35847   35845   35846   35846   35845   35848   35847   35845   35848
   35851   35849   35850   35850   35849   35852   35851   35849   35852
   35855   35853   35854   35854   35853   35856   35855   35853   35856
   35859   35857   35858   35858   35857   35860   35859   35857   35860
   35863   35861   35862   35862   35861   35864   35863   35861   35864
   35867   35865   35866   35866   35865   35868   35867   35865   35868
   35871   35869   35870   35870   35869   35872   35871   35869   35872
   35875   35873   35874   35874   35873   35876   35875   35873   35876
   35879   35877   35878   35878   35877   35880   35879   35877   35880
   35883   35881   35882   35882   35881   35884   35883   35881   35884
   35887   35885   35886   35886   35885   35888   35887   35885   35888
   35891   35889   35890   35890   35889   35892   35891   35889   35892
   35895   35893   35894   35894   35893   35896   35895   35893   35896
   35899   35897   35898   35898   35897   35900   35899   35897   35900
   35903   35901   35902   35902   35901   35904   35903   35901   35904
   35907   35905   35906   35906   35905   35908   35907   35905   35908
   35911   35909   35910   35910   35909   35912   35911   35909   35912
   35915   35913   35914   35914   35913   35916   35915   35913   35916
   35919   35917   35918   35918   35917   35920   35919   35917   35920
   35923   35921   35922   35922   35921   35924   35923   35921   35924
   35927   35925   35926   35926   35925   35928   35927   35925   35928
   35931   35929   35930   35930   35929   35932   35931   35929   35932
   35935   35933   35934   35934   35933   35936   35935   35933   35936
   35939   35937   35938   35938   35937   35940   35939   35937   35940
   35943   35941   35942   35942   35941   35944   35943   35941   35944
   35947   35945   35946   35946   35945   35948   35947   35945   35948
   35951   35949   35950   35950   35949   35952   35951   35949   35952
   35955   35953   35954   35954   35953   35956   35955   35953   35956
   35959   35957   35958   35958   35957   35960   35959   35957   35960
   35963   35961   35962   35962   35961   35964   35963   35961   35964
   35967   35965   35966   35966   35965   35968   35967   35965   35968
   35971   35969   35970   35970   35969   35972   35971   35969   35972
   35975   35973   35974   35974   35973   35976   35975   35973   35976
   35979   35977   35978   35978   35977   35980   35979   35977   35980
   35983   35981   35982   35982   35981   35984   35983   35981   35984
   35987   35985   35986   35986   35985   35988   35987   35985   35988
   35991   35989   35990   35990   35989   35992   35991   35989   35992
   35995   35993   35994   35994   35993   35996   35995   35993   35996
   35999   35997   35998   35998   35997   36000   35999   35997   36000
   36003   36001   36002   36002   36001   36004   36003   36001   36004
   36007   36005   36006   36006   36005   36008   36007   36005   36008
   36011   36009   36010   36010   36009   36012   36011   36009   36012
   36015   36013   36014   36014   36013   36016   36015   36013   36016
   36019   36017   36018   36018   36017   36020   36019   36017   36020
   36023   36021   36022   36022   36021   36024   36023   36021   36024
   36027   36025   36026   36026   36025   36028   36027   36025   36028
   36031   36029   36030   36030   36029   36032   36031   36029   36032
   36035   36033   36034   36034   36033   36036   36035   36033   36036
   36039   36037   36038   36038   36037   36040   36039   36037   36040
   36043   36041   36042   36042   36041   36044   36043   36041   36044
   36047   36045   36046   36046   36045   36048   36047   36045   36048
   36051   36049   36050   36050   36049   36052   36051   36049   36052
   36055   36053   36054   36054   36053   36056   36055   36053   36056
   36059   36057   36058   36058   36057   36060   36059   36057   36060
   36063   36061   36062   36062   36061   36064   36063   36061   36064
   36067   36065   36066   36066   36065   36068   36067   36065   36068
   36071   36069   36070   36070   36069   36072   36071   36069   36072
   36075   36073   36074   36074   36073   36076   36075   36073   36076
   36079   36077   36078   36078   36077   36080   36079   36077   36080
   36083   36081   36082   36082   36081   36084   36083   36081   36084
   36087   36085   36086   36086   36085   36088   36087   36085   36088
   36091   36089   36090   36090   36089   36092   36091   36089   36092
   36095   36093   36094   36094   36093   36096   36095   36093   36096
   36099   36097   36098   36098   36097   36100   36099   36097   36100
   36103   36101   36102   36102   36101   36104   36103   36101   36104
   36107   36105   36106   36106   36105   36108   36107   36105   36108
   36111   36109   36110   36110   36109   36112   36111   36109   36112
   36115   36113   36114   36114   36113   36116   36115   36113   36116
   36119   36117   36118   36118   36117   36120   36119   36117   36120
   36123   36121   36122   36122   36121   36124   36123   36121   36124
   36127   36125   36126   36126   36125   36128   36127   36125   36128
   36131   36129   36130   36130   36129   36132   36131   36129   36132
   36135   36133   36134   36134   36133   36136   36135   36133   36136
   36139   36137   36138   36138   36137   36140   36139   36137   36140
   36143   36141   36142   36142   36141   36144   36143   36141   36144
   36147   36145   36146   36146   36145   36148   36147   36145   36148
   36151   36149   36150   36150   36149   36152   36151   36149   36152
   36155   36153   36154   36154   36153   36156   36155   36153   36156
   36159   36157   36158   36158   36157   36160   36159   36157   36160
   36163   36161   36162   36162   36161   36164   36163   36161   36164
   36167   36165   36166   36166   36165   36168   36167   36165   36168
   36171   36169   36170   36170   36169   36172   36171   36169   36172
   36175   36173   36174   36174   36173   36176   36175   36173   36176
   36179   36177   36178   36178   36177   36180   36179   36177   36180
   36183   36181   36182   36182   36181   36184   36183   36181   36184
   36187   36185   36186   36186   36185   36188   36187   36185   36188
   36191   36189   36190   36190   36189   36192   36191   36189   36192
   36195   36193   36194   36194   36193   36196   36195   36193   36196
   36199   36197   36198   36198   36197   36200   36199   36197   36200
   36203   36201   36202   36202   36201   36204   36203   36201   36204
   36207   36205   36206   36206   36205   36208   36207   36205   36208
   36211   36209   36210   36210   36209   36212   36211   36209   36212
   36215   36213   36214   36214   36213   36216   36215   36213   36216
   36219   36217   36218   36218   36217   36220   36219   36217   36220
   36223   36221   36222   36222   36221   36224   36223   36221   36224
   36227   36225   36226   36226   36225   36228   36227   36225   36228
   36231   36229   36230   36230   36229   36232   36231   36229   36232
   36235   36233   36234   36234   36233   36236   36235   36233   36236
   36239   36237   36238   36238   36237   36240   36239   36237   36240
   36243   36241   36242   36242   36241   36244   36243   36241   36244
   36247   36245   36246   36246   36245   36248   36247   36245   36248
   36251   36249   36250   36250   36249   36252   36251   36249   36252
   36255   36253   36254   36254   36253   36256   36255   36253   36256
   36259   36257   36258   36258   36257   36260   36259   36257   36260
   36263   36261   36262   36262   36261   36264   36263   36261   36264
   36267   36265   36266   36266   36265   36268   36267   36265   36268
   36271   36269   36270   36270   36269   36272   36271   36269   36272
   36275   36273   36274   36274   36273   36276   36275   36273   36276
   36279   36277   36278   36278   36277   36280   36279   36277   36280
   36283   36281   36282   36282   36281   36284   36283   36281   36284
   36287   36285   36286   36286   36285   36288   36287   36285   36288
   36291   36289   36290   36290   36289   36292   36291   36289   36292
   36295   36293   36294   36294   36293   36296   36295   36293   36296
   36299   36297   36298   36298   36297   36300   36299   36297   36300
   36303   36301   36302   36302   36301   36304   36303   36301   36304
   36307   36305   36306   36306   36305   36308   36307   36305   36308
   36311   36309   36310   36310   36309   36312   36311   36309   36312
   36315   36313   36314   36314   36313   36316   36315   36313   36316
   36319   36317   36318   36318   36317   36320   36319   36317   36320
   36323   36321   36322   36322   36321   36324   36323   36321   36324
   36327   36325   36326   36326   36325   36328   36327   36325   36328
   36331   36329   36330   36330   36329   36332   36331   36329   36332
   36335   36333   36334   36334   36333   36336   36335   36333   36336
   36339   36337   36338   36338   36337   36340   36339   36337   36340
   36343   36341   36342   36342   36341   36344   36343   36341   36344
   36347   36345   36346   36346   36345   36348   36347   36345   36348
   36351   36349   36350   36350   36349   36352   36351   36349   36352
   36355   36353   36354   36354   36353   36356   36355   36353   36356
   36359   36357   36358   36358   36357   36360   36359   36357   36360
   36363   36361   36362   36362   36361   36364   36363   36361   36364
   36367   36365   36366   36366   36365   36368   36367   36365   36368
   36371   36369   36370   36370   36369   36372   36371   36369   36372
   36375   36373   36374   36374   36373   36376   36375   36373   36376
   36379   36377   36378   36378   36377   36380   36379   36377   36380
   36383   36381   36382   36382   36381   36384   36383   36381   36384
   36387   36385   36386   36386   36385   36388   36387   36385   36388
   36391   36389   36390   36390   36389   36392   36391   36389   36392
   36395   36393   36394   36394   36393   36396   36395   36393   36396
   36399   36397   36398   36398   36397   36400   36399   36397   36400
   36403   36401   36402   36402   36401   36404   36403   36401   36404
   36407   36405   36406   36406   36405   36408   36407   36405   36408
   36411   36409   36410   36410   36409   36412   36411   36409   36412
   36415   36413   36414   36414   36413   36416   36415   36413   36416
   36419   36417   36418   36418   36417   36420   36419   36417   36420
   36423   36421   36422   36422   36421   36424   36423   36421   36424
   36427   36425   36426   36426   36425   36428   36427   36425   36428
   36431   36429   36430   36430   36429   36432   36431   36429   36432
   36435   36433   36434   36434   36433   36436   36435   36433   36436
   36439   36437   36438   36438   36437   36440   36439   36437   36440
   36443   36441   36442   36442   36441   36444   36443   36441   36444
   36447   36445   36446   36446   36445   36448   36447   36445   36448
   36451   36449   36450   36450   36449   36452   36451   36449   36452
   36455   36453   36454   36454   36453   36456   36455   36453   36456
   36459   36457   36458   36458   36457   36460   36459   36457   36460
   36463   36461   36462   36462   36461   36464   36463   36461   36464
   36467   36465   36466   36466   36465   36468   36467   36465   36468
   36471   36469   36470   36470   36469   36472   36471   36469   36472
   36475   36473   36474   36474   36473   36476   36475   36473   36476
   36479   36477   36478   36478   36477   36480   36479   36477   36480
   36483   36481   36482   36482   36481   36484   36483   36481   36484
   36487   36485   36486   36486   36485   36488   36487   36485   36488
   36491   36489   36490   36490   36489   36492   36491   36489   36492
   36495   36493   36494   36494   36493   36496   36495   36493   36496
   36499   36497   36498   36498   36497   36500   36499   36497   36500
   36503   36501   36502   36502   36501   36504   36503   36501   36504
   36507   36505   36506   36506   36505   36508   36507   36505   36508
   36511   36509   36510   36510   36509   36512   36511   36509   36512
   36515   36513   36514   36514   36513   36516   36515   36513   36516
   36519   36517   36518   36518   36517   36520   36519   36517   36520
   36523   36521   36522   36522   36521   36524   36523   36521   36524
   36527   36525   36526   36526   36525   36528   36527   36525   36528
   36531   36529   36530   36530   36529   36532   36531   36529   36532
   36535   36533   36534   36534   36533   36536   36535   36533   36536
   36539   36537   36538   36538   36537   36540   36539   36537   36540
   36543   36541   36542   36542   36541   36544   36543   36541   36544
   36547   36545   36546   36546   36545   36548   36547   36545   36548
   36551   36549   36550   36550   36549   36552   36551   36549   36552
   36555   36553   36554   36554   36553   36556   36555   36553   36556
   36559   36557   36558   36558   36557   36560   36559   36557   36560
   36563   36561   36562   36562   36561   36564   36563   36561   36564
   36567   36565   36566   36566   36565   36568   36567   36565   36568
   36571   36569   36570   36570   36569   36572   36571   36569   36572
   36575   36573   36574   36574   36573   36576   36575   36573   36576
   36579   36577   36578   36578   36577   36580   36579   36577   36580
   36583   36581   36582   36582   36581   36584   36583   36581   36584
   36587   36585   36586   36586   36585   36588   36587   36585   36588
   36591   36589   36590   36590   36589   36592   36591   36589   36592
   36595   36593   36594   36594   36593   36596   36595   36593   36596
   36599   36597   36598   36598   36597   36600   36599   36597   36600
   36603   36601   36602   36602   36601   36604   36603   36601   36604
   36607   36605   36606   36606   36605   36608   36607   36605   36608
   36611   36609   36610   36610   36609   36612   36611   36609   36612
   36615   36613   36614   36614   36613   36616   36615   36613   36616
   36619   36617   36618   36618   36617   36620   36619   36617   36620
   36623   36621   36622   36622   36621   36624   36623   36621   36624
   36627   36625   36626   36626   36625   36628   36627   36625   36628
   36631   36629   36630   36630   36629   36632   36631   36629   36632
   36635   36633   36634   36634   36633   36636   36635   36633   36636
   36639   36637   36638   36638   36637   36640   36639   36637   36640
   36643   36641   36642   36642   36641   36644   36643   36641   36644
   36647   36645   36646   36646   36645   36648   36647   36645   36648
   36651   36649   36650   36650   36649   36652   36651   36649   36652
   36655   36653   36654   36654   36653   36656   36655   36653   36656
   36659   36657   36658   36658   36657   36660   36659   36657   36660
   36663   36661   36662   36662   36661   36664   36663   36661   36664
   36667   36665   36666   36666   36665   36668   36667   36665   36668
   36671   36669   36670   36670   36669   36672   36671   36669   36672
   36675   36673   36674   36674   36673   36676   36675   36673   36676
   36679   36677   36678   36678   36677   36680   36679   36677   36680
   36683   36681   36682   36682   36681   36684   36683   36681   36684
   36687   36685   36686   36686   36685   36688   36687   36685   36688
   36691   36689   36690   36690   36689   36692   36691   36689   36692
   36695   36693   36694   36694   36693   36696   36695   36693   36696
   36699   36697   36698   36698   36697   36700   36699   36697   36700
   36703   36701   36702   36702   36701   36704   36703   36701   36704
   36707   36705   36706   36706   36705   36708   36707   36705   36708
   36711   36709   36710   36710   36709   36712   36711   36709   36712
   36715   36713   36714   36714   36713   36716   36715   36713   36716
   36719   36717   36718   36718   36717   36720   36719   36717   36720
   36723   36721   36722   36722   36721   36724   36723   36721   36724
   36727   36725   36726   36726   36725   36728   36727   36725   36728
   36731   36729   36730   36730   36729   36732   36731   36729   36732
   36735   36733   36734   36734   36733   36736   36735   36733   36736
   36739   36737   36738   36738   36737   36740   36739   36737   36740
   36743   36741   36742   36742   36741   36744   36743   36741   36744
   36747   36745   36746   36746   36745   36748   36747   36745   36748
   36751   36749   36750   36750   36749   36752   36751   36749   36752
   36755   36753   36754   36754   36753   36756   36755   36753   36756
   36759   36757   36758   36758   36757   36760   36759   36757   36760
   36763   36761   36762   36762   36761   36764   36763   36761   36764
   36767   36765   36766   36766   36765   36768   36767   36765   36768
   36771   36769   36770   36770   36769   36772   36771   36769   36772
   36775   36773   36774   36774   36773   36776   36775   36773   36776
   36779   36777   36778   36778   36777   36780   36779   36777   36780
   36783   36781   36782   36782   36781   36784   36783   36781   36784
   36787   36785   36786   36786   36785   36788   36787   36785   36788
   36791   36789   36790   36790   36789   36792   36791   36789   36792
   36795   36793   36794   36794   36793   36796   36795   36793   36796
   36799   36797   36798   36798   36797   36800   36799   36797   36800
   36803   36801   36802   36802   36801   36804   36803   36801   36804
   36807   36805   36806   36806   36805   36808   36807   36805   36808
   36811   36809   36810   36810   36809   36812   36811   36809   36812
   36815   36813   36814   36814   36813   36816   36815   36813   36816
   36819   36817   36818   36818   36817   36820   36819   36817   36820
   36823   36821   36822   36822   36821   36824   36823   36821   36824
   36827   36825   36826   36826   36825   36828   36827   36825   36828
   36831   36829   36830   36830   36829   36832   36831   36829   36832
   36835   36833   36834   36834   36833   36836   36835   36833   36836
   36839   36837   36838   36838   36837   36840   36839   36837   36840
   36843   36841   36842   36842   36841   36844   36843   36841   36844
   36847   36845   36846   36846   36845   36848   36847   36845   36848
   36851   36849   36850   36850   36849   36852   36851   36849   36852
   36855   36853   36854   36854   36853   36856   36855   36853   36856
   36859   36857   36858   36858   36857   36860   36859   36857   36860
   36863   36861   36862   36862   36861   36864   36863   36861   36864
   36867   36865   36866   36866   36865   36868   36867   36865   36868
   36871   36869   36870   36870   36869   36872   36871   36869   36872
   36875   36873   36874   36874   36873   36876   36875   36873   36876
   36879   36877   36878   36878   36877   36880   36879   36877   36880
   36883   36881   36882   36882   36881   36884   36883   36881   36884
   36887   36885   36886   36886   36885   36888   36887   36885   36888
   36891   36889   36890   36890   36889   36892   36891   36889   36892
   36895   36893   36894   36894   36893   36896   36895   36893   36896
   36899   36897   36898   36898   36897   36900   36899   36897   36900
   36903   36901   36902   36902   36901   36904   36903   36901   36904
   36907   36905   36906   36906   36905   36908   36907   36905   36908
   36911   36909   36910   36910   36909   36912   36911   36909   36912
   36915   36913   36914   36914   36913   36916   36915   36913   36916
   36919   36917   36918   36918   36917   36920   36919   36917   36920
   36923   36921   36922   36922   36921   36924   36923   36921   36924
   36927   36925   36926   36926   36925   36928   36927   36925   36928
   36931   36929   36930   36930   36929   36932   36931   36929   36932
   36935   36933   36934   36934   36933   36936   36935   36933   36936
   36939   36937   36938   36938   36937   36940   36939   36937   36940
   36943   36941   36942   36942   36941   36944   36943   36941   36944
   36947   36945   36946   36946   36945   36948   36947   36945   36948
   36951   36949   36950   36950   36949   36952   36951   36949   36952
   36955   36953   36954   36954   36953   36956   36955   36953   36956
   36959   36957   36958   36958   36957   36960   36959   36957   36960
   36963   36961   36962   36962   36961   36964   36963   36961   36964
   36967   36965   36966   36966   36965   36968   36967   36965   36968
   36971   36969   36970   36970   36969   36972   36971   36969   36972
   36975   36973   36974   36974   36973   36976   36975   36973   36976
   36979   36977   36978   36978   36977   36980   36979   36977   36980
   36983   36981   36982   36982   36981   36984   36983   36981   36984
   36987   36985   36986   36986   36985   36988   36987   36985   36988
   36991   36989   36990   36990   36989   36992   36991   36989   36992
   36995   36993   36994   36994   36993   36996   36995   36993   36996
   36999   36997   36998   36998   36997   37000   36999   36997   37000
   37003   37001   37002   37002   37001   37004   37003   37001   37004
   37007   37005   37006   37006   37005   37008   37007   37005   37008
   37011   37009   37010   37010   37009   37012   37011   37009   37012
   37015   37013   37014   37014   37013   37016   37015   37013   37016
   37019   37017   37018   37018   37017   37020   37019   37017   37020
   37023   37021   37022   37022   37021   37024   37023   37021   37024
   37027   37025   37026   37026   37025   37028   37027   37025   37028
   37031   37029   37030   37030   37029   37032   37031   37029   37032
   37035   37033   37034   37034   37033   37036   37035   37033   37036
   37039   37037   37038   37038   37037   37040   37039   37037   37040
   37043   37041   37042   37042   37041   37044   37043   37041   37044
   37047   37045   37046   37046   37045   37048   37047   37045   37048
   37051   37049   37050   37050   37049   37052   37051   37049   37052
   37055   37053   37054   37054   37053   37056   37055   37053   37056
   37059   37057   37058   37058   37057   37060   37059   37057   37060
   37063   37061   37062   37062   37061   37064   37063   37061   37064
   37067   37065   37066   37066   37065   37068   37067   37065   37068
   37071   37069   37070   37070   37069   37072   37071   37069   37072
   37075   37073   37074   37074   37073   37076   37075   37073   37076
   37079   37077   37078   37078   37077   37080   37079   37077   37080
   37083   37081   37082   37082   37081   37084   37083   37081   37084
   37087   37085   37086   37086   37085   37088   37087   37085   37088
   37091   37089   37090   37090   37089   37092   37091   37089   37092
   37095   37093   37094   37094   37093   37096   37095   37093   37096
   37099   37097   37098   37098   37097   37100   37099   37097   37100
   37103   37101   37102   37102   37101   37104   37103   37101   37104
   37107   37105   37106   37106   37105   37108   37107   37105   37108
   37111   37109   37110   37110   37109   37112   37111   37109   37112
   37115   37113   37114   37114   37113   37116   37115   37113   37116
   37119   37117   37118   37118   37117   37120   37119   37117   37120
   37123   37121   37122   37122   37121   37124   37123   37121   37124
   37127   37125   37126   37126   37125   37128   37127   37125   37128
   37131   37129   37130   37130   37129   37132   37131   37129   37132
   37135   37133   37134   37134   37133   37136   37135   37133   37136
   37139   37137   37138   37138   37137   37140   37139   37137   37140
   37143   37141   37142   37142   37141   37144   37143   37141   37144
   37147   37145   37146   37146   37145   37148   37147   37145   37148
   37151   37149   37150   37150   37149   37152   37151   37149   37152
   37155   37153   37154   37154   37153   37156   37155   37153   37156
   37159   37157   37158   37158   37157   37160   37159   37157   37160
   37163   37161   37162   37162   37161   37164   37163   37161   37164
   37167   37165   37166   37166   37165   37168   37167   37165   37168
   37171   37169   37170   37170   37169   37172   37171   37169   37172
   37175   37173   37174   37174   37173   37176   37175   37173   37176
   37179   37177   37178   37178   37177   37180   37179   37177   37180
   37183   37181   37182   37182   37181   37184   37183   37181   37184
   37187   37185   37186   37186   37185   37188   37187   37185   37188
   37191   37189   37190   37190   37189   37192   37191   37189   37192
   37195   37193   37194   37194   37193   37196   37195   37193   37196
   37199   37197   37198   37198   37197   37200   37199   37197   37200
   37203   37201   37202   37202   37201   37204   37203   37201   37204
   37207   37205   37206   37206   37205   37208   37207   37205   37208
   37211   37209   37210   37210   37209   37212   37211   37209   37212
   37215   37213   37214   37214   37213   37216   37215   37213   37216
   37219   37217   37218   37218   37217   37220   37219   37217   37220
   37223   37221   37222   37222   37221   37224   37223   37221   37224
   37227   37225   37226   37226   37225   37228   37227   37225   37228
   37231   37229   37230   37230   37229   37232   37231   37229   37232
   37235   37233   37234   37234   37233   37236   37235   37233   37236
   37239   37237   37238   37238   37237   37240   37239   37237   37240
   37243   37241   37242   37242   37241   37244   37243   37241   37244
   37247   37245   37246   37246   37245   37248   37247   37245   37248
   37251   37249   37250   37250   37249   37252   37251   37249   37252
   37255   37253   37254   37254   37253   37256   37255   37253   37256
   37259   37257   37258   37258   37257   37260   37259   37257   37260
   37263   37261   37262   37262   37261   37264   37263   37261   37264
   37267   37265   37266   37266   37265   37268   37267   37265   37268
   37271   37269   37270   37270   37269   37272   37271   37269   37272
   37275   37273   37274   37274   37273   37276   37275   37273   37276
   37279   37277   37278   37278   37277   37280   37279   37277   37280
   37283   37281   37282   37282   37281   37284   37283   37281   37284
   37287   37285   37286   37286   37285   37288   37287   37285   37288
   37291   37289   37290   37290   37289   37292   37291   37289   37292
   37295   37293   37294   37294   37293   37296   37295   37293   37296
   37299   37297   37298   37298   37297   37300   37299   37297   37300
   37303   37301   37302   37302   37301   37304   37303   37301   37304
   37307   37305   37306   37306   37305   37308   37307   37305   37308
   37311   37309   37310   37310   37309   37312   37311   37309   37312
   37315   37313   37314   37314   37313   37316   37315   37313   37316
   37319   37317   37318   37318   37317   37320   37319   37317   37320
   37323   37321   37322   37322   37321   37324   37323   37321   37324
   37327   37325   37326   37326   37325   37328   37327   37325   37328
   37331   37329   37330   37330   37329   37332   37331   37329   37332
   37335   37333   37334   37334   37333   37336   37335   37333   37336
   37339   37337   37338   37338   37337   37340   37339   37337   37340
   37343   37341   37342   37342   37341   37344   37343   37341   37344
   37347   37345   37346   37346   37345   37348   37347   37345   37348
   37351   37349   37350   37350   37349   37352   37351   37349   37352
   37355   37353   37354   37354   37353   37356   37355   37353   37356
   37359   37357   37358   37358   37357   37360   37359   37357   37360
   37363   37361   37362   37362   37361   37364   37363   37361   37364
   37367   37365   37366   37366   37365   37368   37367   37365   37368
   37371   37369   37370   37370   37369   37372   37371   37369   37372
   37375   37373   37374   37374   37373   37376   37375   37373   37376
   37379   37377   37378   37378   37377   37380   37379   37377   37380
   37383   37381   37382   37382   37381   37384   37383   37381   37384
   37387   37385   37386   37386   37385   37388   37387   37385   37388
   37391   37389   37390   37390   37389   37392   37391   37389   37392
   37395   37393   37394   37394   37393   37396   37395   37393   37396
   37399   37397   37398   37398   37397   37400   37399   37397   37400
   37403   37401   37402   37402   37401   37404   37403   37401   37404
   37407   37405   37406   37406   37405   37408   37407   37405   37408
   37411   37409   37410   37410   37409   37412   37411   37409   37412
   37415   37413   37414   37414   37413   37416   37415   37413   37416
   37419   37417   37418   37418   37417   37420   37419   37417   37420
   37423   37421   37422   37422   37421   37424   37423   37421   37424
   37427   37425   37426   37426   37425   37428   37427   37425   37428
   37431   37429   37430   37430   37429   37432   37431   37429   37432
   37435   37433   37434   37434   37433   37436   37435   37433   37436
   37439   37437   37438   37438   37437   37440   37439   37437   37440
   37443   37441   37442   37442   37441   37444   37443   37441   37444
   37447   37445   37446   37446   37445   37448   37447   37445   37448
   37451   37449   37450   37450   37449   37452   37451   37449   37452
   37455   37453   37454   37454   37453   37456   37455   37453   37456
   37459   37457   37458   37458   37457   37460   37459   37457   37460
   37463   37461   37462   37462   37461   37464   37463   37461   37464
   37467   37465   37466   37466   37465   37468   37467   37465   37468
   37471   37469   37470   37470   37469   37472   37471   37469   37472
   37475   37473   37474   37474   37473   37476   37475   37473   37476
   37479   37477   37478   37478   37477   37480   37479   37477   37480
   37483   37481   37482   37482   37481   37484   37483   37481   37484
   37487   37485   37486   37486   37485   37488   37487   37485   37488
   37491   37489   37490   37490   37489   37492   37491   37489   37492
   37495   37493   37494   37494   37493   37496   37495   37493   37496
   37499   37497   37498   37498   37497   37500   37499   37497   37500
   37503   37501   37502   37502   37501   37504   37503   37501   37504
   37507   37505   37506   37506   37505   37508   37507   37505   37508
   37511   37509   37510   37510   37509   37512   37511   37509   37512
   37515   37513   37514   37514   37513   37516   37515   37513   37516
   37519   37517   37518   37518   37517   37520   37519   37517   37520
   37523   37521   37522   37522   37521   37524   37523   37521   37524
   37527   37525   37526   37526   37525   37528   37527   37525   37528
   37531   37529   37530   37530   37529   37532   37531   37529   37532
   37535   37533   37534   37534   37533   37536   37535   37533   37536
   37539   37537   37538   37538   37537   37540   37539   37537   37540
   37543   37541   37542   37542   37541   37544   37543   37541   37544
   37547   37545   37546   37546   37545   37548   37547   37545   37548
   37551   37549   37550   37550   37549   37552   37551   37549   37552
   37555   37553   37554   37554   37553   37556   37555   37553   37556
   37559   37557   37558   37558   37557   37560   37559   37557   37560
   37563   37561   37562   37562   37561   37564   37563   37561   37564
   37567   37565   37566   37566   37565   37568   37567   37565   37568
   37571   37569   37570   37570   37569   37572   37571   37569   37572
   37575   37573   37574   37574   37573   37576   37575   37573   37576
   37579   37577   37578   37578   37577   37580   37579   37577   37580
   37583   37581   37582   37582   37581   37584   37583   37581   37584
   37587   37585   37586   37586   37585   37588   37587   37585   37588
   37591   37589   37590   37590   37589   37592   37591   37589   37592
   37595   37593   37594   37594   37593   37596   37595   37593   37596
   37599   37597   37598   37598   37597   37600   37599   37597   37600
   37603   37601   37602   37602   37601   37604   37603   37601   37604
   37607   37605   37606   37606   37605   37608   37607   37605   37608
   37611   37609   37610   37610   37609   37612   37611   37609   37612
   37615   37613   37614   37614   37613   37616   37615   37613   37616
   37619   37617   37618   37618   37617   37620   37619   37617   37620
   37623   37621   37622   37622   37621   37624   37623   37621   37624
   37627   37625   37626   37626   37625   37628   37627   37625   37628
   37631   37629   37630   37630   37629   37632   37631   37629   37632
   37635   37633   37634   37634   37633   37636   37635   37633   37636
   37639   37637   37638   37638   37637   37640   37639   37637   37640
   37643   37641   37642   37642   37641   37644   37643   37641   37644
   37647   37645   37646   37646   37645   37648   37647   37645   37648
   37651   37649   37650   37650   37649   37652   37651   37649   37652
   37655   37653   37654   37654   37653   37656   37655   37653   37656
   37659   37657   37658   37658   37657   37660   37659   37657   37660
   37663   37661   37662   37662   37661   37664   37663   37661   37664
   37667   37665   37666   37666   37665   37668   37667   37665   37668
   37671   37669   37670   37670   37669   37672   37671   37669   37672
   37675   37673   37674   37674   37673   37676   37675   37673   37676
   37679   37677   37678   37678   37677   37680   37679   37677   37680
   37683   37681   37682   37682   37681   37684   37683   37681   37684
   37687   37685   37686   37686   37685   37688   37687   37685   37688
   37691   37689   37690   37690   37689   37692   37691   37689   37692
   37695   37693   37694   37694   37693   37696   37695   37693   37696
   37699   37697   37698   37698   37697   37700   37699   37697   37700
   37703   37701   37702   37702   37701   37704   37703   37701   37704
   37707   37705   37706   37706   37705   37708   37707   37705   37708
   37711   37709   37710   37710   37709   37712   37711   37709   37712
   37715   37713   37714   37714   37713   37716   37715   37713   37716
   37719   37717   37718   37718   37717   37720   37719   37717   37720
   37723   37721   37722   37722   37721   37724   37723   37721   37724
   37727   37725   37726   37726   37725   37728   37727   37725   37728
   37731   37729   37730   37730   37729   37732   37731   37729   37732
   37735   37733   37734   37734   37733   37736   37735   37733   37736
   37739   37737   37738   37738   37737   37740   37739   37737   37740
   37743   37741   37742   37742   37741   37744   37743   37741   37744
   37747   37745   37746   37746   37745   37748   37747   37745   37748
   37751   37749   37750   37750   37749   37752   37751   37749   37752
   37755   37753   37754   37754   37753   37756   37755   37753   37756
   37759   37757   37758   37758   37757   37760   37759   37757   37760
   37763   37761   37762   37762   37761   37764   37763   37761   37764
   37767   37765   37766   37766   37765   37768   37767   37765   37768
   37771   37769   37770   37770   37769   37772   37771   37769   37772
   37775   37773   37774   37774   37773   37776   37775   37773   37776
   37779   37777   37778   37778   37777   37780   37779   37777   37780
   37783   37781   37782   37782   37781   37784   37783   37781   37784
   37787   37785   37786   37786   37785   37788   37787   37785   37788
   37791   37789   37790   37790   37789   37792   37791   37789   37792
   37795   37793   37794   37794   37793   37796   37795   37793   37796
   37799   37797   37798   37798   37797   37800   37799   37797   37800
   37803   37801   37802   37802   37801   37804   37803   37801   37804
   37807   37805   37806   37806   37805   37808   37807   37805   37808
   37811   37809   37810   37810   37809   37812   37811   37809   37812
   37815   37813   37814   37814   37813   37816   37815   37813   37816
   37819   37817   37818   37818   37817   37820   37819   37817   37820
   37823   37821   37822   37822   37821   37824   37823   37821   37824
   37827   37825   37826   37826   37825   37828   37827   37825   37828
   37831   37829   37830   37830   37829   37832   37831   37829   37832
   37835   37833   37834   37834   37833   37836   37835   37833   37836
   37839   37837   37838   37838   37837   37840   37839   37837   37840
   37843   37841   37842   37842   37841   37844   37843   37841   37844
   37847   37845   37846   37846   37845   37848   37847   37845   37848
   37851   37849   37850   37850   37849   37852   37851   37849   37852
   37855   37853   37854   37854   37853   37856   37855   37853   37856
   37859   37857   37858   37858   37857   37860   37859   37857   37860
   37863   37861   37862   37862   37861   37864   37863   37861   37864
   37867   37865   37866   37866   37865   37868   37867   37865   37868
   37871   37869   37870   37870   37869   37872   37871   37869   37872
   37875   37873   37874   37874   37873   37876   37875   37873   37876
   37879   37877   37878   37878   37877   37880   37879   37877   37880
   37883   37881   37882   37882   37881   37884   37883   37881   37884
   37887   37885   37886   37886   37885   37888   37887   37885   37888
   37891   37889   37890   37890   37889   37892   37891   37889   37892
   37895   37893   37894   37894   37893   37896   37895   37893   37896
   37899   37897   37898   37898   37897   37900   37899   37897   37900
   37903   37901   37902   37902   37901   37904   37903   37901   37904
   37907   37905   37906   37906   37905   37908   37907   37905   37908
   37911   37909   37910   37910   37909   37912   37911   37909   37912
   37915   37913   37914   37914   37913   37916   37915   37913   37916
   37919   37917   37918   37918   37917   37920   37919   37917   37920
   37923   37921   37922   37922   37921   37924   37923   37921   37924
   37927   37925   37926   37926   37925   37928   37927   37925   37928
   37931   37929   37930   37930   37929   37932   37931   37929   37932
   37935   37933   37934   37934   37933   37936   37935   37933   37936
   37939   37937   37938   37938   37937   37940   37939   37937   37940
   37943   37941   37942   37942   37941   37944   37943   37941   37944
   37947   37945   37946   37946   37945   37948   37947   37945   37948
   37951   37949   37950   37950   37949   37952   37951   37949   37952
   37955   37953   37954   37954   37953   37956   37955   37953   37956
   37959   37957   37958   37958   37957   37960   37959   37957   37960
   37963   37961   37962   37962   37961   37964   37963   37961   37964
   37967   37965   37966   37966   37965   37968   37967   37965   37968
   37971   37969   37970   37970   37969   37972   37971   37969   37972
   37975   37973   37974   37974   37973   37976   37975   37973   37976
   37979   37977   37978   37978   37977   37980   37979   37977   37980
   37983   37981   37982   37982   37981   37984   37983   37981   37984
   37987   37985   37986   37986   37985   37988   37987   37985   37988
   37991   37989   37990   37990   37989   37992   37991   37989   37992
   37995   37993   37994   37994   37993   37996   37995   37993   37996
   37999   37997   37998   37998   37997   38000   37999   37997   38000
   38003   38001   38002   38002   38001   38004   38003   38001   38004
   38007   38005   38006   38006   38005   38008   38007   38005   38008
   38011   38009   38010   38010   38009   38012   38011   38009   38012
   38015   38013   38014   38014   38013   38016   38015   38013   38016
   38019   38017   38018   38018   38017   38020   38019   38017   38020
   38023   38021   38022   38022   38021   38024   38023   38021   38024
   38027   38025   38026   38026   38025   38028   38027   38025   38028
   38031   38029   38030   38030   38029   38032   38031   38029   38032
   38035   38033   38034   38034   38033   38036   38035   38033   38036
   38039   38037   38038   38038   38037   38040   38039   38037   38040
   38043   38041   38042   38042   38041   38044   38043   38041   38044
   38047   38045   38046   38046   38045   38048   38047   38045   38048
   38051   38049   38050   38050   38049   38052   38051   38049   38052
   38055   38053   38054   38054   38053   38056   38055   38053   38056
   38059   38057   38058   38058   38057   38060   38059   38057   38060
   38063   38061   38062   38062   38061   38064   38063   38061   38064
   38067   38065   38066   38066   38065   38068   38067   38065   38068
   38071   38069   38070   38070   38069   38072   38071   38069   38072
   38075   38073   38074   38074   38073   38076   38075   38073   38076
   38079   38077   38078   38078   38077   38080   38079   38077   38080
   38083   38081   38082   38082   38081   38084   38083   38081   38084
   38087   38085   38086   38086   38085   38088   38087   38085   38088
   38091   38089   38090   38090   38089   38092   38091   38089   38092
   38095   38093   38094   38094   38093   38096   38095   38093   38096
   38099   38097   38098   38098   38097   38100   38099   38097   38100
   38103   38101   38102   38102   38101   38104   38103   38101   38104
   38107   38105   38106   38106   38105   38108   38107   38105   38108
   38111   38109   38110   38110   38109   38112   38111   38109   38112
   38115   38113   38114   38114   38113   38116   38115   38113   38116
   38119   38117   38118   38118   38117   38120   38119   38117   38120
   38123   38121   38122   38122   38121   38124   38123   38121   38124
   38127   38125   38126   38126   38125   38128   38127   38125   38128
   38131   38129   38130   38130   38129   38132   38131   38129   38132
   38135   38133   38134   38134   38133   38136   38135   38133   38136
   38139   38137   38138   38138   38137   38140   38139   38137   38140
   38143   38141   38142   38142   38141   38144   38143   38141   38144
   38147   38145   38146   38146   38145   38148   38147   38145   38148
   38151   38149   38150   38150   38149   38152   38151   38149   38152
   38155   38153   38154   38154   38153   38156   38155   38153   38156
   38159   38157   38158   38158   38157   38160   38159   38157   38160
   38163   38161   38162   38162   38161   38164   38163   38161   38164
   38167   38165   38166   38166   38165   38168   38167   38165   38168
   38171   38169   38170   38170   38169   38172   38171   38169   38172
   38175   38173   38174   38174   38173   38176   38175   38173   38176
   38179   38177   38178   38178   38177   38180   38179   38177   38180
   38183   38181   38182   38182   38181   38184   38183   38181   38184
   38187   38185   38186   38186   38185   38188   38187   38185   38188
   38191   38189   38190   38190   38189   38192   38191   38189   38192
   38195   38193   38194   38194   38193   38196   38195   38193   38196
   38199   38197   38198   38198   38197   38200   38199   38197   38200
   38203   38201   38202   38202   38201   38204   38203   38201   38204
   38207   38205   38206   38206   38205   38208   38207   38205   38208
   38211   38209   38210   38210   38209   38212   38211   38209   38212
   38215   38213   38214   38214   38213   38216   38215   38213   38216
   38219   38217   38218   38218   38217   38220   38219   38217   38220
   38223   38221   38222   38222   38221   38224   38223   38221   38224
   38227   38225   38226   38226   38225   38228   38227   38225   38228
   38231   38229   38230   38230   38229   38232   38231   38229   38232
   38235   38233   38234   38234   38233   38236   38235   38233   38236
   38239   38237   38238   38238   38237   38240   38239   38237   38240
   38243   38241   38242   38242   38241   38244   38243   38241   38244
   38247   38245   38246   38246   38245   38248   38247   38245   38248
   38251   38249   38250   38250   38249   38252   38251   38249   38252
   38255   38253   38254   38254   38253   38256   38255   38253   38256
   38259   38257   38258   38258   38257   38260   38259   38257   38260
   38263   38261   38262   38262   38261   38264   38263   38261   38264
   38267   38265   38266   38266   38265   38268   38267   38265   38268
   38271   38269   38270   38270   38269   38272   38271   38269   38272
   38275   38273   38274   38274   38273   38276   38275   38273   38276
   38279   38277   38278   38278   38277   38280   38279   38277   38280
   38283   38281   38282   38282   38281   38284   38283   38281   38284
   38287   38285   38286   38286   38285   38288   38287   38285   38288
   38291   38289   38290   38290   38289   38292   38291   38289   38292
   38295   38293   38294   38294   38293   38296   38295   38293   38296
   38299   38297   38298   38298   38297   38300   38299   38297   38300
   38303   38301   38302   38302   38301   38304   38303   38301   38304
   38307   38305   38306   38306   38305   38308   38307   38305   38308
   38311   38309   38310   38310   38309   38312   38311   38309   38312
   38315   38313   38314   38314   38313   38316   38315   38313   38316
   38319   38317   38318   38318   38317   38320   38319   38317   38320
   38323   38321   38322   38322   38321   38324   38323   38321   38324
   38327   38325   38326   38326   38325   38328   38327   38325   38328
   38331   38329   38330   38330   38329   38332   38331   38329   38332
   38335   38333   38334   38334   38333   38336   38335   38333   38336
   38339   38337   38338   38338   38337   38340   38339   38337   38340
   38343   38341   38342   38342   38341   38344   38343   38341   38344
   38347   38345   38346   38346   38345   38348   38347   38345   38348
   38351   38349   38350   38350   38349   38352   38351   38349   38352
   38355   38353   38354   38354   38353   38356   38355   38353   38356
   38359   38357   38358   38358   38357   38360   38359   38357   38360
   38363   38361   38362   38362   38361   38364   38363   38361   38364
   38367   38365   38366   38366   38365   38368   38367   38365   38368
   38371   38369   38370   38370   38369   38372   38371   38369   38372
   38375   38373   38374   38374   38373   38376   38375   38373   38376
   38379   38377   38378   38378   38377   38380   38379   38377   38380
   38383   38381   38382   38382   38381   38384   38383   38381   38384
   38387   38385   38386   38386   38385   38388   38387   38385   38388
   38391   38389   38390   38390   38389   38392   38391   38389   38392
   38395   38393   38394   38394   38393   38396   38395   38393   38396
   38399   38397   38398   38398   38397   38400   38399   38397   38400
   38403   38401   38402   38402   38401   38404   38403   38401   38404
   38407   38405   38406   38406   38405   38408   38407   38405   38408
   38411   38409   38410   38410   38409   38412   38411   38409   38412
   38415   38413   38414   38414   38413   38416   38415   38413   38416
   38419   38417   38418   38418   38417   38420   38419   38417   38420
   38423   38421   38422   38422   38421   38424   38423   38421   38424
   38427   38425   38426   38426   38425   38428   38427   38425   38428
   38431   38429   38430   38430   38429   38432   38431   38429   38432
   38435   38433   38434   38434   38433   38436   38435   38433   38436
   38439   38437   38438   38438   38437   38440   38439   38437   38440
   38443   38441   38442   38442   38441   38444   38443   38441   38444
   38447   38445   38446   38446   38445   38448   38447   38445   38448
   38451   38449   38450   38450   38449   38452   38451   38449   38452
   38455   38453   38454   38454   38453   38456   38455   38453   38456
   38459   38457   38458   38458   38457   38460   38459   38457   38460
   38463   38461   38462   38462   38461   38464   38463   38461   38464
   38467   38465   38466   38466   38465   38468   38467   38465   38468
   38471   38469   38470   38470   38469   38472   38471   38469   38472
   38475   38473   38474   38474   38473   38476   38475   38473   38476
   38479   38477   38478   38478   38477   38480   38479   38477   38480
   38483   38481   38482   38482   38481   38484   38483   38481   38484
   38487   38485   38486   38486   38485   38488   38487   38485   38488
   38491   38489   38490   38490   38489   38492   38491   38489   38492
   38495   38493   38494   38494   38493   38496   38495   38493   38496
   38499   38497   38498   38498   38497   38500   38499   38497   38500
   38503   38501   38502   38502   38501   38504   38503   38501   38504
   38507   38505   38506   38506   38505   38508   38507   38505   38508
   38511   38509   38510   38510   38509   38512   38511   38509   38512
   38515   38513   38514   38514   38513   38516   38515   38513   38516
   38519   38517   38518   38518   38517   38520   38519   38517   38520
   38523   38521   38522   38522   38521   38524   38523   38521   38524
   38527   38525   38526   38526   38525   38528   38527   38525   38528
   38531   38529   38530   38530   38529   38532   38531   38529   38532
   38535   38533   38534   38534   38533   38536   38535   38533   38536
   38539   38537   38538   38538   38537   38540   38539   38537   38540
   38543   38541   38542   38542   38541   38544   38543   38541   38544
   38547   38545   38546   38546   38545   38548   38547   38545   38548
   38551   38549   38550   38550   38549   38552   38551   38549   38552
   38555   38553   38554   38554   38553   38556   38555   38553   38556
   38559   38557   38558   38558   38557   38560   38559   38557   38560
   38563   38561   38562   38562   38561   38564   38563   38561   38564
   38567   38565   38566   38566   38565   38568   38567   38565   38568
   38571   38569   38570   38570   38569   38572   38571   38569   38572
   38575   38573   38574   38574   38573   38576   38575   38573   38576
   38579   38577   38578   38578   38577   38580   38579   38577   38580
   38583   38581   38582   38582   38581   38584   38583   38581   38584
   38587   38585   38586   38586   38585   38588   38587   38585   38588
   38591   38589   38590   38590   38589   38592   38591   38589   38592
   38595   38593   38594   38594   38593   38596   38595   38593   38596
   38599   38597   38598   38598   38597   38600   38599   38597   38600
   38603   38601   38602   38602   38601   38604   38603   38601   38604
   38607   38605   38606   38606   38605   38608   38607   38605   38608
   38611   38609   38610   38610   38609   38612   38611   38609   38612
   38615   38613   38614   38614   38613   38616   38615   38613   38616
   38619   38617   38618   38618   38617   38620   38619   38617   38620
   38623   38621   38622   38622   38621   38624   38623   38621   38624
   38627   38625   38626   38626   38625   38628   38627   38625   38628
   38631   38629   38630   38630   38629   38632   38631   38629   38632
   38635   38633   38634   38634   38633   38636   38635   38633   38636
   38639   38637   38638   38638   38637   38640   38639   38637   38640
   38643   38641   38642   38642   38641   38644   38643   38641   38644
   38647   38645   38646   38646   38645   38648   38647   38645   38648
   38651   38649   38650   38650   38649   38652   38651   38649   38652
   38655   38653   38654   38654   38653   38656   38655   38653   38656
   38659   38657   38658   38658   38657   38660   38659   38657   38660
   38663   38661   38662   38662   38661   38664   38663   38661   38664
   38667   38665   38666   38666   38665   38668   38667   38665   38668
   38671   38669   38670   38670   38669   38672   38671   38669   38672
   38675   38673   38674   38674   38673   38676   38675   38673   38676
   38679   38677   38678   38678   38677   38680   38679   38677   38680
   38683   38681   38682   38682   38681   38684   38683   38681   38684
   38687   38685   38686   38686   38685   38688   38687   38685   38688
   38691   38689   38690   38690   38689   38692   38691   38689   38692
   38695   38693   38694   38694   38693   38696   38695   38693   38696
   38699   38697   38698   38698   38697   38700   38699   38697   38700
   38703   38701   38702   38702   38701   38704   38703   38701   38704
   38707   38705   38706   38706   38705   38708   38707   38705   38708
   38711   38709   38710   38710   38709   38712   38711   38709   38712
   38715   38713   38714   38714   38713   38716   38715   38713   38716
   38719   38717   38718   38718   38717   38720   38719   38717   38720
   38723   38721   38722   38722   38721   38724   38723   38721   38724
   38727   38725   38726   38726   38725   38728   38727   38725   38728
   38731   38729   38730   38730   38729   38732   38731   38729   38732
   38735   38733   38734   38734   38733   38736   38735   38733   38736
   38739   38737   38738   38738   38737   38740   38739   38737   38740
   38743   38741   38742   38742   38741   38744   38743   38741   38744
   38747   38745   38746   38746   38745   38748   38747   38745   38748
   38751   38749   38750   38750   38749   38752   38751   38749   38752
   38755   38753   38754   38754   38753   38756   38755   38753   38756
   38759   38757   38758   38758   38757   38760   38759   38757   38760
   38763   38761   38762   38762   38761   38764   38763   38761   38764
   38767   38765   38766   38766   38765   38768   38767   38765   38768
   38771   38769   38770   38770   38769   38772   38771   38769   38772
   38775   38773   38774   38774   38773   38776   38775   38773   38776
   38779   38777   38778   38778   38777   38780   38779   38777   38780
   38783   38781   38782   38782   38781   38784   38783   38781   38784
   38787   38785   38786   38786   38785   38788   38787   38785   38788
   38791   38789   38790   38790   38789   38792   38791   38789   38792
   38795   38793   38794   38794   38793   38796   38795   38793   38796
   38799   38797   38798   38798   38797   38800   38799   38797   38800
   38803   38801   38802   38802   38801   38804   38803   38801   38804
   38807   38805   38806   38806   38805   38808   38807   38805   38808
   38811   38809   38810   38810   38809   38812   38811   38809   38812
   38815   38813   38814   38814   38813   38816   38815   38813   38816
   38819   38817   38818   38818   38817   38820   38819   38817   38820
   38823   38821   38822   38822   38821   38824   38823   38821   38824
   38827   38825   38826   38826   38825   38828   38827   38825   38828
   38831   38829   38830   38830   38829   38832   38831   38829   38832
   38835   38833   38834   38834   38833   38836   38835   38833   38836
   38839   38837   38838   38838   38837   38840   38839   38837   38840
   38843   38841   38842   38842   38841   38844   38843   38841   38844
   38847   38845   38846   38846   38845   38848   38847   38845   38848
   38851   38849   38850   38850   38849   38852   38851   38849   38852
   38855   38853   38854   38854   38853   38856   38855   38853   38856
   38859   38857   38858   38858   38857   38860   38859   38857   38860
   38863   38861   38862   38862   38861   38864   38863   38861   38864
   38867   38865   38866   38866   38865   38868   38867   38865   38868
   38871   38869   38870   38870   38869   38872   38871   38869   38872
   38875   38873   38874   38874   38873   38876   38875   38873   38876
   38879   38877   38878   38878   38877   38880   38879   38877   38880
   38883   38881   38882   38882   38881   38884   38883   38881   38884
   38887   38885   38886   38886   38885   38888   38887   38885   38888
   38891   38889   38890   38890   38889   38892   38891   38889   38892
   38895   38893   38894   38894   38893   38896   38895   38893   38896
   38899   38897   38898   38898   38897   38900   38899   38897   38900
   38903   38901   38902   38902   38901   38904   38903   38901   38904
   38907   38905   38906   38906   38905   38908   38907   38905   38908
   38911   38909   38910   38910   38909   38912   38911   38909   38912
   38915   38913   38914   38914   38913   38916   38915   38913   38916
   38919   38917   38918   38918   38917   38920   38919   38917   38920
   38923   38921   38922   38922   38921   38924   38923   38921   38924
   38927   38925   38926   38926   38925   38928   38927   38925   38928
   38931   38929   38930   38930   38929   38932   38931   38929   38932
   38935   38933   38934   38934   38933   38936   38935   38933   38936
   38939   38937   38938   38938   38937   38940   38939   38937   38940
   38943   38941   38942   38942   38941   38944   38943   38941   38944
   38947   38945   38946   38946   38945   38948   38947   38945   38948
   38951   38949   38950   38950   38949   38952   38951   38949   38952
   38955   38953   38954   38954   38953   38956   38955   38953   38956
   38959   38957   38958   38958   38957   38960   38959   38957   38960
   38963   38961   38962   38962   38961   38964   38963   38961   38964
   38967   38965   38966   38966   38965   38968   38967   38965   38968
   38971   38969   38970   38970   38969   38972   38971   38969   38972
   38975   38973   38974   38974   38973   38976   38975   38973   38976
   38979   38977   38978   38978   38977   38980   38979   38977   38980
   38983   38981   38982   38982   38981   38984   38983   38981   38984
   38987   38985   38986   38986   38985   38988   38987   38985   38988
   38991   38989   38990   38990   38989   38992   38991   38989   38992
   38995   38993   38994   38994   38993   38996   38995   38993   38996
   38999   38997   38998   38998   38997   39000   38999   38997   39000
   39003   39001   39002   39002   39001   39004   39003   39001   39004
   39007   39005   39006   39006   39005   39008   39007   39005   39008
   39011   39009   39010   39010   39009   39012   39011   39009   39012
   39015   39013   39014   39014   39013   39016   39015   39013   39016
   39019   39017   39018   39018   39017   39020   39019   39017   39020
   39023   39021   39022   39022   39021   39024   39023   39021   39024
   39027   39025   39026   39026   39025   39028   39027   39025   39028
   39031   39029   39030   39030   39029   39032   39031   39029   39032
   39035   39033   39034   39034   39033   39036   39035   39033   39036
   39039   39037   39038   39038   39037   39040   39039   39037   39040
   39043   39041   39042   39042   39041   39044   39043   39041   39044
   39047   39045   39046   39046   39045   39048   39047   39045   39048
   39051   39049   39050   39050   39049   39052   39051   39049   39052
   39055   39053   39054   39054   39053   39056   39055   39053   39056
   39059   39057   39058   39058   39057   39060   39059   39057   39060
   39063   39061   39062   39062   39061   39064   39063   39061   39064
   39067   39065   39066   39066   39065   39068   39067   39065   39068
   39071   39069   39070   39070   39069   39072   39071   39069   39072
   39075   39073   39074   39074   39073   39076   39075   39073   39076
   39079   39077   39078   39078   39077   39080   39079   39077   39080
   39083   39081   39082   39082   39081   39084   39083   39081   39084
   39087   39085   39086   39086   39085   39088   39087   39085   39088
   39091   39089   39090   39090   39089   39092   39091   39089   39092
   39095   39093   39094   39094   39093   39096   39095   39093   39096
   39099   39097   39098   39098   39097   39100   39099   39097   39100
   39103   39101   39102   39102   39101   39104   39103   39101   39104
   39107   39105   39106   39106   39105   39108   39107   39105   39108
   39111   39109   39110   39110   39109   39112   39111   39109   39112
   39115   39113   39114   39114   39113   39116   39115   39113   39116
   39119   39117   39118   39118   39117   39120   39119   39117   39120
   39123   39121   39122   39122   39121   39124   39123   39121   39124
   39127   39125   39126   39126   39125   39128   39127   39125   39128
   39131   39129   39130   39130   39129   39132   39131   39129   39132
   39135   39133   39134   39134   39133   39136   39135   39133   39136
   39139   39137   39138   39138   39137   39140   39139   39137   39140
   39143   39141   39142   39142   39141   39144   39143   39141   39144
   39147   39145   39146   39146   39145   39148   39147   39145   39148
   39151   39149   39150   39150   39149   39152   39151   39149   39152
   39155   39153   39154   39154   39153   39156   39155   39153   39156
   39159   39157   39158   39158   39157   39160   39159   39157   39160
   39163   39161   39162   39162   39161   39164   39163   39161   39164
   39167   39165   39166   39166   39165   39168   39167   39165   39168
   39171   39169   39170   39170   39169   39172   39171   39169   39172
   39175   39173   39174   39174   39173   39176   39175   39173   39176
   39179   39177   39178   39178   39177   39180   39179   39177   39180
   39183   39181   39182   39182   39181   39184   39183   39181   39184
   39187   39185   39186   39186   39185   39188   39187   39185   39188
   39191   39189   39190   39190   39189   39192   39191   39189   39192
   39195   39193   39194   39194   39193   39196   39195   39193   39196
   39199   39197   39198   39198   39197   39200   39199   39197   39200
   39203   39201   39202   39202   39201   39204   39203   39201   39204
   39207   39205   39206   39206   39205   39208   39207   39205   39208
   39211   39209   39210   39210   39209   39212   39211   39209   39212
   39215   39213   39214   39214   39213   39216   39215   39213   39216
   39219   39217   39218   39218   39217   39220   39219   39217   39220
   39223   39221   39222   39222   39221   39224   39223   39221   39224
   39227   39225   39226   39226   39225   39228   39227   39225   39228
   39231   39229   39230   39230   39229   39232   39231   39229   39232
   39235   39233   39234   39234   39233   39236   39235   39233   39236
   39239   39237   39238   39238   39237   39240   39239   39237   39240
   39243   39241   39242   39242   39241   39244   39243   39241   39244
   39247   39245   39246   39246   39245   39248   39247   39245   39248
   39251   39249   39250   39250   39249   39252   39251   39249   39252
   39255   39253   39254   39254   39253   39256   39255   39253   39256
   39259   39257   39258   39258   39257   39260   39259   39257   39260
   39263   39261   39262   39262   39261   39264   39263   39261   39264
   39267   39265   39266   39266   39265   39268   39267   39265   39268
   39271   39269   39270   39270   39269   39272   39271   39269   39272
   39275   39273   39274   39274   39273   39276   39275   39273   39276
   39279   39277   39278   39278   39277   39280   39279   39277   39280
   39283   39281   39282   39282   39281   39284   39283   39281   39284
   39287   39285   39286   39286   39285   39288   39287   39285   39288
   39291   39289   39290   39290   39289   39292   39291   39289   39292
   39295   39293   39294   39294   39293   39296   39295   39293   39296
   39299   39297   39298   39298   39297   39300   39299   39297   39300
   39303   39301   39302   39302   39301   39304   39303   39301   39304
   39307   39305   39306   39306   39305   39308   39307   39305   39308
   39311   39309   39310   39310   39309   39312   39311   39309   39312
   39315   39313   39314   39314   39313   39316   39315   39313   39316
   39319   39317   39318   39318   39317   39320   39319   39317   39320
   39323   39321   39322   39322   39321   39324   39323   39321   39324
   39327   39325   39326   39326   39325   39328   39327   39325   39328
   39331   39329   39330   39330   39329   39332   39331   39329   39332
   39335   39333   39334   39334   39333   39336   39335   39333   39336
   39339   39337   39338   39338   39337   39340   39339   39337   39340
   39343   39341   39342   39342   39341   39344   39343   39341   39344
   39347   39345   39346   39346   39345   39348   39347   39345   39348
   39351   39349   39350   39350   39349   39352   39351   39349   39352
   39355   39353   39354   39354   39353   39356   39355   39353   39356
   39359   39357   39358   39358   39357   39360   39359   39357   39360
   39363   39361   39362   39362   39361   39364   39363   39361   39364
   39367   39365   39366   39366   39365   39368   39367   39365   39368
   39371   39369   39370   39370   39369   39372   39371   39369   39372
   39375   39373   39374   39374   39373   39376   39375   39373   39376
   39379   39377   39378   39378   39377   39380   39379   39377   39380
   39383   39381   39382   39382   39381   39384   39383   39381   39384
   39387   39385   39386   39386   39385   39388   39387   39385   39388
   39391   39389   39390   39390   39389   39392   39391   39389   39392
   39395   39393   39394   39394   39393   39396   39395   39393   39396
   39399   39397   39398   39398   39397   39400   39399   39397   39400
   39403   39401   39402   39402   39401   39404   39403   39401   39404
   39407   39405   39406   39406   39405   39408   39407   39405   39408
   39411   39409   39410   39410   39409   39412   39411   39409   39412
   39415   39413   39414   39414   39413   39416   39415   39413   39416
   39419   39417   39418   39418   39417   39420   39419   39417   39420
   39423   39421   39422   39422   39421   39424   39423   39421   39424
   39427   39425   39426   39426   39425   39428   39427   39425   39428
   39431   39429   39430   39430   39429   39432   39431   39429   39432
   39435   39433   39434   39434   39433   39436   39435   39433   39436
   39439   39437   39438   39438   39437   39440   39439   39437   39440
   39443   39441   39442   39442   39441   39444   39443   39441   39444
   39447   39445   39446   39446   39445   39448   39447   39445   39448
   39451   39449   39450   39450   39449   39452   39451   39449   39452
   39455   39453   39454   39454   39453   39456   39455   39453   39456
   39459   39457   39458   39458   39457   39460   39459   39457   39460
   39463   39461   39462   39462   39461   39464   39463   39461   39464
   39467   39465   39466   39466   39465   39468   39467   39465   39468
   39471   39469   39470   39470   39469   39472   39471   39469   39472
   39475   39473   39474   39474   39473   39476   39475   39473   39476
   39479   39477   39478   39478   39477   39480   39479   39477   39480
   39483   39481   39482   39482   39481   39484   39483   39481   39484
   39487   39485   39486   39486   39485   39488   39487   39485   39488
   39491   39489   39490   39490   39489   39492   39491   39489   39492
   39495   39493   39494   39494   39493   39496   39495   39493   39496
   39499   39497   39498   39498   39497   39500   39499   39497   39500
   39503   39501   39502   39502   39501   39504   39503   39501   39504
   39507   39505   39506   39506   39505   39508   39507   39505   39508
   39511   39509   39510   39510   39509   39512   39511   39509   39512
   39515   39513   39514   39514   39513   39516   39515   39513   39516
   39519   39517   39518   39518   39517   39520   39519   39517   39520
   39523   39521   39522   39522   39521   39524   39523   39521   39524
   39527   39525   39526   39526   39525   39528   39527   39525   39528
   39531   39529   39530   39530   39529   39532   39531   39529   39532
   39535   39533   39534   39534   39533   39536   39535   39533   39536
   39539   39537   39538   39538   39537   39540   39539   39537   39540
   39543   39541   39542   39542   39541   39544   39543   39541   39544
   39547   39545   39546   39546   39545   39548   39547   39545   39548
   39551   39549   39550   39550   39549   39552   39551   39549   39552
   39555   39553   39554   39554   39553   39556   39555   39553   39556
   39559   39557   39558   39558   39557   39560   39559   39557   39560
   39563   39561   39562   39562   39561   39564   39563   39561   39564
   39567   39565   39566   39566   39565   39568   39567   39565   39568
   39571   39569   39570   39570   39569   39572   39571   39569   39572
   39575   39573   39574   39574   39573   39576   39575   39573   39576
   39579   39577   39578   39578   39577   39580   39579   39577   39580
   39583   39581   39582   39582   39581   39584   39583   39581   39584
   39587   39585   39586   39586   39585   39588   39587   39585   39588
   39591   39589   39590   39590   39589   39592   39591   39589   39592
   39595   39593   39594   39594   39593   39596   39595   39593   39596
   39599   39597   39598   39598   39597   39600   39599   39597   39600
   39603   39601   39602   39602   39601   39604   39603   39601   39604
   39607   39605   39606   39606   39605   39608   39607   39605   39608
   39611   39609   39610   39610   39609   39612   39611   39609   39612
   39615   39613   39614   39614   39613   39616   39615   39613   39616
   39619   39617   39618   39618   39617   39620   39619   39617   39620
   39623   39621   39622   39622   39621   39624   39623   39621   39624
   39627   39625   39626   39626   39625   39628   39627   39625   39628
   39631   39629   39630   39630   39629   39632   39631   39629   39632
   39635   39633   39634   39634   39633   39636   39635   39633   39636
   39639   39637   39638   39638   39637   39640   39639   39637   39640
   39643   39641   39642   39642   39641   39644   39643   39641   39644
   39647   39645   39646   39646   39645   39648   39647   39645   39648
   39651   39649   39650   39650   39649   39652   39651   39649   39652
   39655   39653   39654   39654   39653   39656   39655   39653   39656
   39659   39657   39658   39658   39657   39660   39659   39657   39660
   39663   39661   39662   39662   39661   39664   39663   39661   39664
   39667   39665   39666   39666   39665   39668   39667   39665   39668
   39671   39669   39670   39670   39669   39672   39671   39669   39672
   39675   39673   39674   39674   39673   39676   39675   39673   39676
   39679   39677   39678   39678   39677   39680   39679   39677   39680
   39683   39681   39682   39682   39681   39684   39683   39681   39684
   39687   39685   39686   39686   39685   39688   39687   39685   39688
   39691   39689   39690   39690   39689   39692   39691   39689   39692
   39695   39693   39694   39694   39693   39696   39695   39693   39696
   39699   39697   39698   39698   39697   39700   39699   39697   39700
   39703   39701   39702   39702   39701   39704   39703   39701   39704
   39707   39705   39706   39706   39705   39708   39707   39705   39708
   39711   39709   39710   39710   39709   39712   39711   39709   39712
   39715   39713   39714   39714   39713   39716   39715   39713   39716
   39719   39717   39718   39718   39717   39720   39719   39717   39720
   39723   39721   39722   39722   39721   39724   39723   39721   39724
   39727   39725   39726   39726   39725   39728   39727   39725   39728
   39731   39729   39730   39730   39729   39732   39731   39729   39732
   39735   39733   39734   39734   39733   39736   39735   39733   39736
   39739   39737   39738   39738   39737   39740   39739   39737   39740
   39743   39741   39742   39742   39741   39744   39743   39741   39744
   39747   39745   39746   39746   39745   39748   39747   39745   39748
   39751   39749   39750   39750   39749   39752   39751   39749   39752
   39755   39753   39754   39754   39753   39756   39755   39753   39756
   39759   39757   39758   39758   39757   39760   39759   39757   39760
   39763   39761   39762   39762   39761   39764   39763   39761   39764
   39767   39765   39766   39766   39765   39768   39767   39765   39768
   39771   39769   39770   39770   39769   39772   39771   39769   39772
   39775   39773   39774   39774   39773   39776   39775   39773   39776
   39779   39777   39778   39778   39777   39780   39779   39777   39780
   39783   39781   39782   39782   39781   39784   39783   39781   39784
   39787   39785   39786   39786   39785   39788   39787   39785   39788
   39791   39789   39790   39790   39789   39792   39791   39789   39792
   39795   39793   39794   39794   39793   39796   39795   39793   39796
   39799   39797   39798   39798   39797   39800   39799   39797   39800
   39803   39801   39802   39802   39801   39804   39803   39801   39804
   39807   39805   39806   39806   39805   39808   39807   39805   39808
   39811   39809   39810   39810   39809   39812   39811   39809   39812
   39815   39813   39814   39814   39813   39816   39815   39813   39816
   39819   39817   39818   39818   39817   39820   39819   39817   39820
   39823   39821   39822   39822   39821   39824   39823   39821   39824
   39827   39825   39826   39826   39825   39828   39827   39825   39828
   39831   39829   39830   39830   39829   39832   39831   39829   39832
   39835   39833   39834   39834   39833   39836   39835   39833   39836
   39839   39837   39838   39838   39837   39840   39839   39837   39840
   39843   39841   39842   39842   39841   39844   39843   39841   39844
   39847   39845   39846   39846   39845   39848   39847   39845   39848
   39851   39849   39850   39850   39849   39852   39851   39849   39852
   39855   39853   39854   39854   39853   39856   39855   39853   39856
   39859   39857   39858   39858   39857   39860   39859   39857   39860
   39863   39861   39862   39862   39861   39864   39863   39861   39864
   39867   39865   39866   39866   39865   39868   39867   39865   39868
   39871   39869   39870   39870   39869   39872   39871   39869   39872
   39875   39873   39874   39874   39873   39876   39875   39873   39876
   39879   39877   39878   39878   39877   39880   39879   39877   39880
   39883   39881   39882   39882   39881   39884   39883   39881   39884
   39887   39885   39886   39886   39885   39888   39887   39885   39888
   39891   39889   39890   39890   39889   39892   39891   39889   39892
   39895   39893   39894   39894   39893   39896   39895   39893   39896
   39899   39897   39898   39898   39897   39900   39899   39897   39900
   39903   39901   39902   39902   39901   39904   39903   39901   39904
   39907   39905   39906   39906   39905   39908   39907   39905   39908
   39911   39909   39910   39910   39909   39912   39911   39909   39912
   39915   39913   39914   39914   39913   39916   39915   39913   39916
   39919   39917   39918   39918   39917   39920   39919   39917   39920
   39923   39921   39922   39922   39921   39924   39923   39921   39924
   39927   39925   39926   39926   39925   39928   39927   39925   39928
   39931   39929   39930   39930   39929   39932   39931   39929   39932
   39935   39933   39934   39934   39933   39936   39935   39933   39936
   39939   39937   39938   39938   39937   39940   39939   39937   39940
   39943   39941   39942   39942   39941   39944   39943   39941   39944
   39947   39945   39946   39946   39945   39948   39947   39945   39948
   39951   39949   39950   39950   39949   39952   39951   39949   39952
   39955   39953   39954   39954   39953   39956   39955   39953   39956
   39959   39957   39958   39958   39957   39960   39959   39957   39960
   39963   39961   39962   39962   39961   39964   39963   39961   39964
   39967   39965   39966   39966   39965   39968   39967   39965   39968
   39971   39969   39970   39970   39969   39972   39971   39969   39972
   39975   39973   39974   39974   39973   39976   39975   39973   39976
   39979   39977   39978   39978   39977   39980   39979   39977   39980
   39983   39981   39982   39982   39981   39984   39983   39981   39984
   39987   39985   39986   39986   39985   39988   39987   39985   39988
   39991   39989   39990   39990   39989   39992   39991   39989   39992
   39995   39993   39994   39994   39993   39996   39995   39993   39996
   39999   39997   39998   39998   39997   40000   39999   39997   40000

       0 !NPHI: dihedrals


       0 !NIMPHI: impropers


       0 !NDON: donors

       0 !NACC: acceptors

       0 !NNB

       0 !NGRP 

