PSF 

       3 !NTITLE
 REMARKS this file NVT_ethane_liq - created by using MoSDeF-GOMC. 
 REMARKS parameters from the {'NDE': '/mnt/d/Tools/GOMC/new5/trappe-ua.xml'} force field via MoSDef
 REMARKS created on 2025-09-01 23:29:07.404521


     800 !NATOM
       1 A    1    NDE  BD1  CH30     0.000000       15.0350           
       2 A    1    NDE  BD2  CH30     0.000000       15.0350           
       3 A    2    NDE  BD1  CH30     0.000000       15.0350           
       4 A    2    NDE  BD2  CH30     0.000000       15.0350           
       5 A    3    NDE  BD1  CH30     0.000000       15.0350           
       6 A    3    NDE  BD2  CH30     0.000000       15.0350           
       7 A    4    NDE  BD1  CH30     0.000000       15.0350           
       8 A    4    NDE  BD2  CH30     0.000000       15.0350           
       9 A    5    NDE  BD1  CH30     0.000000       15.0350           
      10 A    5    NDE  BD2  CH30     0.000000       15.0350           
      11 A    6    NDE  BD1  CH30     0.000000       15.0350           
      12 A    6    NDE  BD2  CH30     0.000000       15.0350           
      13 A    7    NDE  BD1  CH30     0.000000       15.0350           
      14 A    7    NDE  BD2  CH30     0.000000       15.0350           
      15 A    8    NDE  BD1  CH30     0.000000       15.0350           
      16 A    8    NDE  BD2  CH30     0.000000       15.0350           
      17 A    9    NDE  BD1  CH30     0.000000       15.0350           
      18 A    9    NDE  BD2  CH30     0.000000       15.0350           
      19 A    10   NDE  BD1  CH30     0.000000       15.0350           
      20 A    10   NDE  BD2  CH30     0.000000       15.0350           
      21 A    11   NDE  BD1  CH30     0.000000       15.0350           
      22 A    11   NDE  BD2  CH30     0.000000       15.0350           
      23 A    12   NDE  BD1  CH30     0.000000       15.0350           
      24 A    12   NDE  BD2  CH30     0.000000       15.0350           
      25 A    13   NDE  BD1  CH30     0.000000       15.0350           
      26 A    13   NDE  BD2  CH30     0.000000       15.0350           
      27 A    14   NDE  BD1  CH30     0.000000       15.0350           
      28 A    14   NDE  BD2  CH30     0.000000       15.0350           
      29 A    15   NDE  BD1  CH30     0.000000       15.0350           
      30 A    15   NDE  BD2  CH30     0.000000       15.0350           
      31 A    16   NDE  BD1  CH30     0.000000       15.0350           
      32 A    16   NDE  BD2  CH30     0.000000       15.0350           
      33 A    17   NDE  BD1  CH30     0.000000       15.0350           
      34 A    17   NDE  BD2  CH30     0.000000       15.0350           
      35 A    18   NDE  BD1  CH30     0.000000       15.0350           
      36 A    18   NDE  BD2  CH30     0.000000       15.0350           
      37 A    19   NDE  BD1  CH30     0.000000       15.0350           
      38 A    19   NDE  BD2  CH30     0.000000       15.0350           
      39 A    20   NDE  BD1  CH30     0.000000       15.0350           
      40 A    20   NDE  BD2  CH30     0.000000       15.0350           
      41 A    21   NDE  BD1  CH30     0.000000       15.0350           
      42 A    21   NDE  BD2  CH30     0.000000       15.0350           
      43 A    22   NDE  BD1  CH30     0.000000       15.0350           
      44 A    22   NDE  BD2  CH30     0.000000       15.0350           
      45 A    23   NDE  BD1  CH30     0.000000       15.0350           
      46 A    23   NDE  BD2  CH30     0.000000       15.0350           
      47 A    24   NDE  BD1  CH30     0.000000       15.0350           
      48 A    24   NDE  BD2  CH30     0.000000       15.0350           
      49 A    25   NDE  BD1  CH30     0.000000       15.0350           
      50 A    25   NDE  BD2  CH30     0.000000       15.0350           
      51 A    26   NDE  BD1  CH30     0.000000       15.0350           
      52 A    26   NDE  BD2  CH30     0.000000       15.0350           
      53 A    27   NDE  BD1  CH30     0.000000       15.0350           
      54 A    27   NDE  BD2  CH30     0.000000       15.0350           
      55 A    28   NDE  BD1  CH30     0.000000       15.0350           
      56 A    28   NDE  BD2  CH30     0.000000       15.0350           
      57 A    29   NDE  BD1  CH30     0.000000       15.0350           
      58 A    29   NDE  BD2  CH30     0.000000       15.0350           
      59 A    30   NDE  BD1  CH30     0.000000       15.0350           
      60 A    30   NDE  BD2  CH30     0.000000       15.0350           
      61 A    31   NDE  BD1  CH30     0.000000       15.0350           
      62 A    31   NDE  BD2  CH30     0.000000       15.0350           
      63 A    32   NDE  BD1  CH30     0.000000       15.0350           
      64 A    32   NDE  BD2  CH30     0.000000       15.0350           
      65 A    33   NDE  BD1  CH30     0.000000       15.0350           
      66 A    33   NDE  BD2  CH30     0.000000       15.0350           
      67 A    34   NDE  BD1  CH30     0.000000       15.0350           
      68 A    34   NDE  BD2  CH30     0.000000       15.0350           
      69 A    35   NDE  BD1  CH30     0.000000       15.0350           
      70 A    35   NDE  BD2  CH30     0.000000       15.0350           
      71 A    36   NDE  BD1  CH30     0.000000       15.0350           
      72 A    36   NDE  BD2  CH30     0.000000       15.0350           
      73 A    37   NDE  BD1  CH30     0.000000       15.0350           
      74 A    37   NDE  BD2  CH30     0.000000       15.0350           
      75 A    38   NDE  BD1  CH30     0.000000       15.0350           
      76 A    38   NDE  BD2  CH30     0.000000       15.0350           
      77 A    39   NDE  BD1  CH30     0.000000       15.0350           
      78 A    39   NDE  BD2  CH30     0.000000       15.0350           
      79 A    40   NDE  BD1  CH30     0.000000       15.0350           
      80 A    40   NDE  BD2  CH30     0.000000       15.0350           
      81 A    41   NDE  BD1  CH30     0.000000       15.0350           
      82 A    41   NDE  BD2  CH30     0.000000       15.0350           
      83 A    42   NDE  BD1  CH30     0.000000       15.0350           
      84 A    42   NDE  BD2  CH30     0.000000       15.0350           
      85 A    43   NDE  BD1  CH30     0.000000       15.0350           
      86 A    43   NDE  BD2  CH30     0.000000       15.0350           
      87 A    44   NDE  BD1  CH30     0.000000       15.0350           
      88 A    44   NDE  BD2  CH30     0.000000       15.0350           
      89 A    45   NDE  BD1  CH30     0.000000       15.0350           
      90 A    45   NDE  BD2  CH30     0.000000       15.0350           
      91 A    46   NDE  BD1  CH30     0.000000       15.0350           
      92 A    46   NDE  BD2  CH30     0.000000       15.0350           
      93 A    47   NDE  BD1  CH30     0.000000       15.0350           
      94 A    47   NDE  BD2  CH30     0.000000       15.0350           
      95 A    48   NDE  BD1  CH30     0.000000       15.0350           
      96 A    48   NDE  BD2  CH30     0.000000       15.0350           
      97 A    49   NDE  BD1  CH30     0.000000       15.0350           
      98 A    49   NDE  BD2  CH30     0.000000       15.0350           
      99 A    50   NDE  BD1  CH30     0.000000       15.0350           
     100 A    50   NDE  BD2  CH30     0.000000       15.0350           
     101 A    51   NDE  BD1  CH30     0.000000       15.0350           
     102 A    51   NDE  BD2  CH30     0.000000       15.0350           
     103 A    52   NDE  BD1  CH30     0.000000       15.0350           
     104 A    52   NDE  BD2  CH30     0.000000       15.0350           
     105 A    53   NDE  BD1  CH30     0.000000       15.0350           
     106 A    53   NDE  BD2  CH30     0.000000       15.0350           
     107 A    54   NDE  BD1  CH30     0.000000       15.0350           
     108 A    54   NDE  BD2  CH30     0.000000       15.0350           
     109 A    55   NDE  BD1  CH30     0.000000       15.0350           
     110 A    55   NDE  BD2  CH30     0.000000       15.0350           
     111 A    56   NDE  BD1  CH30     0.000000       15.0350           
     112 A    56   NDE  BD2  CH30     0.000000       15.0350           
     113 A    57   NDE  BD1  CH30     0.000000       15.0350           
     114 A    57   NDE  BD2  CH30     0.000000       15.0350           
     115 A    58   NDE  BD1  CH30     0.000000       15.0350           
     116 A    58   NDE  BD2  CH30     0.000000       15.0350           
     117 A    59   NDE  BD1  CH30     0.000000       15.0350           
     118 A    59   NDE  BD2  CH30     0.000000       15.0350           
     119 A    60   NDE  BD1  CH30     0.000000       15.0350           
     120 A    60   NDE  BD2  CH30     0.000000       15.0350           
     121 A    61   NDE  BD1  CH30     0.000000       15.0350           
     122 A    61   NDE  BD2  CH30     0.000000       15.0350           
     123 A    62   NDE  BD1  CH30     0.000000       15.0350           
     124 A    62   NDE  BD2  CH30     0.000000       15.0350           
     125 A    63   NDE  BD1  CH30     0.000000       15.0350           
     126 A    63   NDE  BD2  CH30     0.000000       15.0350           
     127 A    64   NDE  BD1  CH30     0.000000       15.0350           
     128 A    64   NDE  BD2  CH30     0.000000       15.0350           
     129 A    65   NDE  BD1  CH30     0.000000       15.0350           
     130 A    65   NDE  BD2  CH30     0.000000       15.0350           
     131 A    66   NDE  BD1  CH30     0.000000       15.0350           
     132 A    66   NDE  BD2  CH30     0.000000       15.0350           
     133 A    67   NDE  BD1  CH30     0.000000       15.0350           
     134 A    67   NDE  BD2  CH30     0.000000       15.0350           
     135 A    68   NDE  BD1  CH30     0.000000       15.0350           
     136 A    68   NDE  BD2  CH30     0.000000       15.0350           
     137 A    69   NDE  BD1  CH30     0.000000       15.0350           
     138 A    69   NDE  BD2  CH30     0.000000       15.0350           
     139 A    70   NDE  BD1  CH30     0.000000       15.0350           
     140 A    70   NDE  BD2  CH30     0.000000       15.0350           
     141 A    71   NDE  BD1  CH30     0.000000       15.0350           
     142 A    71   NDE  BD2  CH30     0.000000       15.0350           
     143 A    72   NDE  BD1  CH30     0.000000       15.0350           
     144 A    72   NDE  BD2  CH30     0.000000       15.0350           
     145 A    73   NDE  BD1  CH30     0.000000       15.0350           
     146 A    73   NDE  BD2  CH30     0.000000       15.0350           
     147 A    74   NDE  BD1  CH30     0.000000       15.0350           
     148 A    74   NDE  BD2  CH30     0.000000       15.0350           
     149 A    75   NDE  BD1  CH30     0.000000       15.0350           
     150 A    75   NDE  BD2  CH30     0.000000       15.0350           
     151 A    76   NDE  BD1  CH30     0.000000       15.0350           
     152 A    76   NDE  BD2  CH30     0.000000       15.0350           
     153 A    77   NDE  BD1  CH30     0.000000       15.0350           
     154 A    77   NDE  BD2  CH30     0.000000       15.0350           
     155 A    78   NDE  BD1  CH30     0.000000       15.0350           
     156 A    78   NDE  BD2  CH30     0.000000       15.0350           
     157 A    79   NDE  BD1  CH30     0.000000       15.0350           
     158 A    79   NDE  BD2  CH30     0.000000       15.0350           
     159 A    80   NDE  BD1  CH30     0.000000       15.0350           
     160 A    80   NDE  BD2  CH30     0.000000       15.0350           
     161 A    81   NDE  BD1  CH30     0.000000       15.0350           
     162 A    81   NDE  BD2  CH30     0.000000       15.0350           
     163 A    82   NDE  BD1  CH30     0.000000       15.0350           
     164 A    82   NDE  BD2  CH30     0.000000       15.0350           
     165 A    83   NDE  BD1  CH30     0.000000       15.0350           
     166 A    83   NDE  BD2  CH30     0.000000       15.0350           
     167 A    84   NDE  BD1  CH30     0.000000       15.0350           
     168 A    84   NDE  BD2  CH30     0.000000       15.0350           
     169 A    85   NDE  BD1  CH30     0.000000       15.0350           
     170 A    85   NDE  BD2  CH30     0.000000       15.0350           
     171 A    86   NDE  BD1  CH30     0.000000       15.0350           
     172 A    86   NDE  BD2  CH30     0.000000       15.0350           
     173 A    87   NDE  BD1  CH30     0.000000       15.0350           
     174 A    87   NDE  BD2  CH30     0.000000       15.0350           
     175 A    88   NDE  BD1  CH30     0.000000       15.0350           
     176 A    88   NDE  BD2  CH30     0.000000       15.0350           
     177 A    89   NDE  BD1  CH30     0.000000       15.0350           
     178 A    89   NDE  BD2  CH30     0.000000       15.0350           
     179 A    90   NDE  BD1  CH30     0.000000       15.0350           
     180 A    90   NDE  BD2  CH30     0.000000       15.0350           
     181 A    91   NDE  BD1  CH30     0.000000       15.0350           
     182 A    91   NDE  BD2  CH30     0.000000       15.0350           
     183 A    92   NDE  BD1  CH30     0.000000       15.0350           
     184 A    92   NDE  BD2  CH30     0.000000       15.0350           
     185 A    93   NDE  BD1  CH30     0.000000       15.0350           
     186 A    93   NDE  BD2  CH30     0.000000       15.0350           
     187 A    94   NDE  BD1  CH30     0.000000       15.0350           
     188 A    94   NDE  BD2  CH30     0.000000       15.0350           
     189 A    95   NDE  BD1  CH30     0.000000       15.0350           
     190 A    95   NDE  BD2  CH30     0.000000       15.0350           
     191 A    96   NDE  BD1  CH30     0.000000       15.0350           
     192 A    96   NDE  BD2  CH30     0.000000       15.0350           
     193 A    97   NDE  BD1  CH30     0.000000       15.0350           
     194 A    97   NDE  BD2  CH30     0.000000       15.0350           
     195 A    98   NDE  BD1  CH30     0.000000       15.0350           
     196 A    98   NDE  BD2  CH30     0.000000       15.0350           
     197 A    99   NDE  BD1  CH30     0.000000       15.0350           
     198 A    99   NDE  BD2  CH30     0.000000       15.0350           
     199 A    100  NDE  BD1  CH30     0.000000       15.0350           
     200 A    100  NDE  BD2  CH30     0.000000       15.0350           
     201 A    101  NDE  BD1  CH30     0.000000       15.0350           
     202 A    101  NDE  BD2  CH30     0.000000       15.0350           
     203 A    102  NDE  BD1  CH30     0.000000       15.0350           
     204 A    102  NDE  BD2  CH30     0.000000       15.0350           
     205 A    103  NDE  BD1  CH30     0.000000       15.0350           
     206 A    103  NDE  BD2  CH30     0.000000       15.0350           
     207 A    104  NDE  BD1  CH30     0.000000       15.0350           
     208 A    104  NDE  BD2  CH30     0.000000       15.0350           
     209 A    105  NDE  BD1  CH30     0.000000       15.0350           
     210 A    105  NDE  BD2  CH30     0.000000       15.0350           
     211 A    106  NDE  BD1  CH30     0.000000       15.0350           
     212 A    106  NDE  BD2  CH30     0.000000       15.0350           
     213 A    107  NDE  BD1  CH30     0.000000       15.0350           
     214 A    107  NDE  BD2  CH30     0.000000       15.0350           
     215 A    108  NDE  BD1  CH30     0.000000       15.0350           
     216 A    108  NDE  BD2  CH30     0.000000       15.0350           
     217 A    109  NDE  BD1  CH30     0.000000       15.0350           
     218 A    109  NDE  BD2  CH30     0.000000       15.0350           
     219 A    110  NDE  BD1  CH30     0.000000       15.0350           
     220 A    110  NDE  BD2  CH30     0.000000       15.0350           
     221 A    111  NDE  BD1  CH30     0.000000       15.0350           
     222 A    111  NDE  BD2  CH30     0.000000       15.0350           
     223 A    112  NDE  BD1  CH30     0.000000       15.0350           
     224 A    112  NDE  BD2  CH30     0.000000       15.0350           
     225 A    113  NDE  BD1  CH30     0.000000       15.0350           
     226 A    113  NDE  BD2  CH30     0.000000       15.0350           
     227 A    114  NDE  BD1  CH30     0.000000       15.0350           
     228 A    114  NDE  BD2  CH30     0.000000       15.0350           
     229 A    115  NDE  BD1  CH30     0.000000       15.0350           
     230 A    115  NDE  BD2  CH30     0.000000       15.0350           
     231 A    116  NDE  BD1  CH30     0.000000       15.0350           
     232 A    116  NDE  BD2  CH30     0.000000       15.0350           
     233 A    117  NDE  BD1  CH30     0.000000       15.0350           
     234 A    117  NDE  BD2  CH30     0.000000       15.0350           
     235 A    118  NDE  BD1  CH30     0.000000       15.0350           
     236 A    118  NDE  BD2  CH30     0.000000       15.0350           
     237 A    119  NDE  BD1  CH30     0.000000       15.0350           
     238 A    119  NDE  BD2  CH30     0.000000       15.0350           
     239 A    120  NDE  BD1  CH30     0.000000       15.0350           
     240 A    120  NDE  BD2  CH30     0.000000       15.0350           
     241 A    121  NDE  BD1  CH30     0.000000       15.0350           
     242 A    121  NDE  BD2  CH30     0.000000       15.0350           
     243 A    122  NDE  BD1  CH30     0.000000       15.0350           
     244 A    122  NDE  BD2  CH30     0.000000       15.0350           
     245 A    123  NDE  BD1  CH30     0.000000       15.0350           
     246 A    123  NDE  BD2  CH30     0.000000       15.0350           
     247 A    124  NDE  BD1  CH30     0.000000       15.0350           
     248 A    124  NDE  BD2  CH30     0.000000       15.0350           
     249 A    125  NDE  BD1  CH30     0.000000       15.0350           
     250 A    125  NDE  BD2  CH30     0.000000       15.0350           
     251 A    126  NDE  BD1  CH30     0.000000       15.0350           
     252 A    126  NDE  BD2  CH30     0.000000       15.0350           
     253 A    127  NDE  BD1  CH30     0.000000       15.0350           
     254 A    127  NDE  BD2  CH30     0.000000       15.0350           
     255 A    128  NDE  BD1  CH30     0.000000       15.0350           
     256 A    128  NDE  BD2  CH30     0.000000       15.0350           
     257 A    129  NDE  BD1  CH30     0.000000       15.0350           
     258 A    129  NDE  BD2  CH30     0.000000       15.0350           
     259 A    130  NDE  BD1  CH30     0.000000       15.0350           
     260 A    130  NDE  BD2  CH30     0.000000       15.0350           
     261 A    131  NDE  BD1  CH30     0.000000       15.0350           
     262 A    131  NDE  BD2  CH30     0.000000       15.0350           
     263 A    132  NDE  BD1  CH30     0.000000       15.0350           
     264 A    132  NDE  BD2  CH30     0.000000       15.0350           
     265 A    133  NDE  BD1  CH30     0.000000       15.0350           
     266 A    133  NDE  BD2  CH30     0.000000       15.0350           
     267 A    134  NDE  BD1  CH30     0.000000       15.0350           
     268 A    134  NDE  BD2  CH30     0.000000       15.0350           
     269 A    135  NDE  BD1  CH30     0.000000       15.0350           
     270 A    135  NDE  BD2  CH30     0.000000       15.0350           
     271 A    136  NDE  BD1  CH30     0.000000       15.0350           
     272 A    136  NDE  BD2  CH30     0.000000       15.0350           
     273 A    137  NDE  BD1  CH30     0.000000       15.0350           
     274 A    137  NDE  BD2  CH30     0.000000       15.0350           
     275 A    138  NDE  BD1  CH30     0.000000       15.0350           
     276 A    138  NDE  BD2  CH30     0.000000       15.0350           
     277 A    139  NDE  BD1  CH30     0.000000       15.0350           
     278 A    139  NDE  BD2  CH30     0.000000       15.0350           
     279 A    140  NDE  BD1  CH30     0.000000       15.0350           
     280 A    140  NDE  BD2  CH30     0.000000       15.0350           
     281 A    141  NDE  BD1  CH30     0.000000       15.0350           
     282 A    141  NDE  BD2  CH30     0.000000       15.0350           
     283 A    142  NDE  BD1  CH30     0.000000       15.0350           
     284 A    142  NDE  BD2  CH30     0.000000       15.0350           
     285 A    143  NDE  BD1  CH30     0.000000       15.0350           
     286 A    143  NDE  BD2  CH30     0.000000       15.0350           
     287 A    144  NDE  BD1  CH30     0.000000       15.0350           
     288 A    144  NDE  BD2  CH30     0.000000       15.0350           
     289 A    145  NDE  BD1  CH30     0.000000       15.0350           
     290 A    145  NDE  BD2  CH30     0.000000       15.0350           
     291 A    146  NDE  BD1  CH30     0.000000       15.0350           
     292 A    146  NDE  BD2  CH30     0.000000       15.0350           
     293 A    147  NDE  BD1  CH30     0.000000       15.0350           
     294 A    147  NDE  BD2  CH30     0.000000       15.0350           
     295 A    148  NDE  BD1  CH30     0.000000       15.0350           
     296 A    148  NDE  BD2  CH30     0.000000       15.0350           
     297 A    149  NDE  BD1  CH30     0.000000       15.0350           
     298 A    149  NDE  BD2  CH30     0.000000       15.0350           
     299 A    150  NDE  BD1  CH30     0.000000       15.0350           
     300 A    150  NDE  BD2  CH30     0.000000       15.0350           
     301 A    151  NDE  BD1  CH30     0.000000       15.0350           
     302 A    151  NDE  BD2  CH30     0.000000       15.0350           
     303 A    152  NDE  BD1  CH30     0.000000       15.0350           
     304 A    152  NDE  BD2  CH30     0.000000       15.0350           
     305 A    153  NDE  BD1  CH30     0.000000       15.0350           
     306 A    153  NDE  BD2  CH30     0.000000       15.0350           
     307 A    154  NDE  BD1  CH30     0.000000       15.0350           
     308 A    154  NDE  BD2  CH30     0.000000       15.0350           
     309 A    155  NDE  BD1  CH30     0.000000       15.0350           
     310 A    155  NDE  BD2  CH30     0.000000       15.0350           
     311 A    156  NDE  BD1  CH30     0.000000       15.0350           
     312 A    156  NDE  BD2  CH30     0.000000       15.0350           
     313 A    157  NDE  BD1  CH30     0.000000       15.0350           
     314 A    157  NDE  BD2  CH30     0.000000       15.0350           
     315 A    158  NDE  BD1  CH30     0.000000       15.0350           
     316 A    158  NDE  BD2  CH30     0.000000       15.0350           
     317 A    159  NDE  BD1  CH30     0.000000       15.0350           
     318 A    159  NDE  BD2  CH30     0.000000       15.0350           
     319 A    160  NDE  BD1  CH30     0.000000       15.0350           
     320 A    160  NDE  BD2  CH30     0.000000       15.0350           
     321 A    161  NDE  BD1  CH30     0.000000       15.0350           
     322 A    161  NDE  BD2  CH30     0.000000       15.0350           
     323 A    162  NDE  BD1  CH30     0.000000       15.0350           
     324 A    162  NDE  BD2  CH30     0.000000       15.0350           
     325 A    163  NDE  BD1  CH30     0.000000       15.0350           
     326 A    163  NDE  BD2  CH30     0.000000       15.0350           
     327 A    164  NDE  BD1  CH30     0.000000       15.0350           
     328 A    164  NDE  BD2  CH30     0.000000       15.0350           
     329 A    165  NDE  BD1  CH30     0.000000       15.0350           
     330 A    165  NDE  BD2  CH30     0.000000       15.0350           
     331 A    166  NDE  BD1  CH30     0.000000       15.0350           
     332 A    166  NDE  BD2  CH30     0.000000       15.0350           
     333 A    167  NDE  BD1  CH30     0.000000       15.0350           
     334 A    167  NDE  BD2  CH30     0.000000       15.0350           
     335 A    168  NDE  BD1  CH30     0.000000       15.0350           
     336 A    168  NDE  BD2  CH30     0.000000       15.0350           
     337 A    169  NDE  BD1  CH30     0.000000       15.0350           
     338 A    169  NDE  BD2  CH30     0.000000       15.0350           
     339 A    170  NDE  BD1  CH30     0.000000       15.0350           
     340 A    170  NDE  BD2  CH30     0.000000       15.0350           
     341 A    171  NDE  BD1  CH30     0.000000       15.0350           
     342 A    171  NDE  BD2  CH30     0.000000       15.0350           
     343 A    172  NDE  BD1  CH30     0.000000       15.0350           
     344 A    172  NDE  BD2  CH30     0.000000       15.0350           
     345 A    173  NDE  BD1  CH30     0.000000       15.0350           
     346 A    173  NDE  BD2  CH30     0.000000       15.0350           
     347 A    174  NDE  BD1  CH30     0.000000       15.0350           
     348 A    174  NDE  BD2  CH30     0.000000       15.0350           
     349 A    175  NDE  BD1  CH30     0.000000       15.0350           
     350 A    175  NDE  BD2  CH30     0.000000       15.0350           
     351 A    176  NDE  BD1  CH30     0.000000       15.0350           
     352 A    176  NDE  BD2  CH30     0.000000       15.0350           
     353 A    177  NDE  BD1  CH30     0.000000       15.0350           
     354 A    177  NDE  BD2  CH30     0.000000       15.0350           
     355 A    178  NDE  BD1  CH30     0.000000       15.0350           
     356 A    178  NDE  BD2  CH30     0.000000       15.0350           
     357 A    179  NDE  BD1  CH30     0.000000       15.0350           
     358 A    179  NDE  BD2  CH30     0.000000       15.0350           
     359 A    180  NDE  BD1  CH30     0.000000       15.0350           
     360 A    180  NDE  BD2  CH30     0.000000       15.0350           
     361 A    181  NDE  BD1  CH30     0.000000       15.0350           
     362 A    181  NDE  BD2  CH30     0.000000       15.0350           
     363 A    182  NDE  BD1  CH30     0.000000       15.0350           
     364 A    182  NDE  BD2  CH30     0.000000       15.0350           
     365 A    183  NDE  BD1  CH30     0.000000       15.0350           
     366 A    183  NDE  BD2  CH30     0.000000       15.0350           
     367 A    184  NDE  BD1  CH30     0.000000       15.0350           
     368 A    184  NDE  BD2  CH30     0.000000       15.0350           
     369 A    185  NDE  BD1  CH30     0.000000       15.0350           
     370 A    185  NDE  BD2  CH30     0.000000       15.0350           
     371 A    186  NDE  BD1  CH30     0.000000       15.0350           
     372 A    186  NDE  BD2  CH30     0.000000       15.0350           
     373 A    187  NDE  BD1  CH30     0.000000       15.0350           
     374 A    187  NDE  BD2  CH30     0.000000       15.0350           
     375 A    188  NDE  BD1  CH30     0.000000       15.0350           
     376 A    188  NDE  BD2  CH30     0.000000       15.0350           
     377 A    189  NDE  BD1  CH30     0.000000       15.0350           
     378 A    189  NDE  BD2  CH30     0.000000       15.0350           
     379 A    190  NDE  BD1  CH30     0.000000       15.0350           
     380 A    190  NDE  BD2  CH30     0.000000       15.0350           
     381 A    191  NDE  BD1  CH30     0.000000       15.0350           
     382 A    191  NDE  BD2  CH30     0.000000       15.0350           
     383 A    192  NDE  BD1  CH30     0.000000       15.0350           
     384 A    192  NDE  BD2  CH30     0.000000       15.0350           
     385 A    193  NDE  BD1  CH30     0.000000       15.0350           
     386 A    193  NDE  BD2  CH30     0.000000       15.0350           
     387 A    194  NDE  BD1  CH30     0.000000       15.0350           
     388 A    194  NDE  BD2  CH30     0.000000       15.0350           
     389 A    195  NDE  BD1  CH30     0.000000       15.0350           
     390 A    195  NDE  BD2  CH30     0.000000       15.0350           
     391 A    196  NDE  BD1  CH30     0.000000       15.0350           
     392 A    196  NDE  BD2  CH30     0.000000       15.0350           
     393 A    197  NDE  BD1  CH30     0.000000       15.0350           
     394 A    197  NDE  BD2  CH30     0.000000       15.0350           
     395 A    198  NDE  BD1  CH30     0.000000       15.0350           
     396 A    198  NDE  BD2  CH30     0.000000       15.0350           
     397 A    199  NDE  BD1  CH30     0.000000       15.0350           
     398 A    199  NDE  BD2  CH30     0.000000       15.0350           
     399 A    200  NDE  BD1  CH30     0.000000       15.0350           
     400 A    200  NDE  BD2  CH30     0.000000       15.0350           
     401 A    201  NDE  BD1  CH30     0.000000       15.0350           
     402 A    201  NDE  BD2  CH30     0.000000       15.0350           
     403 A    202  NDE  BD1  CH30     0.000000       15.0350           
     404 A    202  NDE  BD2  CH30     0.000000       15.0350           
     405 A    203  NDE  BD1  CH30     0.000000       15.0350           
     406 A    203  NDE  BD2  CH30     0.000000       15.0350           
     407 A    204  NDE  BD1  CH30     0.000000       15.0350           
     408 A    204  NDE  BD2  CH30     0.000000       15.0350           
     409 A    205  NDE  BD1  CH30     0.000000       15.0350           
     410 A    205  NDE  BD2  CH30     0.000000       15.0350           
     411 A    206  NDE  BD1  CH30     0.000000       15.0350           
     412 A    206  NDE  BD2  CH30     0.000000       15.0350           
     413 A    207  NDE  BD1  CH30     0.000000       15.0350           
     414 A    207  NDE  BD2  CH30     0.000000       15.0350           
     415 A    208  NDE  BD1  CH30     0.000000       15.0350           
     416 A    208  NDE  BD2  CH30     0.000000       15.0350           
     417 A    209  NDE  BD1  CH30     0.000000       15.0350           
     418 A    209  NDE  BD2  CH30     0.000000       15.0350           
     419 A    210  NDE  BD1  CH30     0.000000       15.0350           
     420 A    210  NDE  BD2  CH30     0.000000       15.0350           
     421 A    211  NDE  BD1  CH30     0.000000       15.0350           
     422 A    211  NDE  BD2  CH30     0.000000       15.0350           
     423 A    212  NDE  BD1  CH30     0.000000       15.0350           
     424 A    212  NDE  BD2  CH30     0.000000       15.0350           
     425 A    213  NDE  BD1  CH30     0.000000       15.0350           
     426 A    213  NDE  BD2  CH30     0.000000       15.0350           
     427 A    214  NDE  BD1  CH30     0.000000       15.0350           
     428 A    214  NDE  BD2  CH30     0.000000       15.0350           
     429 A    215  NDE  BD1  CH30     0.000000       15.0350           
     430 A    215  NDE  BD2  CH30     0.000000       15.0350           
     431 A    216  NDE  BD1  CH30     0.000000       15.0350           
     432 A    216  NDE  BD2  CH30     0.000000       15.0350           
     433 A    217  NDE  BD1  CH30     0.000000       15.0350           
     434 A    217  NDE  BD2  CH30     0.000000       15.0350           
     435 A    218  NDE  BD1  CH30     0.000000       15.0350           
     436 A    218  NDE  BD2  CH30     0.000000       15.0350           
     437 A    219  NDE  BD1  CH30     0.000000       15.0350           
     438 A    219  NDE  BD2  CH30     0.000000       15.0350           
     439 A    220  NDE  BD1  CH30     0.000000       15.0350           
     440 A    220  NDE  BD2  CH30     0.000000       15.0350           
     441 A    221  NDE  BD1  CH30     0.000000       15.0350           
     442 A    221  NDE  BD2  CH30     0.000000       15.0350           
     443 A    222  NDE  BD1  CH30     0.000000       15.0350           
     444 A    222  NDE  BD2  CH30     0.000000       15.0350           
     445 A    223  NDE  BD1  CH30     0.000000       15.0350           
     446 A    223  NDE  BD2  CH30     0.000000       15.0350           
     447 A    224  NDE  BD1  CH30     0.000000       15.0350           
     448 A    224  NDE  BD2  CH30     0.000000       15.0350           
     449 A    225  NDE  BD1  CH30     0.000000       15.0350           
     450 A    225  NDE  BD2  CH30     0.000000       15.0350           
     451 A    226  NDE  BD1  CH30     0.000000       15.0350           
     452 A    226  NDE  BD2  CH30     0.000000       15.0350           
     453 A    227  NDE  BD1  CH30     0.000000       15.0350           
     454 A    227  NDE  BD2  CH30     0.000000       15.0350           
     455 A    228  NDE  BD1  CH30     0.000000       15.0350           
     456 A    228  NDE  BD2  CH30     0.000000       15.0350           
     457 A    229  NDE  BD1  CH30     0.000000       15.0350           
     458 A    229  NDE  BD2  CH30     0.000000       15.0350           
     459 A    230  NDE  BD1  CH30     0.000000       15.0350           
     460 A    230  NDE  BD2  CH30     0.000000       15.0350           
     461 A    231  NDE  BD1  CH30     0.000000       15.0350           
     462 A    231  NDE  BD2  CH30     0.000000       15.0350           
     463 A    232  NDE  BD1  CH30     0.000000       15.0350           
     464 A    232  NDE  BD2  CH30     0.000000       15.0350           
     465 A    233  NDE  BD1  CH30     0.000000       15.0350           
     466 A    233  NDE  BD2  CH30     0.000000       15.0350           
     467 A    234  NDE  BD1  CH30     0.000000       15.0350           
     468 A    234  NDE  BD2  CH30     0.000000       15.0350           
     469 A    235  NDE  BD1  CH30     0.000000       15.0350           
     470 A    235  NDE  BD2  CH30     0.000000       15.0350           
     471 A    236  NDE  BD1  CH30     0.000000       15.0350           
     472 A    236  NDE  BD2  CH30     0.000000       15.0350           
     473 A    237  NDE  BD1  CH30     0.000000       15.0350           
     474 A    237  NDE  BD2  CH30     0.000000       15.0350           
     475 A    238  NDE  BD1  CH30     0.000000       15.0350           
     476 A    238  NDE  BD2  CH30     0.000000       15.0350           
     477 A    239  NDE  BD1  CH30     0.000000       15.0350           
     478 A    239  NDE  BD2  CH30     0.000000       15.0350           
     479 A    240  NDE  BD1  CH30     0.000000       15.0350           
     480 A    240  NDE  BD2  CH30     0.000000       15.0350           
     481 A    241  NDE  BD1  CH30     0.000000       15.0350           
     482 A    241  NDE  BD2  CH30     0.000000       15.0350           
     483 A    242  NDE  BD1  CH30     0.000000       15.0350           
     484 A    242  NDE  BD2  CH30     0.000000       15.0350           
     485 A    243  NDE  BD1  CH30     0.000000       15.0350           
     486 A    243  NDE  BD2  CH30     0.000000       15.0350           
     487 A    244  NDE  BD1  CH30     0.000000       15.0350           
     488 A    244  NDE  BD2  CH30     0.000000       15.0350           
     489 A    245  NDE  BD1  CH30     0.000000       15.0350           
     490 A    245  NDE  BD2  CH30     0.000000       15.0350           
     491 A    246  NDE  BD1  CH30     0.000000       15.0350           
     492 A    246  NDE  BD2  CH30     0.000000       15.0350           
     493 A    247  NDE  BD1  CH30     0.000000       15.0350           
     494 A    247  NDE  BD2  CH30     0.000000       15.0350           
     495 A    248  NDE  BD1  CH30     0.000000       15.0350           
     496 A    248  NDE  BD2  CH30     0.000000       15.0350           
     497 A    249  NDE  BD1  CH30     0.000000       15.0350           
     498 A    249  NDE  BD2  CH30     0.000000       15.0350           
     499 A    250  NDE  BD1  CH30     0.000000       15.0350           
     500 A    250  NDE  BD2  CH30     0.000000       15.0350           
     501 A    251  NDE  BD1  CH30     0.000000       15.0350           
     502 A    251  NDE  BD2  CH30     0.000000       15.0350           
     503 A    252  NDE  BD1  CH30     0.000000       15.0350           
     504 A    252  NDE  BD2  CH30     0.000000       15.0350           
     505 A    253  NDE  BD1  CH30     0.000000       15.0350           
     506 A    253  NDE  BD2  CH30     0.000000       15.0350           
     507 A    254  NDE  BD1  CH30     0.000000       15.0350           
     508 A    254  NDE  BD2  CH30     0.000000       15.0350           
     509 A    255  NDE  BD1  CH30     0.000000       15.0350           
     510 A    255  NDE  BD2  CH30     0.000000       15.0350           
     511 A    256  NDE  BD1  CH30     0.000000       15.0350           
     512 A    256  NDE  BD2  CH30     0.000000       15.0350           
     513 A    257  NDE  BD1  CH30     0.000000       15.0350           
     514 A    257  NDE  BD2  CH30     0.000000       15.0350           
     515 A    258  NDE  BD1  CH30     0.000000       15.0350           
     516 A    258  NDE  BD2  CH30     0.000000       15.0350           
     517 A    259  NDE  BD1  CH30     0.000000       15.0350           
     518 A    259  NDE  BD2  CH30     0.000000       15.0350           
     519 A    260  NDE  BD1  CH30     0.000000       15.0350           
     520 A    260  NDE  BD2  CH30     0.000000       15.0350           
     521 A    261  NDE  BD1  CH30     0.000000       15.0350           
     522 A    261  NDE  BD2  CH30     0.000000       15.0350           
     523 A    262  NDE  BD1  CH30     0.000000       15.0350           
     524 A    262  NDE  BD2  CH30     0.000000       15.0350           
     525 A    263  NDE  BD1  CH30     0.000000       15.0350           
     526 A    263  NDE  BD2  CH30     0.000000       15.0350           
     527 A    264  NDE  BD1  CH30     0.000000       15.0350           
     528 A    264  NDE  BD2  CH30     0.000000       15.0350           
     529 A    265  NDE  BD1  CH30     0.000000       15.0350           
     530 A    265  NDE  BD2  CH30     0.000000       15.0350           
     531 A    266  NDE  BD1  CH30     0.000000       15.0350           
     532 A    266  NDE  BD2  CH30     0.000000       15.0350           
     533 A    267  NDE  BD1  CH30     0.000000       15.0350           
     534 A    267  NDE  BD2  CH30     0.000000       15.0350           
     535 A    268  NDE  BD1  CH30     0.000000       15.0350           
     536 A    268  NDE  BD2  CH30     0.000000       15.0350           
     537 A    269  NDE  BD1  CH30     0.000000       15.0350           
     538 A    269  NDE  BD2  CH30     0.000000       15.0350           
     539 A    270  NDE  BD1  CH30     0.000000       15.0350           
     540 A    270  NDE  BD2  CH30     0.000000       15.0350           
     541 A    271  NDE  BD1  CH30     0.000000       15.0350           
     542 A    271  NDE  BD2  CH30     0.000000       15.0350           
     543 A    272  NDE  BD1  CH30     0.000000       15.0350           
     544 A    272  NDE  BD2  CH30     0.000000       15.0350           
     545 A    273  NDE  BD1  CH30     0.000000       15.0350           
     546 A    273  NDE  BD2  CH30     0.000000       15.0350           
     547 A    274  NDE  BD1  CH30     0.000000       15.0350           
     548 A    274  NDE  BD2  CH30     0.000000       15.0350           
     549 A    275  NDE  BD1  CH30     0.000000       15.0350           
     550 A    275  NDE  BD2  CH30     0.000000       15.0350           
     551 A    276  NDE  BD1  CH30     0.000000       15.0350           
     552 A    276  NDE  BD2  CH30     0.000000       15.0350           
     553 A    277  NDE  BD1  CH30     0.000000       15.0350           
     554 A    277  NDE  BD2  CH30     0.000000       15.0350           
     555 A    278  NDE  BD1  CH30     0.000000       15.0350           
     556 A    278  NDE  BD2  CH30     0.000000       15.0350           
     557 A    279  NDE  BD1  CH30     0.000000       15.0350           
     558 A    279  NDE  BD2  CH30     0.000000       15.0350           
     559 A    280  NDE  BD1  CH30     0.000000       15.0350           
     560 A    280  NDE  BD2  CH30     0.000000       15.0350           
     561 A    281  NDE  BD1  CH30     0.000000       15.0350           
     562 A    281  NDE  BD2  CH30     0.000000       15.0350           
     563 A    282  NDE  BD1  CH30     0.000000       15.0350           
     564 A    282  NDE  BD2  CH30     0.000000       15.0350           
     565 A    283  NDE  BD1  CH30     0.000000       15.0350           
     566 A    283  NDE  BD2  CH30     0.000000       15.0350           
     567 A    284  NDE  BD1  CH30     0.000000       15.0350           
     568 A    284  NDE  BD2  CH30     0.000000       15.0350           
     569 A    285  NDE  BD1  CH30     0.000000       15.0350           
     570 A    285  NDE  BD2  CH30     0.000000       15.0350           
     571 A    286  NDE  BD1  CH30     0.000000       15.0350           
     572 A    286  NDE  BD2  CH30     0.000000       15.0350           
     573 A    287  NDE  BD1  CH30     0.000000       15.0350           
     574 A    287  NDE  BD2  CH30     0.000000       15.0350           
     575 A    288  NDE  BD1  CH30     0.000000       15.0350           
     576 A    288  NDE  BD2  CH30     0.000000       15.0350           
     577 A    289  NDE  BD1  CH30     0.000000       15.0350           
     578 A    289  NDE  BD2  CH30     0.000000       15.0350           
     579 A    290  NDE  BD1  CH30     0.000000       15.0350           
     580 A    290  NDE  BD2  CH30     0.000000       15.0350           
     581 A    291  NDE  BD1  CH30     0.000000       15.0350           
     582 A    291  NDE  BD2  CH30     0.000000       15.0350           
     583 A    292  NDE  BD1  CH30     0.000000       15.0350           
     584 A    292  NDE  BD2  CH30     0.000000       15.0350           
     585 A    293  NDE  BD1  CH30     0.000000       15.0350           
     586 A    293  NDE  BD2  CH30     0.000000       15.0350           
     587 A    294  NDE  BD1  CH30     0.000000       15.0350           
     588 A    294  NDE  BD2  CH30     0.000000       15.0350           
     589 A    295  NDE  BD1  CH30     0.000000       15.0350           
     590 A    295  NDE  BD2  CH30     0.000000       15.0350           
     591 A    296  NDE  BD1  CH30     0.000000       15.0350           
     592 A    296  NDE  BD2  CH30     0.000000       15.0350           
     593 A    297  NDE  BD1  CH30     0.000000       15.0350           
     594 A    297  NDE  BD2  CH30     0.000000       15.0350           
     595 A    298  NDE  BD1  CH30     0.000000       15.0350           
     596 A    298  NDE  BD2  CH30     0.000000       15.0350           
     597 A    299  NDE  BD1  CH30     0.000000       15.0350           
     598 A    299  NDE  BD2  CH30     0.000000       15.0350           
     599 A    300  NDE  BD1  CH30     0.000000       15.0350           
     600 A    300  NDE  BD2  CH30     0.000000       15.0350           
     601 A    301  NDE  BD1  CH30     0.000000       15.0350           
     602 A    301  NDE  BD2  CH30     0.000000       15.0350           
     603 A    302  NDE  BD1  CH30     0.000000       15.0350           
     604 A    302  NDE  BD2  CH30     0.000000       15.0350           
     605 A    303  NDE  BD1  CH30     0.000000       15.0350           
     606 A    303  NDE  BD2  CH30     0.000000       15.0350           
     607 A    304  NDE  BD1  CH30     0.000000       15.0350           
     608 A    304  NDE  BD2  CH30     0.000000       15.0350           
     609 A    305  NDE  BD1  CH30     0.000000       15.0350           
     610 A    305  NDE  BD2  CH30     0.000000       15.0350           
     611 A    306  NDE  BD1  CH30     0.000000       15.0350           
     612 A    306  NDE  BD2  CH30     0.000000       15.0350           
     613 A    307  NDE  BD1  CH30     0.000000       15.0350           
     614 A    307  NDE  BD2  CH30     0.000000       15.0350           
     615 A    308  NDE  BD1  CH30     0.000000       15.0350           
     616 A    308  NDE  BD2  CH30     0.000000       15.0350           
     617 A    309  NDE  BD1  CH30     0.000000       15.0350           
     618 A    309  NDE  BD2  CH30     0.000000       15.0350           
     619 A    310  NDE  BD1  CH30     0.000000       15.0350           
     620 A    310  NDE  BD2  CH30     0.000000       15.0350           
     621 A    311  NDE  BD1  CH30     0.000000       15.0350           
     622 A    311  NDE  BD2  CH30     0.000000       15.0350           
     623 A    312  NDE  BD1  CH30     0.000000       15.0350           
     624 A    312  NDE  BD2  CH30     0.000000       15.0350           
     625 A    313  NDE  BD1  CH30     0.000000       15.0350           
     626 A    313  NDE  BD2  CH30     0.000000       15.0350           
     627 A    314  NDE  BD1  CH30     0.000000       15.0350           
     628 A    314  NDE  BD2  CH30     0.000000       15.0350           
     629 A    315  NDE  BD1  CH30     0.000000       15.0350           
     630 A    315  NDE  BD2  CH30     0.000000       15.0350           
     631 A    316  NDE  BD1  CH30     0.000000       15.0350           
     632 A    316  NDE  BD2  CH30     0.000000       15.0350           
     633 A    317  NDE  BD1  CH30     0.000000       15.0350           
     634 A    317  NDE  BD2  CH30     0.000000       15.0350           
     635 A    318  NDE  BD1  CH30     0.000000       15.0350           
     636 A    318  NDE  BD2  CH30     0.000000       15.0350           
     637 A    319  NDE  BD1  CH30     0.000000       15.0350           
     638 A    319  NDE  BD2  CH30     0.000000       15.0350           
     639 A    320  NDE  BD1  CH30     0.000000       15.0350           
     640 A    320  NDE  BD2  CH30     0.000000       15.0350           
     641 A    321  NDE  BD1  CH30     0.000000       15.0350           
     642 A    321  NDE  BD2  CH30     0.000000       15.0350           
     643 A    322  NDE  BD1  CH30     0.000000       15.0350           
     644 A    322  NDE  BD2  CH30     0.000000       15.0350           
     645 A    323  NDE  BD1  CH30     0.000000       15.0350           
     646 A    323  NDE  BD2  CH30     0.000000       15.0350           
     647 A    324  NDE  BD1  CH30     0.000000       15.0350           
     648 A    324  NDE  BD2  CH30     0.000000       15.0350           
     649 A    325  NDE  BD1  CH30     0.000000       15.0350           
     650 A    325  NDE  BD2  CH30     0.000000       15.0350           
     651 A    326  NDE  BD1  CH30     0.000000       15.0350           
     652 A    326  NDE  BD2  CH30     0.000000       15.0350           
     653 A    327  NDE  BD1  CH30     0.000000       15.0350           
     654 A    327  NDE  BD2  CH30     0.000000       15.0350           
     655 A    328  NDE  BD1  CH30     0.000000       15.0350           
     656 A    328  NDE  BD2  CH30     0.000000       15.0350           
     657 A    329  NDE  BD1  CH30     0.000000       15.0350           
     658 A    329  NDE  BD2  CH30     0.000000       15.0350           
     659 A    330  NDE  BD1  CH30     0.000000       15.0350           
     660 A    330  NDE  BD2  CH30     0.000000       15.0350           
     661 A    331  NDE  BD1  CH30     0.000000       15.0350           
     662 A    331  NDE  BD2  CH30     0.000000       15.0350           
     663 A    332  NDE  BD1  CH30     0.000000       15.0350           
     664 A    332  NDE  BD2  CH30     0.000000       15.0350           
     665 A    333  NDE  BD1  CH30     0.000000       15.0350           
     666 A    333  NDE  BD2  CH30     0.000000       15.0350           
     667 A    334  NDE  BD1  CH30     0.000000       15.0350           
     668 A    334  NDE  BD2  CH30     0.000000       15.0350           
     669 A    335  NDE  BD1  CH30     0.000000       15.0350           
     670 A    335  NDE  BD2  CH30     0.000000       15.0350           
     671 A    336  NDE  BD1  CH30     0.000000       15.0350           
     672 A    336  NDE  BD2  CH30     0.000000       15.0350           
     673 A    337  NDE  BD1  CH30     0.000000       15.0350           
     674 A    337  NDE  BD2  CH30     0.000000       15.0350           
     675 A    338  NDE  BD1  CH30     0.000000       15.0350           
     676 A    338  NDE  BD2  CH30     0.000000       15.0350           
     677 A    339  NDE  BD1  CH30     0.000000       15.0350           
     678 A    339  NDE  BD2  CH30     0.000000       15.0350           
     679 A    340  NDE  BD1  CH30     0.000000       15.0350           
     680 A    340  NDE  BD2  CH30     0.000000       15.0350           
     681 A    341  NDE  BD1  CH30     0.000000       15.0350           
     682 A    341  NDE  BD2  CH30     0.000000       15.0350           
     683 A    342  NDE  BD1  CH30     0.000000       15.0350           
     684 A    342  NDE  BD2  CH30     0.000000       15.0350           
     685 A    343  NDE  BD1  CH30     0.000000       15.0350           
     686 A    343  NDE  BD2  CH30     0.000000       15.0350           
     687 A    344  NDE  BD1  CH30     0.000000       15.0350           
     688 A    344  NDE  BD2  CH30     0.000000       15.0350           
     689 A    345  NDE  BD1  CH30     0.000000       15.0350           
     690 A    345  NDE  BD2  CH30     0.000000       15.0350           
     691 A    346  NDE  BD1  CH30     0.000000       15.0350           
     692 A    346  NDE  BD2  CH30     0.000000       15.0350           
     693 A    347  NDE  BD1  CH30     0.000000       15.0350           
     694 A    347  NDE  BD2  CH30     0.000000       15.0350           
     695 A    348  NDE  BD1  CH30     0.000000       15.0350           
     696 A    348  NDE  BD2  CH30     0.000000       15.0350           
     697 A    349  NDE  BD1  CH30     0.000000       15.0350           
     698 A    349  NDE  BD2  CH30     0.000000       15.0350           
     699 A    350  NDE  BD1  CH30     0.000000       15.0350           
     700 A    350  NDE  BD2  CH30     0.000000       15.0350           
     701 A    351  NDE  BD1  CH30     0.000000       15.0350           
     702 A    351  NDE  BD2  CH30     0.000000       15.0350           
     703 A    352  NDE  BD1  CH30     0.000000       15.0350           
     704 A    352  NDE  BD2  CH30     0.000000       15.0350           
     705 A    353  NDE  BD1  CH30     0.000000       15.0350           
     706 A    353  NDE  BD2  CH30     0.000000       15.0350           
     707 A    354  NDE  BD1  CH30     0.000000       15.0350           
     708 A    354  NDE  BD2  CH30     0.000000       15.0350           
     709 A    355  NDE  BD1  CH30     0.000000       15.0350           
     710 A    355  NDE  BD2  CH30     0.000000       15.0350           
     711 A    356  NDE  BD1  CH30     0.000000       15.0350           
     712 A    356  NDE  BD2  CH30     0.000000       15.0350           
     713 A    357  NDE  BD1  CH30     0.000000       15.0350           
     714 A    357  NDE  BD2  CH30     0.000000       15.0350           
     715 A    358  NDE  BD1  CH30     0.000000       15.0350           
     716 A    358  NDE  BD2  CH30     0.000000       15.0350           
     717 A    359  NDE  BD1  CH30     0.000000       15.0350           
     718 A    359  NDE  BD2  CH30     0.000000       15.0350           
     719 A    360  NDE  BD1  CH30     0.000000       15.0350           
     720 A    360  NDE  BD2  CH30     0.000000       15.0350           
     721 A    361  NDE  BD1  CH30     0.000000       15.0350           
     722 A    361  NDE  BD2  CH30     0.000000       15.0350           
     723 A    362  NDE  BD1  CH30     0.000000       15.0350           
     724 A    362  NDE  BD2  CH30     0.000000       15.0350           
     725 A    363  NDE  BD1  CH30     0.000000       15.0350           
     726 A    363  NDE  BD2  CH30     0.000000       15.0350           
     727 A    364  NDE  BD1  CH30     0.000000       15.0350           
     728 A    364  NDE  BD2  CH30     0.000000       15.0350           
     729 A    365  NDE  BD1  CH30     0.000000       15.0350           
     730 A    365  NDE  BD2  CH30     0.000000       15.0350           
     731 A    366  NDE  BD1  CH30     0.000000       15.0350           
     732 A    366  NDE  BD2  CH30     0.000000       15.0350           
     733 A    367  NDE  BD1  CH30     0.000000       15.0350           
     734 A    367  NDE  BD2  CH30     0.000000       15.0350           
     735 A    368  NDE  BD1  CH30     0.000000       15.0350           
     736 A    368  NDE  BD2  CH30     0.000000       15.0350           
     737 A    369  NDE  BD1  CH30     0.000000       15.0350           
     738 A    369  NDE  BD2  CH30     0.000000       15.0350           
     739 A    370  NDE  BD1  CH30     0.000000       15.0350           
     740 A    370  NDE  BD2  CH30     0.000000       15.0350           
     741 A    371  NDE  BD1  CH30     0.000000       15.0350           
     742 A    371  NDE  BD2  CH30     0.000000       15.0350           
     743 A    372  NDE  BD1  CH30     0.000000       15.0350           
     744 A    372  NDE  BD2  CH30     0.000000       15.0350           
     745 A    373  NDE  BD1  CH30     0.000000       15.0350           
     746 A    373  NDE  BD2  CH30     0.000000       15.0350           
     747 A    374  NDE  BD1  CH30     0.000000       15.0350           
     748 A    374  NDE  BD2  CH30     0.000000       15.0350           
     749 A    375  NDE  BD1  CH30     0.000000       15.0350           
     750 A    375  NDE  BD2  CH30     0.000000       15.0350           
     751 A    376  NDE  BD1  CH30     0.000000       15.0350           
     752 A    376  NDE  BD2  CH30     0.000000       15.0350           
     753 A    377  NDE  BD1  CH30     0.000000       15.0350           
     754 A    377  NDE  BD2  CH30     0.000000       15.0350           
     755 A    378  NDE  BD1  CH30     0.000000       15.0350           
     756 A    378  NDE  BD2  CH30     0.000000       15.0350           
     757 A    379  NDE  BD1  CH30     0.000000       15.0350           
     758 A    379  NDE  BD2  CH30     0.000000       15.0350           
     759 A    380  NDE  BD1  CH30     0.000000       15.0350           
     760 A    380  NDE  BD2  CH30     0.000000       15.0350           
     761 A    381  NDE  BD1  CH30     0.000000       15.0350           
     762 A    381  NDE  BD2  CH30     0.000000       15.0350           
     763 A    382  NDE  BD1  CH30     0.000000       15.0350           
     764 A    382  NDE  BD2  CH30     0.000000       15.0350           
     765 A    383  NDE  BD1  CH30     0.000000       15.0350           
     766 A    383  NDE  BD2  CH30     0.000000       15.0350           
     767 A    384  NDE  BD1  CH30     0.000000       15.0350           
     768 A    384  NDE  BD2  CH30     0.000000       15.0350           
     769 A    385  NDE  BD1  CH30     0.000000       15.0350           
     770 A    385  NDE  BD2  CH30     0.000000       15.0350           
     771 A    386  NDE  BD1  CH30     0.000000       15.0350           
     772 A    386  NDE  BD2  CH30     0.000000       15.0350           
     773 A    387  NDE  BD1  CH30     0.000000       15.0350           
     774 A    387  NDE  BD2  CH30     0.000000       15.0350           
     775 A    388  NDE  BD1  CH30     0.000000       15.0350           
     776 A    388  NDE  BD2  CH30     0.000000       15.0350           
     777 A    389  NDE  BD1  CH30     0.000000       15.0350           
     778 A    389  NDE  BD2  CH30     0.000000       15.0350           
     779 A    390  NDE  BD1  CH30     0.000000       15.0350           
     780 A    390  NDE  BD2  CH30     0.000000       15.0350           
     781 A    391  NDE  BD1  CH30     0.000000       15.0350           
     782 A    391  NDE  BD2  CH30     0.000000       15.0350           
     783 A    392  NDE  BD1  CH30     0.000000       15.0350           
     784 A    392  NDE  BD2  CH30     0.000000       15.0350           
     785 A    393  NDE  BD1  CH30     0.000000       15.0350           
     786 A    393  NDE  BD2  CH30     0.000000       15.0350           
     787 A    394  NDE  BD1  CH30     0.000000       15.0350           
     788 A    394  NDE  BD2  CH30     0.000000       15.0350           
     789 A    395  NDE  BD1  CH30     0.000000       15.0350           
     790 A    395  NDE  BD2  CH30     0.000000       15.0350           
     791 A    396  NDE  BD1  CH30     0.000000       15.0350           
     792 A    396  NDE  BD2  CH30     0.000000       15.0350           
     793 A    397  NDE  BD1  CH30     0.000000       15.0350           
     794 A    397  NDE  BD2  CH30     0.000000       15.0350           
     795 A    398  NDE  BD1  CH30     0.000000       15.0350           
     796 A    398  NDE  BD2  CH30     0.000000       15.0350           
     797 A    399  NDE  BD1  CH30     0.000000       15.0350           
     798 A    399  NDE  BD2  CH30     0.000000       15.0350           
     799 A    400  NDE  BD1  CH30     0.000000       15.0350           
     800 A    400  NDE  BD2  CH30     0.000000       15.0350           

     400 !NBOND: bonds
       2       1       4       3       6       5       8       7
      10       9      12      11      14      13      16      15
      18      17      20      19      22      21      24      23
      26      25      28      27      30      29      32      31
      34      33      36      35      38      37      40      39
      42      41      44      43      46      45      48      47
      50      49      52      51      54      53      56      55
      58      57      60      59      62      61      64      63
      66      65      68      67      70      69      72      71
      74      73      76      75      78      77      80      79
      82      81      84      83      86      85      88      87
      90      89      92      91      94      93      96      95
      98      97     100      99     102     101     104     103
     106     105     108     107     110     109     112     111
     114     113     116     115     118     117     120     119
     122     121     124     123     126     125     128     127
     130     129     132     131     134     133     136     135
     138     137     140     139     142     141     144     143
     146     145     148     147     150     149     152     151
     154     153     156     155     158     157     160     159
     162     161     164     163     166     165     168     167
     170     169     172     171     174     173     176     175
     178     177     180     179     182     181     184     183
     186     185     188     187     190     189     192     191
     194     193     196     195     198     197     200     199
     202     201     204     203     206     205     208     207
     210     209     212     211     214     213     216     215
     218     217     220     219     222     221     224     223
     226     225     228     227     230     229     232     231
     234     233     236     235     238     237     240     239
     242     241     244     243     246     245     248     247
     250     249     252     251     254     253     256     255
     258     257     260     259     262     261     264     263
     266     265     268     267     270     269     272     271
     274     273     276     275     278     277     280     279
     282     281     284     283     286     285     288     287
     290     289     292     291     294     293     296     295
     298     297     300     299     302     301     304     303
     306     305     308     307     310     309     312     311
     314     313     316     315     318     317     320     319
     322     321     324     323     326     325     328     327
     330     329     332     331     334     333     336     335
     338     337     340     339     342     341     344     343
     346     345     348     347     350     349     352     351
     354     353     356     355     358     357     360     359
     362     361     364     363     366     365     368     367
     370     369     372     371     374     373     376     375
     378     377     380     379     382     381     384     383
     386     385     388     387     390     389     392     391
     394     393     396     395     398     397     400     399
     402     401     404     403     406     405     408     407
     410     409     412     411     414     413     416     415
     418     417     420     419     422     421     424     423
     426     425     428     427     430     429     432     431
     434     433     436     435     438     437     440     439
     442     441     444     443     446     445     448     447
     450     449     452     451     454     453     456     455
     458     457     460     459     462     461     464     463
     466     465     468     467     470     469     472     471
     474     473     476     475     478     477     480     479
     482     481     484     483     486     485     488     487
     490     489     492     491     494     493     496     495
     498     497     500     499     502     501     504     503
     506     505     508     507     510     509     512     511
     514     513     516     515     518     517     520     519
     522     521     524     523     526     525     528     527
     530     529     532     531     534     533     536     535
     538     537     540     539     542     541     544     543
     546     545     548     547     550     549     552     551
     554     553     556     555     558     557     560     559
     562     561     564     563     566     565     568     567
     570     569     572     571     574     573     576     575
     578     577     580     579     582     581     584     583
     586     585     588     587     590     589     592     591
     594     593     596     595     598     597     600     599
     602     601     604     603     606     605     608     607
     610     609     612     611     614     613     616     615
     618     617     620     619     622     621     624     623
     626     625     628     627     630     629     632     631
     634     633     636     635     638     637     640     639
     642     641     644     643     646     645     648     647
     650     649     652     651     654     653     656     655
     658     657     660     659     662     661     664     663
     666     665     668     667     670     669     672     671
     674     673     676     675     678     677     680     679
     682     681     684     683     686     685     688     687
     690     689     692     691     694     693     696     695
     698     697     700     699     702     701     704     703
     706     705     708     707     710     709     712     711
     714     713     716     715     718     717     720     719
     722     721     724     723     726     725     728     727
     730     729     732     731     734     733     736     735
     738     737     740     739     742     741     744     743
     746     745     748     747     750     749     752     751
     754     753     756     755     758     757     760     759
     762     761     764     763     766     765     768     767
     770     769     772     771     774     773     776     775
     778     777     780     779     782     781     784     783
     786     785     788     787     790     789     792     791
     794     793     796     795     798     797     800     799

       0 !NTHETA: angles


       0 !NPHI: dihedrals


       0 !NIMPHI: impropers


       0 !NDON: donors

       0 !NACC: acceptors

       0 !NNB

       0 !NGRP 

