PSF 

       3 !NTITLE
 REMARKS this file GEMC_opc_N100000_T350_box1 - created by using MoSDeF-GOMC. 
 REMARKS parameters from the {'TIP4': '/home/ia5498/opc_water/OPC.xml'} force field via MoSDef
 REMARKS created on 2026-07-30 14:13:17.469649


   12000 !NATOM
       1 A    7010 TIP4 O1   OW0      0.000000       15.9990           
       2 A    7010 TIP4 H1   HW0      0.679100        1.0080           
       3 A    7010 TIP4 H2   HW0      0.679100        1.0080           
       4 A    7010 TIP4 BD1  LP0     -1.358200        0.0000           
       5 A    7011 TIP4 O1   OW0      0.000000       15.9990           
       6 A    7011 TIP4 H1   HW0      0.679100        1.0080           
       7 A    7011 TIP4 H2   HW0      0.679100        1.0080           
       8 A    7011 TIP4 BD1  LP0     -1.358200        0.0000           
       9 A    7012 TIP4 O1   OW0      0.000000       15.9990           
      10 A    7012 TIP4 H1   HW0      0.679100        1.0080           
      11 A    7012 TIP4 H2   HW0      0.679100        1.0080           
      12 A    7012 TIP4 BD1  LP0     -1.358200        0.0000           
      13 A    7013 TIP4 O1   OW0      0.000000       15.9990           
      14 A    7013 TIP4 H1   HW0      0.679100        1.0080           
      15 A    7013 TIP4 H2   HW0      0.679100        1.0080           
      16 A    7013 TIP4 BD1  LP0     -1.358200        0.0000           
      17 A    7014 TIP4 O1   OW0      0.000000       15.9990           
      18 A    7014 TIP4 H1   HW0      0.679100        1.0080           
      19 A    7014 TIP4 H2   HW0      0.679100        1.0080           
      20 A    7014 TIP4 BD1  LP0     -1.358200        0.0000           
      21 A    7015 TIP4 O1   OW0      0.000000       15.9990           
      22 A    7015 TIP4 H1   HW0      0.679100        1.0080           
      23 A    7015 TIP4 H2   HW0      0.679100        1.0080           
      24 A    7015 TIP4 BD1  LP0     -1.358200        0.0000           
      25 A    7016 TIP4 O1   OW0      0.000000       15.9990           
      26 A    7016 TIP4 H1   HW0      0.679100        1.0080           
      27 A    7016 TIP4 H2   HW0      0.679100        1.0080           
      28 A    7016 TIP4 BD1  LP0     -1.358200        0.0000           
      29 A    7017 TIP4 O1   OW0      0.000000       15.9990           
      30 A    7017 TIP4 H1   HW0      0.679100        1.0080           
      31 A    7017 TIP4 H2   HW0      0.679100        1.0080           
      32 A    7017 TIP4 BD1  LP0     -1.358200        0.0000           
      33 A    7018 TIP4 O1   OW0      0.000000       15.9990           
      34 A    7018 TIP4 H1   HW0      0.679100        1.0080           
      35 A    7018 TIP4 H2   HW0      0.679100        1.0080           
      36 A    7018 TIP4 BD1  LP0     -1.358200        0.0000           
      37 A    7019 TIP4 O1   OW0      0.000000       15.9990           
      38 A    7019 TIP4 H1   HW0      0.679100        1.0080           
      39 A    7019 TIP4 H2   HW0      0.679100        1.0080           
      40 A    7019 TIP4 BD1  LP0     -1.358200        0.0000           
      41 A    7020 TIP4 O1   OW0      0.000000       15.9990           
      42 A    7020 TIP4 H1   HW0      0.679100        1.0080           
      43 A    7020 TIP4 H2   HW0      0.679100        1.0080           
      44 A    7020 TIP4 BD1  LP0     -1.358200        0.0000           
      45 A    7021 TIP4 O1   OW0      0.000000       15.9990           
      46 A    7021 TIP4 H1   HW0      0.679100        1.0080           
      47 A    7021 TIP4 H2   HW0      0.679100        1.0080           
      48 A    7021 TIP4 BD1  LP0     -1.358200        0.0000           
      49 A    7022 TIP4 O1   OW0      0.000000       15.9990           
      50 A    7022 TIP4 H1   HW0      0.679100        1.0080           
      51 A    7022 TIP4 H2   HW0      0.679100        1.0080           
      52 A    7022 TIP4 BD1  LP0     -1.358200        0.0000           
      53 A    7023 TIP4 O1   OW0      0.000000       15.9990           
      54 A    7023 TIP4 H1   HW0      0.679100        1.0080           
      55 A    7023 TIP4 H2   HW0      0.679100        1.0080           
      56 A    7023 TIP4 BD1  LP0     -1.358200        0.0000           
      57 A    7024 TIP4 O1   OW0      0.000000       15.9990           
      58 A    7024 TIP4 H1   HW0      0.679100        1.0080           
      59 A    7024 TIP4 H2   HW0      0.679100        1.0080           
      60 A    7024 TIP4 BD1  LP0     -1.358200        0.0000           
      61 A    7025 TIP4 O1   OW0      0.000000       15.9990           
      62 A    7025 TIP4 H1   HW0      0.679100        1.0080           
      63 A    7025 TIP4 H2   HW0      0.679100        1.0080           
      64 A    7025 TIP4 BD1  LP0     -1.358200        0.0000           
      65 A    7026 TIP4 O1   OW0      0.000000       15.9990           
      66 A    7026 TIP4 H1   HW0      0.679100        1.0080           
      67 A    7026 TIP4 H2   HW0      0.679100        1.0080           
      68 A    7026 TIP4 BD1  LP0     -1.358200        0.0000           
      69 A    7027 TIP4 O1   OW0      0.000000       15.9990           
      70 A    7027 TIP4 H1   HW0      0.679100        1.0080           
      71 A    7027 TIP4 H2   HW0      0.679100        1.0080           
      72 A    7027 TIP4 BD1  LP0     -1.358200        0.0000           
      73 A    7028 TIP4 O1   OW0      0.000000       15.9990           
      74 A    7028 TIP4 H1   HW0      0.679100        1.0080           
      75 A    7028 TIP4 H2   HW0      0.679100        1.0080           
      76 A    7028 TIP4 BD1  LP0     -1.358200        0.0000           
      77 A    7029 TIP4 O1   OW0      0.000000       15.9990           
      78 A    7029 TIP4 H1   HW0      0.679100        1.0080           
      79 A    7029 TIP4 H2   HW0      0.679100        1.0080           
      80 A    7029 TIP4 BD1  LP0     -1.358200        0.0000           
      81 A    7030 TIP4 O1   OW0      0.000000       15.9990           
      82 A    7030 TIP4 H1   HW0      0.679100        1.0080           
      83 A    7030 TIP4 H2   HW0      0.679100        1.0080           
      84 A    7030 TIP4 BD1  LP0     -1.358200        0.0000           
      85 A    7031 TIP4 O1   OW0      0.000000       15.9990           
      86 A    7031 TIP4 H1   HW0      0.679100        1.0080           
      87 A    7031 TIP4 H2   HW0      0.679100        1.0080           
      88 A    7031 TIP4 BD1  LP0     -1.358200        0.0000           
      89 A    7032 TIP4 O1   OW0      0.000000       15.9990           
      90 A    7032 TIP4 H1   HW0      0.679100        1.0080           
      91 A    7032 TIP4 H2   HW0      0.679100        1.0080           
      92 A    7032 TIP4 BD1  LP0     -1.358200        0.0000           
      93 A    7033 TIP4 O1   OW0      0.000000       15.9990           
      94 A    7033 TIP4 H1   HW0      0.679100        1.0080           
      95 A    7033 TIP4 H2   HW0      0.679100        1.0080           
      96 A    7033 TIP4 BD1  LP0     -1.358200        0.0000           
      97 A    7034 TIP4 O1   OW0      0.000000       15.9990           
      98 A    7034 TIP4 H1   HW0      0.679100        1.0080           
      99 A    7034 TIP4 H2   HW0      0.679100        1.0080           
     100 A    7034 TIP4 BD1  LP0     -1.358200        0.0000           
     101 A    7035 TIP4 O1   OW0      0.000000       15.9990           
     102 A    7035 TIP4 H1   HW0      0.679100        1.0080           
     103 A    7035 TIP4 H2   HW0      0.679100        1.0080           
     104 A    7035 TIP4 BD1  LP0     -1.358200        0.0000           
     105 A    7036 TIP4 O1   OW0      0.000000       15.9990           
     106 A    7036 TIP4 H1   HW0      0.679100        1.0080           
     107 A    7036 TIP4 H2   HW0      0.679100        1.0080           
     108 A    7036 TIP4 BD1  LP0     -1.358200        0.0000           
     109 A    7037 TIP4 O1   OW0      0.000000       15.9990           
     110 A    7037 TIP4 H1   HW0      0.679100        1.0080           
     111 A    7037 TIP4 H2   HW0      0.679100        1.0080           
     112 A    7037 TIP4 BD1  LP0     -1.358200        0.0000           
     113 A    7038 TIP4 O1   OW0      0.000000       15.9990           
     114 A    7038 TIP4 H1   HW0      0.679100        1.0080           
     115 A    7038 TIP4 H2   HW0      0.679100        1.0080           
     116 A    7038 TIP4 BD1  LP0     -1.358200        0.0000           
     117 A    7039 TIP4 O1   OW0      0.000000       15.9990           
     118 A    7039 TIP4 H1   HW0      0.679100        1.0080           
     119 A    7039 TIP4 H2   HW0      0.679100        1.0080           
     120 A    7039 TIP4 BD1  LP0     -1.358200        0.0000           
     121 A    7040 TIP4 O1   OW0      0.000000       15.9990           
     122 A    7040 TIP4 H1   HW0      0.679100        1.0080           
     123 A    7040 TIP4 H2   HW0      0.679100        1.0080           
     124 A    7040 TIP4 BD1  LP0     -1.358200        0.0000           
     125 A    7041 TIP4 O1   OW0      0.000000       15.9990           
     126 A    7041 TIP4 H1   HW0      0.679100        1.0080           
     127 A    7041 TIP4 H2   HW0      0.679100        1.0080           
     128 A    7041 TIP4 BD1  LP0     -1.358200        0.0000           
     129 A    7042 TIP4 O1   OW0      0.000000       15.9990           
     130 A    7042 TIP4 H1   HW0      0.679100        1.0080           
     131 A    7042 TIP4 H2   HW0      0.679100        1.0080           
     132 A    7042 TIP4 BD1  LP0     -1.358200        0.0000           
     133 A    7043 TIP4 O1   OW0      0.000000       15.9990           
     134 A    7043 TIP4 H1   HW0      0.679100        1.0080           
     135 A    7043 TIP4 H2   HW0      0.679100        1.0080           
     136 A    7043 TIP4 BD1  LP0     -1.358200        0.0000           
     137 A    7044 TIP4 O1   OW0      0.000000       15.9990           
     138 A    7044 TIP4 H1   HW0      0.679100        1.0080           
     139 A    7044 TIP4 H2   HW0      0.679100        1.0080           
     140 A    7044 TIP4 BD1  LP0     -1.358200        0.0000           
     141 A    7045 TIP4 O1   OW0      0.000000       15.9990           
     142 A    7045 TIP4 H1   HW0      0.679100        1.0080           
     143 A    7045 TIP4 H2   HW0      0.679100        1.0080           
     144 A    7045 TIP4 BD1  LP0     -1.358200        0.0000           
     145 A    7046 TIP4 O1   OW0      0.000000       15.9990           
     146 A    7046 TIP4 H1   HW0      0.679100        1.0080           
     147 A    7046 TIP4 H2   HW0      0.679100        1.0080           
     148 A    7046 TIP4 BD1  LP0     -1.358200        0.0000           
     149 A    7047 TIP4 O1   OW0      0.000000       15.9990           
     150 A    7047 TIP4 H1   HW0      0.679100        1.0080           
     151 A    7047 TIP4 H2   HW0      0.679100        1.0080           
     152 A    7047 TIP4 BD1  LP0     -1.358200        0.0000           
     153 A    7048 TIP4 O1   OW0      0.000000       15.9990           
     154 A    7048 TIP4 H1   HW0      0.679100        1.0080           
     155 A    7048 TIP4 H2   HW0      0.679100        1.0080           
     156 A    7048 TIP4 BD1  LP0     -1.358200        0.0000           
     157 A    7049 TIP4 O1   OW0      0.000000       15.9990           
     158 A    7049 TIP4 H1   HW0      0.679100        1.0080           
     159 A    7049 TIP4 H2   HW0      0.679100        1.0080           
     160 A    7049 TIP4 BD1  LP0     -1.358200        0.0000           
     161 A    7050 TIP4 O1   OW0      0.000000       15.9990           
     162 A    7050 TIP4 H1   HW0      0.679100        1.0080           
     163 A    7050 TIP4 H2   HW0      0.679100        1.0080           
     164 A    7050 TIP4 BD1  LP0     -1.358200        0.0000           
     165 A    7051 TIP4 O1   OW0      0.000000       15.9990           
     166 A    7051 TIP4 H1   HW0      0.679100        1.0080           
     167 A    7051 TIP4 H2   HW0      0.679100        1.0080           
     168 A    7051 TIP4 BD1  LP0     -1.358200        0.0000           
     169 A    7052 TIP4 O1   OW0      0.000000       15.9990           
     170 A    7052 TIP4 H1   HW0      0.679100        1.0080           
     171 A    7052 TIP4 H2   HW0      0.679100        1.0080           
     172 A    7052 TIP4 BD1  LP0     -1.358200        0.0000           
     173 A    7053 TIP4 O1   OW0      0.000000       15.9990           
     174 A    7053 TIP4 H1   HW0      0.679100        1.0080           
     175 A    7053 TIP4 H2   HW0      0.679100        1.0080           
     176 A    7053 TIP4 BD1  LP0     -1.358200        0.0000           
     177 A    7054 TIP4 O1   OW0      0.000000       15.9990           
     178 A    7054 TIP4 H1   HW0      0.679100        1.0080           
     179 A    7054 TIP4 H2   HW0      0.679100        1.0080           
     180 A    7054 TIP4 BD1  LP0     -1.358200        0.0000           
     181 A    7055 TIP4 O1   OW0      0.000000       15.9990           
     182 A    7055 TIP4 H1   HW0      0.679100        1.0080           
     183 A    7055 TIP4 H2   HW0      0.679100        1.0080           
     184 A    7055 TIP4 BD1  LP0     -1.358200        0.0000           
     185 A    7056 TIP4 O1   OW0      0.000000       15.9990           
     186 A    7056 TIP4 H1   HW0      0.679100        1.0080           
     187 A    7056 TIP4 H2   HW0      0.679100        1.0080           
     188 A    7056 TIP4 BD1  LP0     -1.358200        0.0000           
     189 A    7057 TIP4 O1   OW0      0.000000       15.9990           
     190 A    7057 TIP4 H1   HW0      0.679100        1.0080           
     191 A    7057 TIP4 H2   HW0      0.679100        1.0080           
     192 A    7057 TIP4 BD1  LP0     -1.358200        0.0000           
     193 A    7058 TIP4 O1   OW0      0.000000       15.9990           
     194 A    7058 TIP4 H1   HW0      0.679100        1.0080           
     195 A    7058 TIP4 H2   HW0      0.679100        1.0080           
     196 A    7058 TIP4 BD1  LP0     -1.358200        0.0000           
     197 A    7059 TIP4 O1   OW0      0.000000       15.9990           
     198 A    7059 TIP4 H1   HW0      0.679100        1.0080           
     199 A    7059 TIP4 H2   HW0      0.679100        1.0080           
     200 A    7059 TIP4 BD1  LP0     -1.358200        0.0000           
     201 A    7060 TIP4 O1   OW0      0.000000       15.9990           
     202 A    7060 TIP4 H1   HW0      0.679100        1.0080           
     203 A    7060 TIP4 H2   HW0      0.679100        1.0080           
     204 A    7060 TIP4 BD1  LP0     -1.358200        0.0000           
     205 A    7061 TIP4 O1   OW0      0.000000       15.9990           
     206 A    7061 TIP4 H1   HW0      0.679100        1.0080           
     207 A    7061 TIP4 H2   HW0      0.679100        1.0080           
     208 A    7061 TIP4 BD1  LP0     -1.358200        0.0000           
     209 A    7062 TIP4 O1   OW0      0.000000       15.9990           
     210 A    7062 TIP4 H1   HW0      0.679100        1.0080           
     211 A    7062 TIP4 H2   HW0      0.679100        1.0080           
     212 A    7062 TIP4 BD1  LP0     -1.358200        0.0000           
     213 A    7063 TIP4 O1   OW0      0.000000       15.9990           
     214 A    7063 TIP4 H1   HW0      0.679100        1.0080           
     215 A    7063 TIP4 H2   HW0      0.679100        1.0080           
     216 A    7063 TIP4 BD1  LP0     -1.358200        0.0000           
     217 A    7064 TIP4 O1   OW0      0.000000       15.9990           
     218 A    7064 TIP4 H1   HW0      0.679100        1.0080           
     219 A    7064 TIP4 H2   HW0      0.679100        1.0080           
     220 A    7064 TIP4 BD1  LP0     -1.358200        0.0000           
     221 A    7065 TIP4 O1   OW0      0.000000       15.9990           
     222 A    7065 TIP4 H1   HW0      0.679100        1.0080           
     223 A    7065 TIP4 H2   HW0      0.679100        1.0080           
     224 A    7065 TIP4 BD1  LP0     -1.358200        0.0000           
     225 A    7066 TIP4 O1   OW0      0.000000       15.9990           
     226 A    7066 TIP4 H1   HW0      0.679100        1.0080           
     227 A    7066 TIP4 H2   HW0      0.679100        1.0080           
     228 A    7066 TIP4 BD1  LP0     -1.358200        0.0000           
     229 A    7067 TIP4 O1   OW0      0.000000       15.9990           
     230 A    7067 TIP4 H1   HW0      0.679100        1.0080           
     231 A    7067 TIP4 H2   HW0      0.679100        1.0080           
     232 A    7067 TIP4 BD1  LP0     -1.358200        0.0000           
     233 A    7068 TIP4 O1   OW0      0.000000       15.9990           
     234 A    7068 TIP4 H1   HW0      0.679100        1.0080           
     235 A    7068 TIP4 H2   HW0      0.679100        1.0080           
     236 A    7068 TIP4 BD1  LP0     -1.358200        0.0000           
     237 A    7069 TIP4 O1   OW0      0.000000       15.9990           
     238 A    7069 TIP4 H1   HW0      0.679100        1.0080           
     239 A    7069 TIP4 H2   HW0      0.679100        1.0080           
     240 A    7069 TIP4 BD1  LP0     -1.358200        0.0000           
     241 A    7070 TIP4 O1   OW0      0.000000       15.9990           
     242 A    7070 TIP4 H1   HW0      0.679100        1.0080           
     243 A    7070 TIP4 H2   HW0      0.679100        1.0080           
     244 A    7070 TIP4 BD1  LP0     -1.358200        0.0000           
     245 A    7071 TIP4 O1   OW0      0.000000       15.9990           
     246 A    7071 TIP4 H1   HW0      0.679100        1.0080           
     247 A    7071 TIP4 H2   HW0      0.679100        1.0080           
     248 A    7071 TIP4 BD1  LP0     -1.358200        0.0000           
     249 A    7072 TIP4 O1   OW0      0.000000       15.9990           
     250 A    7072 TIP4 H1   HW0      0.679100        1.0080           
     251 A    7072 TIP4 H2   HW0      0.679100        1.0080           
     252 A    7072 TIP4 BD1  LP0     -1.358200        0.0000           
     253 A    7073 TIP4 O1   OW0      0.000000       15.9990           
     254 A    7073 TIP4 H1   HW0      0.679100        1.0080           
     255 A    7073 TIP4 H2   HW0      0.679100        1.0080           
     256 A    7073 TIP4 BD1  LP0     -1.358200        0.0000           
     257 A    7074 TIP4 O1   OW0      0.000000       15.9990           
     258 A    7074 TIP4 H1   HW0      0.679100        1.0080           
     259 A    7074 TIP4 H2   HW0      0.679100        1.0080           
     260 A    7074 TIP4 BD1  LP0     -1.358200        0.0000           
     261 A    7075 TIP4 O1   OW0      0.000000       15.9990           
     262 A    7075 TIP4 H1   HW0      0.679100        1.0080           
     263 A    7075 TIP4 H2   HW0      0.679100        1.0080           
     264 A    7075 TIP4 BD1  LP0     -1.358200        0.0000           
     265 A    7076 TIP4 O1   OW0      0.000000       15.9990           
     266 A    7076 TIP4 H1   HW0      0.679100        1.0080           
     267 A    7076 TIP4 H2   HW0      0.679100        1.0080           
     268 A    7076 TIP4 BD1  LP0     -1.358200        0.0000           
     269 A    7077 TIP4 O1   OW0      0.000000       15.9990           
     270 A    7077 TIP4 H1   HW0      0.679100        1.0080           
     271 A    7077 TIP4 H2   HW0      0.679100        1.0080           
     272 A    7077 TIP4 BD1  LP0     -1.358200        0.0000           
     273 A    7078 TIP4 O1   OW0      0.000000       15.9990           
     274 A    7078 TIP4 H1   HW0      0.679100        1.0080           
     275 A    7078 TIP4 H2   HW0      0.679100        1.0080           
     276 A    7078 TIP4 BD1  LP0     -1.358200        0.0000           
     277 A    7079 TIP4 O1   OW0      0.000000       15.9990           
     278 A    7079 TIP4 H1   HW0      0.679100        1.0080           
     279 A    7079 TIP4 H2   HW0      0.679100        1.0080           
     280 A    7079 TIP4 BD1  LP0     -1.358200        0.0000           
     281 A    7080 TIP4 O1   OW0      0.000000       15.9990           
     282 A    7080 TIP4 H1   HW0      0.679100        1.0080           
     283 A    7080 TIP4 H2   HW0      0.679100        1.0080           
     284 A    7080 TIP4 BD1  LP0     -1.358200        0.0000           
     285 A    7081 TIP4 O1   OW0      0.000000       15.9990           
     286 A    7081 TIP4 H1   HW0      0.679100        1.0080           
     287 A    7081 TIP4 H2   HW0      0.679100        1.0080           
     288 A    7081 TIP4 BD1  LP0     -1.358200        0.0000           
     289 A    7082 TIP4 O1   OW0      0.000000       15.9990           
     290 A    7082 TIP4 H1   HW0      0.679100        1.0080           
     291 A    7082 TIP4 H2   HW0      0.679100        1.0080           
     292 A    7082 TIP4 BD1  LP0     -1.358200        0.0000           
     293 A    7083 TIP4 O1   OW0      0.000000       15.9990           
     294 A    7083 TIP4 H1   HW0      0.679100        1.0080           
     295 A    7083 TIP4 H2   HW0      0.679100        1.0080           
     296 A    7083 TIP4 BD1  LP0     -1.358200        0.0000           
     297 A    7084 TIP4 O1   OW0      0.000000       15.9990           
     298 A    7084 TIP4 H1   HW0      0.679100        1.0080           
     299 A    7084 TIP4 H2   HW0      0.679100        1.0080           
     300 A    7084 TIP4 BD1  LP0     -1.358200        0.0000           
     301 A    7085 TIP4 O1   OW0      0.000000       15.9990           
     302 A    7085 TIP4 H1   HW0      0.679100        1.0080           
     303 A    7085 TIP4 H2   HW0      0.679100        1.0080           
     304 A    7085 TIP4 BD1  LP0     -1.358200        0.0000           
     305 A    7086 TIP4 O1   OW0      0.000000       15.9990           
     306 A    7086 TIP4 H1   HW0      0.679100        1.0080           
     307 A    7086 TIP4 H2   HW0      0.679100        1.0080           
     308 A    7086 TIP4 BD1  LP0     -1.358200        0.0000           
     309 A    7087 TIP4 O1   OW0      0.000000       15.9990           
     310 A    7087 TIP4 H1   HW0      0.679100        1.0080           
     311 A    7087 TIP4 H2   HW0      0.679100        1.0080           
     312 A    7087 TIP4 BD1  LP0     -1.358200        0.0000           
     313 A    7088 TIP4 O1   OW0      0.000000       15.9990           
     314 A    7088 TIP4 H1   HW0      0.679100        1.0080           
     315 A    7088 TIP4 H2   HW0      0.679100        1.0080           
     316 A    7088 TIP4 BD1  LP0     -1.358200        0.0000           
     317 A    7089 TIP4 O1   OW0      0.000000       15.9990           
     318 A    7089 TIP4 H1   HW0      0.679100        1.0080           
     319 A    7089 TIP4 H2   HW0      0.679100        1.0080           
     320 A    7089 TIP4 BD1  LP0     -1.358200        0.0000           
     321 A    7090 TIP4 O1   OW0      0.000000       15.9990           
     322 A    7090 TIP4 H1   HW0      0.679100        1.0080           
     323 A    7090 TIP4 H2   HW0      0.679100        1.0080           
     324 A    7090 TIP4 BD1  LP0     -1.358200        0.0000           
     325 A    7091 TIP4 O1   OW0      0.000000       15.9990           
     326 A    7091 TIP4 H1   HW0      0.679100        1.0080           
     327 A    7091 TIP4 H2   HW0      0.679100        1.0080           
     328 A    7091 TIP4 BD1  LP0     -1.358200        0.0000           
     329 A    7092 TIP4 O1   OW0      0.000000       15.9990           
     330 A    7092 TIP4 H1   HW0      0.679100        1.0080           
     331 A    7092 TIP4 H2   HW0      0.679100        1.0080           
     332 A    7092 TIP4 BD1  LP0     -1.358200        0.0000           
     333 A    7093 TIP4 O1   OW0      0.000000       15.9990           
     334 A    7093 TIP4 H1   HW0      0.679100        1.0080           
     335 A    7093 TIP4 H2   HW0      0.679100        1.0080           
     336 A    7093 TIP4 BD1  LP0     -1.358200        0.0000           
     337 A    7094 TIP4 O1   OW0      0.000000       15.9990           
     338 A    7094 TIP4 H1   HW0      0.679100        1.0080           
     339 A    7094 TIP4 H2   HW0      0.679100        1.0080           
     340 A    7094 TIP4 BD1  LP0     -1.358200        0.0000           
     341 A    7095 TIP4 O1   OW0      0.000000       15.9990           
     342 A    7095 TIP4 H1   HW0      0.679100        1.0080           
     343 A    7095 TIP4 H2   HW0      0.679100        1.0080           
     344 A    7095 TIP4 BD1  LP0     -1.358200        0.0000           
     345 A    7096 TIP4 O1   OW0      0.000000       15.9990           
     346 A    7096 TIP4 H1   HW0      0.679100        1.0080           
     347 A    7096 TIP4 H2   HW0      0.679100        1.0080           
     348 A    7096 TIP4 BD1  LP0     -1.358200        0.0000           
     349 A    7097 TIP4 O1   OW0      0.000000       15.9990           
     350 A    7097 TIP4 H1   HW0      0.679100        1.0080           
     351 A    7097 TIP4 H2   HW0      0.679100        1.0080           
     352 A    7097 TIP4 BD1  LP0     -1.358200        0.0000           
     353 A    7098 TIP4 O1   OW0      0.000000       15.9990           
     354 A    7098 TIP4 H1   HW0      0.679100        1.0080           
     355 A    7098 TIP4 H2   HW0      0.679100        1.0080           
     356 A    7098 TIP4 BD1  LP0     -1.358200        0.0000           
     357 A    7099 TIP4 O1   OW0      0.000000       15.9990           
     358 A    7099 TIP4 H1   HW0      0.679100        1.0080           
     359 A    7099 TIP4 H2   HW0      0.679100        1.0080           
     360 A    7099 TIP4 BD1  LP0     -1.358200        0.0000           
     361 A    7100 TIP4 O1   OW0      0.000000       15.9990           
     362 A    7100 TIP4 H1   HW0      0.679100        1.0080           
     363 A    7100 TIP4 H2   HW0      0.679100        1.0080           
     364 A    7100 TIP4 BD1  LP0     -1.358200        0.0000           
     365 A    7101 TIP4 O1   OW0      0.000000       15.9990           
     366 A    7101 TIP4 H1   HW0      0.679100        1.0080           
     367 A    7101 TIP4 H2   HW0      0.679100        1.0080           
     368 A    7101 TIP4 BD1  LP0     -1.358200        0.0000           
     369 A    7102 TIP4 O1   OW0      0.000000       15.9990           
     370 A    7102 TIP4 H1   HW0      0.679100        1.0080           
     371 A    7102 TIP4 H2   HW0      0.679100        1.0080           
     372 A    7102 TIP4 BD1  LP0     -1.358200        0.0000           
     373 A    7103 TIP4 O1   OW0      0.000000       15.9990           
     374 A    7103 TIP4 H1   HW0      0.679100        1.0080           
     375 A    7103 TIP4 H2   HW0      0.679100        1.0080           
     376 A    7103 TIP4 BD1  LP0     -1.358200        0.0000           
     377 A    7104 TIP4 O1   OW0      0.000000       15.9990           
     378 A    7104 TIP4 H1   HW0      0.679100        1.0080           
     379 A    7104 TIP4 H2   HW0      0.679100        1.0080           
     380 A    7104 TIP4 BD1  LP0     -1.358200        0.0000           
     381 A    7105 TIP4 O1   OW0      0.000000       15.9990           
     382 A    7105 TIP4 H1   HW0      0.679100        1.0080           
     383 A    7105 TIP4 H2   HW0      0.679100        1.0080           
     384 A    7105 TIP4 BD1  LP0     -1.358200        0.0000           
     385 A    7106 TIP4 O1   OW0      0.000000       15.9990           
     386 A    7106 TIP4 H1   HW0      0.679100        1.0080           
     387 A    7106 TIP4 H2   HW0      0.679100        1.0080           
     388 A    7106 TIP4 BD1  LP0     -1.358200        0.0000           
     389 A    7107 TIP4 O1   OW0      0.000000       15.9990           
     390 A    7107 TIP4 H1   HW0      0.679100        1.0080           
     391 A    7107 TIP4 H2   HW0      0.679100        1.0080           
     392 A    7107 TIP4 BD1  LP0     -1.358200        0.0000           
     393 A    7108 TIP4 O1   OW0      0.000000       15.9990           
     394 A    7108 TIP4 H1   HW0      0.679100        1.0080           
     395 A    7108 TIP4 H2   HW0      0.679100        1.0080           
     396 A    7108 TIP4 BD1  LP0     -1.358200        0.0000           
     397 A    7109 TIP4 O1   OW0      0.000000       15.9990           
     398 A    7109 TIP4 H1   HW0      0.679100        1.0080           
     399 A    7109 TIP4 H2   HW0      0.679100        1.0080           
     400 A    7109 TIP4 BD1  LP0     -1.358200        0.0000           
     401 A    7110 TIP4 O1   OW0      0.000000       15.9990           
     402 A    7110 TIP4 H1   HW0      0.679100        1.0080           
     403 A    7110 TIP4 H2   HW0      0.679100        1.0080           
     404 A    7110 TIP4 BD1  LP0     -1.358200        0.0000           
     405 A    7111 TIP4 O1   OW0      0.000000       15.9990           
     406 A    7111 TIP4 H1   HW0      0.679100        1.0080           
     407 A    7111 TIP4 H2   HW0      0.679100        1.0080           
     408 A    7111 TIP4 BD1  LP0     -1.358200        0.0000           
     409 A    7112 TIP4 O1   OW0      0.000000       15.9990           
     410 A    7112 TIP4 H1   HW0      0.679100        1.0080           
     411 A    7112 TIP4 H2   HW0      0.679100        1.0080           
     412 A    7112 TIP4 BD1  LP0     -1.358200        0.0000           
     413 A    7113 TIP4 O1   OW0      0.000000       15.9990           
     414 A    7113 TIP4 H1   HW0      0.679100        1.0080           
     415 A    7113 TIP4 H2   HW0      0.679100        1.0080           
     416 A    7113 TIP4 BD1  LP0     -1.358200        0.0000           
     417 A    7114 TIP4 O1   OW0      0.000000       15.9990           
     418 A    7114 TIP4 H1   HW0      0.679100        1.0080           
     419 A    7114 TIP4 H2   HW0      0.679100        1.0080           
     420 A    7114 TIP4 BD1  LP0     -1.358200        0.0000           
     421 A    7115 TIP4 O1   OW0      0.000000       15.9990           
     422 A    7115 TIP4 H1   HW0      0.679100        1.0080           
     423 A    7115 TIP4 H2   HW0      0.679100        1.0080           
     424 A    7115 TIP4 BD1  LP0     -1.358200        0.0000           
     425 A    7116 TIP4 O1   OW0      0.000000       15.9990           
     426 A    7116 TIP4 H1   HW0      0.679100        1.0080           
     427 A    7116 TIP4 H2   HW0      0.679100        1.0080           
     428 A    7116 TIP4 BD1  LP0     -1.358200        0.0000           
     429 A    7117 TIP4 O1   OW0      0.000000       15.9990           
     430 A    7117 TIP4 H1   HW0      0.679100        1.0080           
     431 A    7117 TIP4 H2   HW0      0.679100        1.0080           
     432 A    7117 TIP4 BD1  LP0     -1.358200        0.0000           
     433 A    7118 TIP4 O1   OW0      0.000000       15.9990           
     434 A    7118 TIP4 H1   HW0      0.679100        1.0080           
     435 A    7118 TIP4 H2   HW0      0.679100        1.0080           
     436 A    7118 TIP4 BD1  LP0     -1.358200        0.0000           
     437 A    7119 TIP4 O1   OW0      0.000000       15.9990           
     438 A    7119 TIP4 H1   HW0      0.679100        1.0080           
     439 A    7119 TIP4 H2   HW0      0.679100        1.0080           
     440 A    7119 TIP4 BD1  LP0     -1.358200        0.0000           
     441 A    7120 TIP4 O1   OW0      0.000000       15.9990           
     442 A    7120 TIP4 H1   HW0      0.679100        1.0080           
     443 A    7120 TIP4 H2   HW0      0.679100        1.0080           
     444 A    7120 TIP4 BD1  LP0     -1.358200        0.0000           
     445 A    7121 TIP4 O1   OW0      0.000000       15.9990           
     446 A    7121 TIP4 H1   HW0      0.679100        1.0080           
     447 A    7121 TIP4 H2   HW0      0.679100        1.0080           
     448 A    7121 TIP4 BD1  LP0     -1.358200        0.0000           
     449 A    7122 TIP4 O1   OW0      0.000000       15.9990           
     450 A    7122 TIP4 H1   HW0      0.679100        1.0080           
     451 A    7122 TIP4 H2   HW0      0.679100        1.0080           
     452 A    7122 TIP4 BD1  LP0     -1.358200        0.0000           
     453 A    7123 TIP4 O1   OW0      0.000000       15.9990           
     454 A    7123 TIP4 H1   HW0      0.679100        1.0080           
     455 A    7123 TIP4 H2   HW0      0.679100        1.0080           
     456 A    7123 TIP4 BD1  LP0     -1.358200        0.0000           
     457 A    7124 TIP4 O1   OW0      0.000000       15.9990           
     458 A    7124 TIP4 H1   HW0      0.679100        1.0080           
     459 A    7124 TIP4 H2   HW0      0.679100        1.0080           
     460 A    7124 TIP4 BD1  LP0     -1.358200        0.0000           
     461 A    7125 TIP4 O1   OW0      0.000000       15.9990           
     462 A    7125 TIP4 H1   HW0      0.679100        1.0080           
     463 A    7125 TIP4 H2   HW0      0.679100        1.0080           
     464 A    7125 TIP4 BD1  LP0     -1.358200        0.0000           
     465 A    7126 TIP4 O1   OW0      0.000000       15.9990           
     466 A    7126 TIP4 H1   HW0      0.679100        1.0080           
     467 A    7126 TIP4 H2   HW0      0.679100        1.0080           
     468 A    7126 TIP4 BD1  LP0     -1.358200        0.0000           
     469 A    7127 TIP4 O1   OW0      0.000000       15.9990           
     470 A    7127 TIP4 H1   HW0      0.679100        1.0080           
     471 A    7127 TIP4 H2   HW0      0.679100        1.0080           
     472 A    7127 TIP4 BD1  LP0     -1.358200        0.0000           
     473 A    7128 TIP4 O1   OW0      0.000000       15.9990           
     474 A    7128 TIP4 H1   HW0      0.679100        1.0080           
     475 A    7128 TIP4 H2   HW0      0.679100        1.0080           
     476 A    7128 TIP4 BD1  LP0     -1.358200        0.0000           
     477 A    7129 TIP4 O1   OW0      0.000000       15.9990           
     478 A    7129 TIP4 H1   HW0      0.679100        1.0080           
     479 A    7129 TIP4 H2   HW0      0.679100        1.0080           
     480 A    7129 TIP4 BD1  LP0     -1.358200        0.0000           
     481 A    7130 TIP4 O1   OW0      0.000000       15.9990           
     482 A    7130 TIP4 H1   HW0      0.679100        1.0080           
     483 A    7130 TIP4 H2   HW0      0.679100        1.0080           
     484 A    7130 TIP4 BD1  LP0     -1.358200        0.0000           
     485 A    7131 TIP4 O1   OW0      0.000000       15.9990           
     486 A    7131 TIP4 H1   HW0      0.679100        1.0080           
     487 A    7131 TIP4 H2   HW0      0.679100        1.0080           
     488 A    7131 TIP4 BD1  LP0     -1.358200        0.0000           
     489 A    7132 TIP4 O1   OW0      0.000000       15.9990           
     490 A    7132 TIP4 H1   HW0      0.679100        1.0080           
     491 A    7132 TIP4 H2   HW0      0.679100        1.0080           
     492 A    7132 TIP4 BD1  LP0     -1.358200        0.0000           
     493 A    7133 TIP4 O1   OW0      0.000000       15.9990           
     494 A    7133 TIP4 H1   HW0      0.679100        1.0080           
     495 A    7133 TIP4 H2   HW0      0.679100        1.0080           
     496 A    7133 TIP4 BD1  LP0     -1.358200        0.0000           
     497 A    7134 TIP4 O1   OW0      0.000000       15.9990           
     498 A    7134 TIP4 H1   HW0      0.679100        1.0080           
     499 A    7134 TIP4 H2   HW0      0.679100        1.0080           
     500 A    7134 TIP4 BD1  LP0     -1.358200        0.0000           
     501 A    7135 TIP4 O1   OW0      0.000000       15.9990           
     502 A    7135 TIP4 H1   HW0      0.679100        1.0080           
     503 A    7135 TIP4 H2   HW0      0.679100        1.0080           
     504 A    7135 TIP4 BD1  LP0     -1.358200        0.0000           
     505 A    7136 TIP4 O1   OW0      0.000000       15.9990           
     506 A    7136 TIP4 H1   HW0      0.679100        1.0080           
     507 A    7136 TIP4 H2   HW0      0.679100        1.0080           
     508 A    7136 TIP4 BD1  LP0     -1.358200        0.0000           
     509 A    7137 TIP4 O1   OW0      0.000000       15.9990           
     510 A    7137 TIP4 H1   HW0      0.679100        1.0080           
     511 A    7137 TIP4 H2   HW0      0.679100        1.0080           
     512 A    7137 TIP4 BD1  LP0     -1.358200        0.0000           
     513 A    7138 TIP4 O1   OW0      0.000000       15.9990           
     514 A    7138 TIP4 H1   HW0      0.679100        1.0080           
     515 A    7138 TIP4 H2   HW0      0.679100        1.0080           
     516 A    7138 TIP4 BD1  LP0     -1.358200        0.0000           
     517 A    7139 TIP4 O1   OW0      0.000000       15.9990           
     518 A    7139 TIP4 H1   HW0      0.679100        1.0080           
     519 A    7139 TIP4 H2   HW0      0.679100        1.0080           
     520 A    7139 TIP4 BD1  LP0     -1.358200        0.0000           
     521 A    7140 TIP4 O1   OW0      0.000000       15.9990           
     522 A    7140 TIP4 H1   HW0      0.679100        1.0080           
     523 A    7140 TIP4 H2   HW0      0.679100        1.0080           
     524 A    7140 TIP4 BD1  LP0     -1.358200        0.0000           
     525 A    7141 TIP4 O1   OW0      0.000000       15.9990           
     526 A    7141 TIP4 H1   HW0      0.679100        1.0080           
     527 A    7141 TIP4 H2   HW0      0.679100        1.0080           
     528 A    7141 TIP4 BD1  LP0     -1.358200        0.0000           
     529 A    7142 TIP4 O1   OW0      0.000000       15.9990           
     530 A    7142 TIP4 H1   HW0      0.679100        1.0080           
     531 A    7142 TIP4 H2   HW0      0.679100        1.0080           
     532 A    7142 TIP4 BD1  LP0     -1.358200        0.0000           
     533 A    7143 TIP4 O1   OW0      0.000000       15.9990           
     534 A    7143 TIP4 H1   HW0      0.679100        1.0080           
     535 A    7143 TIP4 H2   HW0      0.679100        1.0080           
     536 A    7143 TIP4 BD1  LP0     -1.358200        0.0000           
     537 A    7144 TIP4 O1   OW0      0.000000       15.9990           
     538 A    7144 TIP4 H1   HW0      0.679100        1.0080           
     539 A    7144 TIP4 H2   HW0      0.679100        1.0080           
     540 A    7144 TIP4 BD1  LP0     -1.358200        0.0000           
     541 A    7145 TIP4 O1   OW0      0.000000       15.9990           
     542 A    7145 TIP4 H1   HW0      0.679100        1.0080           
     543 A    7145 TIP4 H2   HW0      0.679100        1.0080           
     544 A    7145 TIP4 BD1  LP0     -1.358200        0.0000           
     545 A    7146 TIP4 O1   OW0      0.000000       15.9990           
     546 A    7146 TIP4 H1   HW0      0.679100        1.0080           
     547 A    7146 TIP4 H2   HW0      0.679100        1.0080           
     548 A    7146 TIP4 BD1  LP0     -1.358200        0.0000           
     549 A    7147 TIP4 O1   OW0      0.000000       15.9990           
     550 A    7147 TIP4 H1   HW0      0.679100        1.0080           
     551 A    7147 TIP4 H2   HW0      0.679100        1.0080           
     552 A    7147 TIP4 BD1  LP0     -1.358200        0.0000           
     553 A    7148 TIP4 O1   OW0      0.000000       15.9990           
     554 A    7148 TIP4 H1   HW0      0.679100        1.0080           
     555 A    7148 TIP4 H2   HW0      0.679100        1.0080           
     556 A    7148 TIP4 BD1  LP0     -1.358200        0.0000           
     557 A    7149 TIP4 O1   OW0      0.000000       15.9990           
     558 A    7149 TIP4 H1   HW0      0.679100        1.0080           
     559 A    7149 TIP4 H2   HW0      0.679100        1.0080           
     560 A    7149 TIP4 BD1  LP0     -1.358200        0.0000           
     561 A    7150 TIP4 O1   OW0      0.000000       15.9990           
     562 A    7150 TIP4 H1   HW0      0.679100        1.0080           
     563 A    7150 TIP4 H2   HW0      0.679100        1.0080           
     564 A    7150 TIP4 BD1  LP0     -1.358200        0.0000           
     565 A    7151 TIP4 O1   OW0      0.000000       15.9990           
     566 A    7151 TIP4 H1   HW0      0.679100        1.0080           
     567 A    7151 TIP4 H2   HW0      0.679100        1.0080           
     568 A    7151 TIP4 BD1  LP0     -1.358200        0.0000           
     569 A    7152 TIP4 O1   OW0      0.000000       15.9990           
     570 A    7152 TIP4 H1   HW0      0.679100        1.0080           
     571 A    7152 TIP4 H2   HW0      0.679100        1.0080           
     572 A    7152 TIP4 BD1  LP0     -1.358200        0.0000           
     573 A    7153 TIP4 O1   OW0      0.000000       15.9990           
     574 A    7153 TIP4 H1   HW0      0.679100        1.0080           
     575 A    7153 TIP4 H2   HW0      0.679100        1.0080           
     576 A    7153 TIP4 BD1  LP0     -1.358200        0.0000           
     577 A    7154 TIP4 O1   OW0      0.000000       15.9990           
     578 A    7154 TIP4 H1   HW0      0.679100        1.0080           
     579 A    7154 TIP4 H2   HW0      0.679100        1.0080           
     580 A    7154 TIP4 BD1  LP0     -1.358200        0.0000           
     581 A    7155 TIP4 O1   OW0      0.000000       15.9990           
     582 A    7155 TIP4 H1   HW0      0.679100        1.0080           
     583 A    7155 TIP4 H2   HW0      0.679100        1.0080           
     584 A    7155 TIP4 BD1  LP0     -1.358200        0.0000           
     585 A    7156 TIP4 O1   OW0      0.000000       15.9990           
     586 A    7156 TIP4 H1   HW0      0.679100        1.0080           
     587 A    7156 TIP4 H2   HW0      0.679100        1.0080           
     588 A    7156 TIP4 BD1  LP0     -1.358200        0.0000           
     589 A    7157 TIP4 O1   OW0      0.000000       15.9990           
     590 A    7157 TIP4 H1   HW0      0.679100        1.0080           
     591 A    7157 TIP4 H2   HW0      0.679100        1.0080           
     592 A    7157 TIP4 BD1  LP0     -1.358200        0.0000           
     593 A    7158 TIP4 O1   OW0      0.000000       15.9990           
     594 A    7158 TIP4 H1   HW0      0.679100        1.0080           
     595 A    7158 TIP4 H2   HW0      0.679100        1.0080           
     596 A    7158 TIP4 BD1  LP0     -1.358200        0.0000           
     597 A    7159 TIP4 O1   OW0      0.000000       15.9990           
     598 A    7159 TIP4 H1   HW0      0.679100        1.0080           
     599 A    7159 TIP4 H2   HW0      0.679100        1.0080           
     600 A    7159 TIP4 BD1  LP0     -1.358200        0.0000           
     601 A    7160 TIP4 O1   OW0      0.000000       15.9990           
     602 A    7160 TIP4 H1   HW0      0.679100        1.0080           
     603 A    7160 TIP4 H2   HW0      0.679100        1.0080           
     604 A    7160 TIP4 BD1  LP0     -1.358200        0.0000           
     605 A    7161 TIP4 O1   OW0      0.000000       15.9990           
     606 A    7161 TIP4 H1   HW0      0.679100        1.0080           
     607 A    7161 TIP4 H2   HW0      0.679100        1.0080           
     608 A    7161 TIP4 BD1  LP0     -1.358200        0.0000           
     609 A    7162 TIP4 O1   OW0      0.000000       15.9990           
     610 A    7162 TIP4 H1   HW0      0.679100        1.0080           
     611 A    7162 TIP4 H2   HW0      0.679100        1.0080           
     612 A    7162 TIP4 BD1  LP0     -1.358200        0.0000           
     613 A    7163 TIP4 O1   OW0      0.000000       15.9990           
     614 A    7163 TIP4 H1   HW0      0.679100        1.0080           
     615 A    7163 TIP4 H2   HW0      0.679100        1.0080           
     616 A    7163 TIP4 BD1  LP0     -1.358200        0.0000           
     617 A    7164 TIP4 O1   OW0      0.000000       15.9990           
     618 A    7164 TIP4 H1   HW0      0.679100        1.0080           
     619 A    7164 TIP4 H2   HW0      0.679100        1.0080           
     620 A    7164 TIP4 BD1  LP0     -1.358200        0.0000           
     621 A    7165 TIP4 O1   OW0      0.000000       15.9990           
     622 A    7165 TIP4 H1   HW0      0.679100        1.0080           
     623 A    7165 TIP4 H2   HW0      0.679100        1.0080           
     624 A    7165 TIP4 BD1  LP0     -1.358200        0.0000           
     625 A    7166 TIP4 O1   OW0      0.000000       15.9990           
     626 A    7166 TIP4 H1   HW0      0.679100        1.0080           
     627 A    7166 TIP4 H2   HW0      0.679100        1.0080           
     628 A    7166 TIP4 BD1  LP0     -1.358200        0.0000           
     629 A    7167 TIP4 O1   OW0      0.000000       15.9990           
     630 A    7167 TIP4 H1   HW0      0.679100        1.0080           
     631 A    7167 TIP4 H2   HW0      0.679100        1.0080           
     632 A    7167 TIP4 BD1  LP0     -1.358200        0.0000           
     633 A    7168 TIP4 O1   OW0      0.000000       15.9990           
     634 A    7168 TIP4 H1   HW0      0.679100        1.0080           
     635 A    7168 TIP4 H2   HW0      0.679100        1.0080           
     636 A    7168 TIP4 BD1  LP0     -1.358200        0.0000           
     637 A    7169 TIP4 O1   OW0      0.000000       15.9990           
     638 A    7169 TIP4 H1   HW0      0.679100        1.0080           
     639 A    7169 TIP4 H2   HW0      0.679100        1.0080           
     640 A    7169 TIP4 BD1  LP0     -1.358200        0.0000           
     641 A    7170 TIP4 O1   OW0      0.000000       15.9990           
     642 A    7170 TIP4 H1   HW0      0.679100        1.0080           
     643 A    7170 TIP4 H2   HW0      0.679100        1.0080           
     644 A    7170 TIP4 BD1  LP0     -1.358200        0.0000           
     645 A    7171 TIP4 O1   OW0      0.000000       15.9990           
     646 A    7171 TIP4 H1   HW0      0.679100        1.0080           
     647 A    7171 TIP4 H2   HW0      0.679100        1.0080           
     648 A    7171 TIP4 BD1  LP0     -1.358200        0.0000           
     649 A    7172 TIP4 O1   OW0      0.000000       15.9990           
     650 A    7172 TIP4 H1   HW0      0.679100        1.0080           
     651 A    7172 TIP4 H2   HW0      0.679100        1.0080           
     652 A    7172 TIP4 BD1  LP0     -1.358200        0.0000           
     653 A    7173 TIP4 O1   OW0      0.000000       15.9990           
     654 A    7173 TIP4 H1   HW0      0.679100        1.0080           
     655 A    7173 TIP4 H2   HW0      0.679100        1.0080           
     656 A    7173 TIP4 BD1  LP0     -1.358200        0.0000           
     657 A    7174 TIP4 O1   OW0      0.000000       15.9990           
     658 A    7174 TIP4 H1   HW0      0.679100        1.0080           
     659 A    7174 TIP4 H2   HW0      0.679100        1.0080           
     660 A    7174 TIP4 BD1  LP0     -1.358200        0.0000           
     661 A    7175 TIP4 O1   OW0      0.000000       15.9990           
     662 A    7175 TIP4 H1   HW0      0.679100        1.0080           
     663 A    7175 TIP4 H2   HW0      0.679100        1.0080           
     664 A    7175 TIP4 BD1  LP0     -1.358200        0.0000           
     665 A    7176 TIP4 O1   OW0      0.000000       15.9990           
     666 A    7176 TIP4 H1   HW0      0.679100        1.0080           
     667 A    7176 TIP4 H2   HW0      0.679100        1.0080           
     668 A    7176 TIP4 BD1  LP0     -1.358200        0.0000           
     669 A    7177 TIP4 O1   OW0      0.000000       15.9990           
     670 A    7177 TIP4 H1   HW0      0.679100        1.0080           
     671 A    7177 TIP4 H2   HW0      0.679100        1.0080           
     672 A    7177 TIP4 BD1  LP0     -1.358200        0.0000           
     673 A    7178 TIP4 O1   OW0      0.000000       15.9990           
     674 A    7178 TIP4 H1   HW0      0.679100        1.0080           
     675 A    7178 TIP4 H2   HW0      0.679100        1.0080           
     676 A    7178 TIP4 BD1  LP0     -1.358200        0.0000           
     677 A    7179 TIP4 O1   OW0      0.000000       15.9990           
     678 A    7179 TIP4 H1   HW0      0.679100        1.0080           
     679 A    7179 TIP4 H2   HW0      0.679100        1.0080           
     680 A    7179 TIP4 BD1  LP0     -1.358200        0.0000           
     681 A    7180 TIP4 O1   OW0      0.000000       15.9990           
     682 A    7180 TIP4 H1   HW0      0.679100        1.0080           
     683 A    7180 TIP4 H2   HW0      0.679100        1.0080           
     684 A    7180 TIP4 BD1  LP0     -1.358200        0.0000           
     685 A    7181 TIP4 O1   OW0      0.000000       15.9990           
     686 A    7181 TIP4 H1   HW0      0.679100        1.0080           
     687 A    7181 TIP4 H2   HW0      0.679100        1.0080           
     688 A    7181 TIP4 BD1  LP0     -1.358200        0.0000           
     689 A    7182 TIP4 O1   OW0      0.000000       15.9990           
     690 A    7182 TIP4 H1   HW0      0.679100        1.0080           
     691 A    7182 TIP4 H2   HW0      0.679100        1.0080           
     692 A    7182 TIP4 BD1  LP0     -1.358200        0.0000           
     693 A    7183 TIP4 O1   OW0      0.000000       15.9990           
     694 A    7183 TIP4 H1   HW0      0.679100        1.0080           
     695 A    7183 TIP4 H2   HW0      0.679100        1.0080           
     696 A    7183 TIP4 BD1  LP0     -1.358200        0.0000           
     697 A    7184 TIP4 O1   OW0      0.000000       15.9990           
     698 A    7184 TIP4 H1   HW0      0.679100        1.0080           
     699 A    7184 TIP4 H2   HW0      0.679100        1.0080           
     700 A    7184 TIP4 BD1  LP0     -1.358200        0.0000           
     701 A    7185 TIP4 O1   OW0      0.000000       15.9990           
     702 A    7185 TIP4 H1   HW0      0.679100        1.0080           
     703 A    7185 TIP4 H2   HW0      0.679100        1.0080           
     704 A    7185 TIP4 BD1  LP0     -1.358200        0.0000           
     705 A    7186 TIP4 O1   OW0      0.000000       15.9990           
     706 A    7186 TIP4 H1   HW0      0.679100        1.0080           
     707 A    7186 TIP4 H2   HW0      0.679100        1.0080           
     708 A    7186 TIP4 BD1  LP0     -1.358200        0.0000           
     709 A    7187 TIP4 O1   OW0      0.000000       15.9990           
     710 A    7187 TIP4 H1   HW0      0.679100        1.0080           
     711 A    7187 TIP4 H2   HW0      0.679100        1.0080           
     712 A    7187 TIP4 BD1  LP0     -1.358200        0.0000           
     713 A    7188 TIP4 O1   OW0      0.000000       15.9990           
     714 A    7188 TIP4 H1   HW0      0.679100        1.0080           
     715 A    7188 TIP4 H2   HW0      0.679100        1.0080           
     716 A    7188 TIP4 BD1  LP0     -1.358200        0.0000           
     717 A    7189 TIP4 O1   OW0      0.000000       15.9990           
     718 A    7189 TIP4 H1   HW0      0.679100        1.0080           
     719 A    7189 TIP4 H2   HW0      0.679100        1.0080           
     720 A    7189 TIP4 BD1  LP0     -1.358200        0.0000           
     721 A    7190 TIP4 O1   OW0      0.000000       15.9990           
     722 A    7190 TIP4 H1   HW0      0.679100        1.0080           
     723 A    7190 TIP4 H2   HW0      0.679100        1.0080           
     724 A    7190 TIP4 BD1  LP0     -1.358200        0.0000           
     725 A    7191 TIP4 O1   OW0      0.000000       15.9990           
     726 A    7191 TIP4 H1   HW0      0.679100        1.0080           
     727 A    7191 TIP4 H2   HW0      0.679100        1.0080           
     728 A    7191 TIP4 BD1  LP0     -1.358200        0.0000           
     729 A    7192 TIP4 O1   OW0      0.000000       15.9990           
     730 A    7192 TIP4 H1   HW0      0.679100        1.0080           
     731 A    7192 TIP4 H2   HW0      0.679100        1.0080           
     732 A    7192 TIP4 BD1  LP0     -1.358200        0.0000           
     733 A    7193 TIP4 O1   OW0      0.000000       15.9990           
     734 A    7193 TIP4 H1   HW0      0.679100        1.0080           
     735 A    7193 TIP4 H2   HW0      0.679100        1.0080           
     736 A    7193 TIP4 BD1  LP0     -1.358200        0.0000           
     737 A    7194 TIP4 O1   OW0      0.000000       15.9990           
     738 A    7194 TIP4 H1   HW0      0.679100        1.0080           
     739 A    7194 TIP4 H2   HW0      0.679100        1.0080           
     740 A    7194 TIP4 BD1  LP0     -1.358200        0.0000           
     741 A    7195 TIP4 O1   OW0      0.000000       15.9990           
     742 A    7195 TIP4 H1   HW0      0.679100        1.0080           
     743 A    7195 TIP4 H2   HW0      0.679100        1.0080           
     744 A    7195 TIP4 BD1  LP0     -1.358200        0.0000           
     745 A    7196 TIP4 O1   OW0      0.000000       15.9990           
     746 A    7196 TIP4 H1   HW0      0.679100        1.0080           
     747 A    7196 TIP4 H2   HW0      0.679100        1.0080           
     748 A    7196 TIP4 BD1  LP0     -1.358200        0.0000           
     749 A    7197 TIP4 O1   OW0      0.000000       15.9990           
     750 A    7197 TIP4 H1   HW0      0.679100        1.0080           
     751 A    7197 TIP4 H2   HW0      0.679100        1.0080           
     752 A    7197 TIP4 BD1  LP0     -1.358200        0.0000           
     753 A    7198 TIP4 O1   OW0      0.000000       15.9990           
     754 A    7198 TIP4 H1   HW0      0.679100        1.0080           
     755 A    7198 TIP4 H2   HW0      0.679100        1.0080           
     756 A    7198 TIP4 BD1  LP0     -1.358200        0.0000           
     757 A    7199 TIP4 O1   OW0      0.000000       15.9990           
     758 A    7199 TIP4 H1   HW0      0.679100        1.0080           
     759 A    7199 TIP4 H2   HW0      0.679100        1.0080           
     760 A    7199 TIP4 BD1  LP0     -1.358200        0.0000           
     761 A    7200 TIP4 O1   OW0      0.000000       15.9990           
     762 A    7200 TIP4 H1   HW0      0.679100        1.0080           
     763 A    7200 TIP4 H2   HW0      0.679100        1.0080           
     764 A    7200 TIP4 BD1  LP0     -1.358200        0.0000           
     765 A    7201 TIP4 O1   OW0      0.000000       15.9990           
     766 A    7201 TIP4 H1   HW0      0.679100        1.0080           
     767 A    7201 TIP4 H2   HW0      0.679100        1.0080           
     768 A    7201 TIP4 BD1  LP0     -1.358200        0.0000           
     769 A    7202 TIP4 O1   OW0      0.000000       15.9990           
     770 A    7202 TIP4 H1   HW0      0.679100        1.0080           
     771 A    7202 TIP4 H2   HW0      0.679100        1.0080           
     772 A    7202 TIP4 BD1  LP0     -1.358200        0.0000           
     773 A    7203 TIP4 O1   OW0      0.000000       15.9990           
     774 A    7203 TIP4 H1   HW0      0.679100        1.0080           
     775 A    7203 TIP4 H2   HW0      0.679100        1.0080           
     776 A    7203 TIP4 BD1  LP0     -1.358200        0.0000           
     777 A    7204 TIP4 O1   OW0      0.000000       15.9990           
     778 A    7204 TIP4 H1   HW0      0.679100        1.0080           
     779 A    7204 TIP4 H2   HW0      0.679100        1.0080           
     780 A    7204 TIP4 BD1  LP0     -1.358200        0.0000           
     781 A    7205 TIP4 O1   OW0      0.000000       15.9990           
     782 A    7205 TIP4 H1   HW0      0.679100        1.0080           
     783 A    7205 TIP4 H2   HW0      0.679100        1.0080           
     784 A    7205 TIP4 BD1  LP0     -1.358200        0.0000           
     785 A    7206 TIP4 O1   OW0      0.000000       15.9990           
     786 A    7206 TIP4 H1   HW0      0.679100        1.0080           
     787 A    7206 TIP4 H2   HW0      0.679100        1.0080           
     788 A    7206 TIP4 BD1  LP0     -1.358200        0.0000           
     789 A    7207 TIP4 O1   OW0      0.000000       15.9990           
     790 A    7207 TIP4 H1   HW0      0.679100        1.0080           
     791 A    7207 TIP4 H2   HW0      0.679100        1.0080           
     792 A    7207 TIP4 BD1  LP0     -1.358200        0.0000           
     793 A    7208 TIP4 O1   OW0      0.000000       15.9990           
     794 A    7208 TIP4 H1   HW0      0.679100        1.0080           
     795 A    7208 TIP4 H2   HW0      0.679100        1.0080           
     796 A    7208 TIP4 BD1  LP0     -1.358200        0.0000           
     797 A    7209 TIP4 O1   OW0      0.000000       15.9990           
     798 A    7209 TIP4 H1   HW0      0.679100        1.0080           
     799 A    7209 TIP4 H2   HW0      0.679100        1.0080           
     800 A    7209 TIP4 BD1  LP0     -1.358200        0.0000           
     801 A    7210 TIP4 O1   OW0      0.000000       15.9990           
     802 A    7210 TIP4 H1   HW0      0.679100        1.0080           
     803 A    7210 TIP4 H2   HW0      0.679100        1.0080           
     804 A    7210 TIP4 BD1  LP0     -1.358200        0.0000           
     805 A    7211 TIP4 O1   OW0      0.000000       15.9990           
     806 A    7211 TIP4 H1   HW0      0.679100        1.0080           
     807 A    7211 TIP4 H2   HW0      0.679100        1.0080           
     808 A    7211 TIP4 BD1  LP0     -1.358200        0.0000           
     809 A    7212 TIP4 O1   OW0      0.000000       15.9990           
     810 A    7212 TIP4 H1   HW0      0.679100        1.0080           
     811 A    7212 TIP4 H2   HW0      0.679100        1.0080           
     812 A    7212 TIP4 BD1  LP0     -1.358200        0.0000           
     813 A    7213 TIP4 O1   OW0      0.000000       15.9990           
     814 A    7213 TIP4 H1   HW0      0.679100        1.0080           
     815 A    7213 TIP4 H2   HW0      0.679100        1.0080           
     816 A    7213 TIP4 BD1  LP0     -1.358200        0.0000           
     817 A    7214 TIP4 O1   OW0      0.000000       15.9990           
     818 A    7214 TIP4 H1   HW0      0.679100        1.0080           
     819 A    7214 TIP4 H2   HW0      0.679100        1.0080           
     820 A    7214 TIP4 BD1  LP0     -1.358200        0.0000           
     821 A    7215 TIP4 O1   OW0      0.000000       15.9990           
     822 A    7215 TIP4 H1   HW0      0.679100        1.0080           
     823 A    7215 TIP4 H2   HW0      0.679100        1.0080           
     824 A    7215 TIP4 BD1  LP0     -1.358200        0.0000           
     825 A    7216 TIP4 O1   OW0      0.000000       15.9990           
     826 A    7216 TIP4 H1   HW0      0.679100        1.0080           
     827 A    7216 TIP4 H2   HW0      0.679100        1.0080           
     828 A    7216 TIP4 BD1  LP0     -1.358200        0.0000           
     829 A    7217 TIP4 O1   OW0      0.000000       15.9990           
     830 A    7217 TIP4 H1   HW0      0.679100        1.0080           
     831 A    7217 TIP4 H2   HW0      0.679100        1.0080           
     832 A    7217 TIP4 BD1  LP0     -1.358200        0.0000           
     833 A    7218 TIP4 O1   OW0      0.000000       15.9990           
     834 A    7218 TIP4 H1   HW0      0.679100        1.0080           
     835 A    7218 TIP4 H2   HW0      0.679100        1.0080           
     836 A    7218 TIP4 BD1  LP0     -1.358200        0.0000           
     837 A    7219 TIP4 O1   OW0      0.000000       15.9990           
     838 A    7219 TIP4 H1   HW0      0.679100        1.0080           
     839 A    7219 TIP4 H2   HW0      0.679100        1.0080           
     840 A    7219 TIP4 BD1  LP0     -1.358200        0.0000           
     841 A    7220 TIP4 O1   OW0      0.000000       15.9990           
     842 A    7220 TIP4 H1   HW0      0.679100        1.0080           
     843 A    7220 TIP4 H2   HW0      0.679100        1.0080           
     844 A    7220 TIP4 BD1  LP0     -1.358200        0.0000           
     845 A    7221 TIP4 O1   OW0      0.000000       15.9990           
     846 A    7221 TIP4 H1   HW0      0.679100        1.0080           
     847 A    7221 TIP4 H2   HW0      0.679100        1.0080           
     848 A    7221 TIP4 BD1  LP0     -1.358200        0.0000           
     849 A    7222 TIP4 O1   OW0      0.000000       15.9990           
     850 A    7222 TIP4 H1   HW0      0.679100        1.0080           
     851 A    7222 TIP4 H2   HW0      0.679100        1.0080           
     852 A    7222 TIP4 BD1  LP0     -1.358200        0.0000           
     853 A    7223 TIP4 O1   OW0      0.000000       15.9990           
     854 A    7223 TIP4 H1   HW0      0.679100        1.0080           
     855 A    7223 TIP4 H2   HW0      0.679100        1.0080           
     856 A    7223 TIP4 BD1  LP0     -1.358200        0.0000           
     857 A    7224 TIP4 O1   OW0      0.000000       15.9990           
     858 A    7224 TIP4 H1   HW0      0.679100        1.0080           
     859 A    7224 TIP4 H2   HW0      0.679100        1.0080           
     860 A    7224 TIP4 BD1  LP0     -1.358200        0.0000           
     861 A    7225 TIP4 O1   OW0      0.000000       15.9990           
     862 A    7225 TIP4 H1   HW0      0.679100        1.0080           
     863 A    7225 TIP4 H2   HW0      0.679100        1.0080           
     864 A    7225 TIP4 BD1  LP0     -1.358200        0.0000           
     865 A    7226 TIP4 O1   OW0      0.000000       15.9990           
     866 A    7226 TIP4 H1   HW0      0.679100        1.0080           
     867 A    7226 TIP4 H2   HW0      0.679100        1.0080           
     868 A    7226 TIP4 BD1  LP0     -1.358200        0.0000           
     869 A    7227 TIP4 O1   OW0      0.000000       15.9990           
     870 A    7227 TIP4 H1   HW0      0.679100        1.0080           
     871 A    7227 TIP4 H2   HW0      0.679100        1.0080           
     872 A    7227 TIP4 BD1  LP0     -1.358200        0.0000           
     873 A    7228 TIP4 O1   OW0      0.000000       15.9990           
     874 A    7228 TIP4 H1   HW0      0.679100        1.0080           
     875 A    7228 TIP4 H2   HW0      0.679100        1.0080           
     876 A    7228 TIP4 BD1  LP0     -1.358200        0.0000           
     877 A    7229 TIP4 O1   OW0      0.000000       15.9990           
     878 A    7229 TIP4 H1   HW0      0.679100        1.0080           
     879 A    7229 TIP4 H2   HW0      0.679100        1.0080           
     880 A    7229 TIP4 BD1  LP0     -1.358200        0.0000           
     881 A    7230 TIP4 O1   OW0      0.000000       15.9990           
     882 A    7230 TIP4 H1   HW0      0.679100        1.0080           
     883 A    7230 TIP4 H2   HW0      0.679100        1.0080           
     884 A    7230 TIP4 BD1  LP0     -1.358200        0.0000           
     885 A    7231 TIP4 O1   OW0      0.000000       15.9990           
     886 A    7231 TIP4 H1   HW0      0.679100        1.0080           
     887 A    7231 TIP4 H2   HW0      0.679100        1.0080           
     888 A    7231 TIP4 BD1  LP0     -1.358200        0.0000           
     889 A    7232 TIP4 O1   OW0      0.000000       15.9990           
     890 A    7232 TIP4 H1   HW0      0.679100        1.0080           
     891 A    7232 TIP4 H2   HW0      0.679100        1.0080           
     892 A    7232 TIP4 BD1  LP0     -1.358200        0.0000           
     893 A    7233 TIP4 O1   OW0      0.000000       15.9990           
     894 A    7233 TIP4 H1   HW0      0.679100        1.0080           
     895 A    7233 TIP4 H2   HW0      0.679100        1.0080           
     896 A    7233 TIP4 BD1  LP0     -1.358200        0.0000           
     897 A    7234 TIP4 O1   OW0      0.000000       15.9990           
     898 A    7234 TIP4 H1   HW0      0.679100        1.0080           
     899 A    7234 TIP4 H2   HW0      0.679100        1.0080           
     900 A    7234 TIP4 BD1  LP0     -1.358200        0.0000           
     901 A    7235 TIP4 O1   OW0      0.000000       15.9990           
     902 A    7235 TIP4 H1   HW0      0.679100        1.0080           
     903 A    7235 TIP4 H2   HW0      0.679100        1.0080           
     904 A    7235 TIP4 BD1  LP0     -1.358200        0.0000           
     905 A    7236 TIP4 O1   OW0      0.000000       15.9990           
     906 A    7236 TIP4 H1   HW0      0.679100        1.0080           
     907 A    7236 TIP4 H2   HW0      0.679100        1.0080           
     908 A    7236 TIP4 BD1  LP0     -1.358200        0.0000           
     909 A    7237 TIP4 O1   OW0      0.000000       15.9990           
     910 A    7237 TIP4 H1   HW0      0.679100        1.0080           
     911 A    7237 TIP4 H2   HW0      0.679100        1.0080           
     912 A    7237 TIP4 BD1  LP0     -1.358200        0.0000           
     913 A    7238 TIP4 O1   OW0      0.000000       15.9990           
     914 A    7238 TIP4 H1   HW0      0.679100        1.0080           
     915 A    7238 TIP4 H2   HW0      0.679100        1.0080           
     916 A    7238 TIP4 BD1  LP0     -1.358200        0.0000           
     917 A    7239 TIP4 O1   OW0      0.000000       15.9990           
     918 A    7239 TIP4 H1   HW0      0.679100        1.0080           
     919 A    7239 TIP4 H2   HW0      0.679100        1.0080           
     920 A    7239 TIP4 BD1  LP0     -1.358200        0.0000           
     921 A    7240 TIP4 O1   OW0      0.000000       15.9990           
     922 A    7240 TIP4 H1   HW0      0.679100        1.0080           
     923 A    7240 TIP4 H2   HW0      0.679100        1.0080           
     924 A    7240 TIP4 BD1  LP0     -1.358200        0.0000           
     925 A    7241 TIP4 O1   OW0      0.000000       15.9990           
     926 A    7241 TIP4 H1   HW0      0.679100        1.0080           
     927 A    7241 TIP4 H2   HW0      0.679100        1.0080           
     928 A    7241 TIP4 BD1  LP0     -1.358200        0.0000           
     929 A    7242 TIP4 O1   OW0      0.000000       15.9990           
     930 A    7242 TIP4 H1   HW0      0.679100        1.0080           
     931 A    7242 TIP4 H2   HW0      0.679100        1.0080           
     932 A    7242 TIP4 BD1  LP0     -1.358200        0.0000           
     933 A    7243 TIP4 O1   OW0      0.000000       15.9990           
     934 A    7243 TIP4 H1   HW0      0.679100        1.0080           
     935 A    7243 TIP4 H2   HW0      0.679100        1.0080           
     936 A    7243 TIP4 BD1  LP0     -1.358200        0.0000           
     937 A    7244 TIP4 O1   OW0      0.000000       15.9990           
     938 A    7244 TIP4 H1   HW0      0.679100        1.0080           
     939 A    7244 TIP4 H2   HW0      0.679100        1.0080           
     940 A    7244 TIP4 BD1  LP0     -1.358200        0.0000           
     941 A    7245 TIP4 O1   OW0      0.000000       15.9990           
     942 A    7245 TIP4 H1   HW0      0.679100        1.0080           
     943 A    7245 TIP4 H2   HW0      0.679100        1.0080           
     944 A    7245 TIP4 BD1  LP0     -1.358200        0.0000           
     945 A    7246 TIP4 O1   OW0      0.000000       15.9990           
     946 A    7246 TIP4 H1   HW0      0.679100        1.0080           
     947 A    7246 TIP4 H2   HW0      0.679100        1.0080           
     948 A    7246 TIP4 BD1  LP0     -1.358200        0.0000           
     949 A    7247 TIP4 O1   OW0      0.000000       15.9990           
     950 A    7247 TIP4 H1   HW0      0.679100        1.0080           
     951 A    7247 TIP4 H2   HW0      0.679100        1.0080           
     952 A    7247 TIP4 BD1  LP0     -1.358200        0.0000           
     953 A    7248 TIP4 O1   OW0      0.000000       15.9990           
     954 A    7248 TIP4 H1   HW0      0.679100        1.0080           
     955 A    7248 TIP4 H2   HW0      0.679100        1.0080           
     956 A    7248 TIP4 BD1  LP0     -1.358200        0.0000           
     957 A    7249 TIP4 O1   OW0      0.000000       15.9990           
     958 A    7249 TIP4 H1   HW0      0.679100        1.0080           
     959 A    7249 TIP4 H2   HW0      0.679100        1.0080           
     960 A    7249 TIP4 BD1  LP0     -1.358200        0.0000           
     961 A    7250 TIP4 O1   OW0      0.000000       15.9990           
     962 A    7250 TIP4 H1   HW0      0.679100        1.0080           
     963 A    7250 TIP4 H2   HW0      0.679100        1.0080           
     964 A    7250 TIP4 BD1  LP0     -1.358200        0.0000           
     965 A    7251 TIP4 O1   OW0      0.000000       15.9990           
     966 A    7251 TIP4 H1   HW0      0.679100        1.0080           
     967 A    7251 TIP4 H2   HW0      0.679100        1.0080           
     968 A    7251 TIP4 BD1  LP0     -1.358200        0.0000           
     969 A    7252 TIP4 O1   OW0      0.000000       15.9990           
     970 A    7252 TIP4 H1   HW0      0.679100        1.0080           
     971 A    7252 TIP4 H2   HW0      0.679100        1.0080           
     972 A    7252 TIP4 BD1  LP0     -1.358200        0.0000           
     973 A    7253 TIP4 O1   OW0      0.000000       15.9990           
     974 A    7253 TIP4 H1   HW0      0.679100        1.0080           
     975 A    7253 TIP4 H2   HW0      0.679100        1.0080           
     976 A    7253 TIP4 BD1  LP0     -1.358200        0.0000           
     977 A    7254 TIP4 O1   OW0      0.000000       15.9990           
     978 A    7254 TIP4 H1   HW0      0.679100        1.0080           
     979 A    7254 TIP4 H2   HW0      0.679100        1.0080           
     980 A    7254 TIP4 BD1  LP0     -1.358200        0.0000           
     981 A    7255 TIP4 O1   OW0      0.000000       15.9990           
     982 A    7255 TIP4 H1   HW0      0.679100        1.0080           
     983 A    7255 TIP4 H2   HW0      0.679100        1.0080           
     984 A    7255 TIP4 BD1  LP0     -1.358200        0.0000           
     985 A    7256 TIP4 O1   OW0      0.000000       15.9990           
     986 A    7256 TIP4 H1   HW0      0.679100        1.0080           
     987 A    7256 TIP4 H2   HW0      0.679100        1.0080           
     988 A    7256 TIP4 BD1  LP0     -1.358200        0.0000           
     989 A    7257 TIP4 O1   OW0      0.000000       15.9990           
     990 A    7257 TIP4 H1   HW0      0.679100        1.0080           
     991 A    7257 TIP4 H2   HW0      0.679100        1.0080           
     992 A    7257 TIP4 BD1  LP0     -1.358200        0.0000           
     993 A    7258 TIP4 O1   OW0      0.000000       15.9990           
     994 A    7258 TIP4 H1   HW0      0.679100        1.0080           
     995 A    7258 TIP4 H2   HW0      0.679100        1.0080           
     996 A    7258 TIP4 BD1  LP0     -1.358200        0.0000           
     997 A    7259 TIP4 O1   OW0      0.000000       15.9990           
     998 A    7259 TIP4 H1   HW0      0.679100        1.0080           
     999 A    7259 TIP4 H2   HW0      0.679100        1.0080           
    1000 A    7259 TIP4 BD1  LP0     -1.358200        0.0000           
    1001 A    7260 TIP4 O1   OW0      0.000000       15.9990           
    1002 A    7260 TIP4 H1   HW0      0.679100        1.0080           
    1003 A    7260 TIP4 H2   HW0      0.679100        1.0080           
    1004 A    7260 TIP4 BD1  LP0     -1.358200        0.0000           
    1005 A    7261 TIP4 O1   OW0      0.000000       15.9990           
    1006 A    7261 TIP4 H1   HW0      0.679100        1.0080           
    1007 A    7261 TIP4 H2   HW0      0.679100        1.0080           
    1008 A    7261 TIP4 BD1  LP0     -1.358200        0.0000           
    1009 A    7262 TIP4 O1   OW0      0.000000       15.9990           
    1010 A    7262 TIP4 H1   HW0      0.679100        1.0080           
    1011 A    7262 TIP4 H2   HW0      0.679100        1.0080           
    1012 A    7262 TIP4 BD1  LP0     -1.358200        0.0000           
    1013 A    7263 TIP4 O1   OW0      0.000000       15.9990           
    1014 A    7263 TIP4 H1   HW0      0.679100        1.0080           
    1015 A    7263 TIP4 H2   HW0      0.679100        1.0080           
    1016 A    7263 TIP4 BD1  LP0     -1.358200        0.0000           
    1017 A    7264 TIP4 O1   OW0      0.000000       15.9990           
    1018 A    7264 TIP4 H1   HW0      0.679100        1.0080           
    1019 A    7264 TIP4 H2   HW0      0.679100        1.0080           
    1020 A    7264 TIP4 BD1  LP0     -1.358200        0.0000           
    1021 A    7265 TIP4 O1   OW0      0.000000       15.9990           
    1022 A    7265 TIP4 H1   HW0      0.679100        1.0080           
    1023 A    7265 TIP4 H2   HW0      0.679100        1.0080           
    1024 A    7265 TIP4 BD1  LP0     -1.358200        0.0000           
    1025 A    7266 TIP4 O1   OW0      0.000000       15.9990           
    1026 A    7266 TIP4 H1   HW0      0.679100        1.0080           
    1027 A    7266 TIP4 H2   HW0      0.679100        1.0080           
    1028 A    7266 TIP4 BD1  LP0     -1.358200        0.0000           
    1029 A    7267 TIP4 O1   OW0      0.000000       15.9990           
    1030 A    7267 TIP4 H1   HW0      0.679100        1.0080           
    1031 A    7267 TIP4 H2   HW0      0.679100        1.0080           
    1032 A    7267 TIP4 BD1  LP0     -1.358200        0.0000           
    1033 A    7268 TIP4 O1   OW0      0.000000       15.9990           
    1034 A    7268 TIP4 H1   HW0      0.679100        1.0080           
    1035 A    7268 TIP4 H2   HW0      0.679100        1.0080           
    1036 A    7268 TIP4 BD1  LP0     -1.358200        0.0000           
    1037 A    7269 TIP4 O1   OW0      0.000000       15.9990           
    1038 A    7269 TIP4 H1   HW0      0.679100        1.0080           
    1039 A    7269 TIP4 H2   HW0      0.679100        1.0080           
    1040 A    7269 TIP4 BD1  LP0     -1.358200        0.0000           
    1041 A    7270 TIP4 O1   OW0      0.000000       15.9990           
    1042 A    7270 TIP4 H1   HW0      0.679100        1.0080           
    1043 A    7270 TIP4 H2   HW0      0.679100        1.0080           
    1044 A    7270 TIP4 BD1  LP0     -1.358200        0.0000           
    1045 A    7271 TIP4 O1   OW0      0.000000       15.9990           
    1046 A    7271 TIP4 H1   HW0      0.679100        1.0080           
    1047 A    7271 TIP4 H2   HW0      0.679100        1.0080           
    1048 A    7271 TIP4 BD1  LP0     -1.358200        0.0000           
    1049 A    7272 TIP4 O1   OW0      0.000000       15.9990           
    1050 A    7272 TIP4 H1   HW0      0.679100        1.0080           
    1051 A    7272 TIP4 H2   HW0      0.679100        1.0080           
    1052 A    7272 TIP4 BD1  LP0     -1.358200        0.0000           
    1053 A    7273 TIP4 O1   OW0      0.000000       15.9990           
    1054 A    7273 TIP4 H1   HW0      0.679100        1.0080           
    1055 A    7273 TIP4 H2   HW0      0.679100        1.0080           
    1056 A    7273 TIP4 BD1  LP0     -1.358200        0.0000           
    1057 A    7274 TIP4 O1   OW0      0.000000       15.9990           
    1058 A    7274 TIP4 H1   HW0      0.679100        1.0080           
    1059 A    7274 TIP4 H2   HW0      0.679100        1.0080           
    1060 A    7274 TIP4 BD1  LP0     -1.358200        0.0000           
    1061 A    7275 TIP4 O1   OW0      0.000000       15.9990           
    1062 A    7275 TIP4 H1   HW0      0.679100        1.0080           
    1063 A    7275 TIP4 H2   HW0      0.679100        1.0080           
    1064 A    7275 TIP4 BD1  LP0     -1.358200        0.0000           
    1065 A    7276 TIP4 O1   OW0      0.000000       15.9990           
    1066 A    7276 TIP4 H1   HW0      0.679100        1.0080           
    1067 A    7276 TIP4 H2   HW0      0.679100        1.0080           
    1068 A    7276 TIP4 BD1  LP0     -1.358200        0.0000           
    1069 A    7277 TIP4 O1   OW0      0.000000       15.9990           
    1070 A    7277 TIP4 H1   HW0      0.679100        1.0080           
    1071 A    7277 TIP4 H2   HW0      0.679100        1.0080           
    1072 A    7277 TIP4 BD1  LP0     -1.358200        0.0000           
    1073 A    7278 TIP4 O1   OW0      0.000000       15.9990           
    1074 A    7278 TIP4 H1   HW0      0.679100        1.0080           
    1075 A    7278 TIP4 H2   HW0      0.679100        1.0080           
    1076 A    7278 TIP4 BD1  LP0     -1.358200        0.0000           
    1077 A    7279 TIP4 O1   OW0      0.000000       15.9990           
    1078 A    7279 TIP4 H1   HW0      0.679100        1.0080           
    1079 A    7279 TIP4 H2   HW0      0.679100        1.0080           
    1080 A    7279 TIP4 BD1  LP0     -1.358200        0.0000           
    1081 A    7280 TIP4 O1   OW0      0.000000       15.9990           
    1082 A    7280 TIP4 H1   HW0      0.679100        1.0080           
    1083 A    7280 TIP4 H2   HW0      0.679100        1.0080           
    1084 A    7280 TIP4 BD1  LP0     -1.358200        0.0000           
    1085 A    7281 TIP4 O1   OW0      0.000000       15.9990           
    1086 A    7281 TIP4 H1   HW0      0.679100        1.0080           
    1087 A    7281 TIP4 H2   HW0      0.679100        1.0080           
    1088 A    7281 TIP4 BD1  LP0     -1.358200        0.0000           
    1089 A    7282 TIP4 O1   OW0      0.000000       15.9990           
    1090 A    7282 TIP4 H1   HW0      0.679100        1.0080           
    1091 A    7282 TIP4 H2   HW0      0.679100        1.0080           
    1092 A    7282 TIP4 BD1  LP0     -1.358200        0.0000           
    1093 A    7283 TIP4 O1   OW0      0.000000       15.9990           
    1094 A    7283 TIP4 H1   HW0      0.679100        1.0080           
    1095 A    7283 TIP4 H2   HW0      0.679100        1.0080           
    1096 A    7283 TIP4 BD1  LP0     -1.358200        0.0000           
    1097 A    7284 TIP4 O1   OW0      0.000000       15.9990           
    1098 A    7284 TIP4 H1   HW0      0.679100        1.0080           
    1099 A    7284 TIP4 H2   HW0      0.679100        1.0080           
    1100 A    7284 TIP4 BD1  LP0     -1.358200        0.0000           
    1101 A    7285 TIP4 O1   OW0      0.000000       15.9990           
    1102 A    7285 TIP4 H1   HW0      0.679100        1.0080           
    1103 A    7285 TIP4 H2   HW0      0.679100        1.0080           
    1104 A    7285 TIP4 BD1  LP0     -1.358200        0.0000           
    1105 A    7286 TIP4 O1   OW0      0.000000       15.9990           
    1106 A    7286 TIP4 H1   HW0      0.679100        1.0080           
    1107 A    7286 TIP4 H2   HW0      0.679100        1.0080           
    1108 A    7286 TIP4 BD1  LP0     -1.358200        0.0000           
    1109 A    7287 TIP4 O1   OW0      0.000000       15.9990           
    1110 A    7287 TIP4 H1   HW0      0.679100        1.0080           
    1111 A    7287 TIP4 H2   HW0      0.679100        1.0080           
    1112 A    7287 TIP4 BD1  LP0     -1.358200        0.0000           
    1113 A    7288 TIP4 O1   OW0      0.000000       15.9990           
    1114 A    7288 TIP4 H1   HW0      0.679100        1.0080           
    1115 A    7288 TIP4 H2   HW0      0.679100        1.0080           
    1116 A    7288 TIP4 BD1  LP0     -1.358200        0.0000           
    1117 A    7289 TIP4 O1   OW0      0.000000       15.9990           
    1118 A    7289 TIP4 H1   HW0      0.679100        1.0080           
    1119 A    7289 TIP4 H2   HW0      0.679100        1.0080           
    1120 A    7289 TIP4 BD1  LP0     -1.358200        0.0000           
    1121 A    7290 TIP4 O1   OW0      0.000000       15.9990           
    1122 A    7290 TIP4 H1   HW0      0.679100        1.0080           
    1123 A    7290 TIP4 H2   HW0      0.679100        1.0080           
    1124 A    7290 TIP4 BD1  LP0     -1.358200        0.0000           
    1125 A    7291 TIP4 O1   OW0      0.000000       15.9990           
    1126 A    7291 TIP4 H1   HW0      0.679100        1.0080           
    1127 A    7291 TIP4 H2   HW0      0.679100        1.0080           
    1128 A    7291 TIP4 BD1  LP0     -1.358200        0.0000           
    1129 A    7292 TIP4 O1   OW0      0.000000       15.9990           
    1130 A    7292 TIP4 H1   HW0      0.679100        1.0080           
    1131 A    7292 TIP4 H2   HW0      0.679100        1.0080           
    1132 A    7292 TIP4 BD1  LP0     -1.358200        0.0000           
    1133 A    7293 TIP4 O1   OW0      0.000000       15.9990           
    1134 A    7293 TIP4 H1   HW0      0.679100        1.0080           
    1135 A    7293 TIP4 H2   HW0      0.679100        1.0080           
    1136 A    7293 TIP4 BD1  LP0     -1.358200        0.0000           
    1137 A    7294 TIP4 O1   OW0      0.000000       15.9990           
    1138 A    7294 TIP4 H1   HW0      0.679100        1.0080           
    1139 A    7294 TIP4 H2   HW0      0.679100        1.0080           
    1140 A    7294 TIP4 BD1  LP0     -1.358200        0.0000           
    1141 A    7295 TIP4 O1   OW0      0.000000       15.9990           
    1142 A    7295 TIP4 H1   HW0      0.679100        1.0080           
    1143 A    7295 TIP4 H2   HW0      0.679100        1.0080           
    1144 A    7295 TIP4 BD1  LP0     -1.358200        0.0000           
    1145 A    7296 TIP4 O1   OW0      0.000000       15.9990           
    1146 A    7296 TIP4 H1   HW0      0.679100        1.0080           
    1147 A    7296 TIP4 H2   HW0      0.679100        1.0080           
    1148 A    7296 TIP4 BD1  LP0     -1.358200        0.0000           
    1149 A    7297 TIP4 O1   OW0      0.000000       15.9990           
    1150 A    7297 TIP4 H1   HW0      0.679100        1.0080           
    1151 A    7297 TIP4 H2   HW0      0.679100        1.0080           
    1152 A    7297 TIP4 BD1  LP0     -1.358200        0.0000           
    1153 A    7298 TIP4 O1   OW0      0.000000       15.9990           
    1154 A    7298 TIP4 H1   HW0      0.679100        1.0080           
    1155 A    7298 TIP4 H2   HW0      0.679100        1.0080           
    1156 A    7298 TIP4 BD1  LP0     -1.358200        0.0000           
    1157 A    7299 TIP4 O1   OW0      0.000000       15.9990           
    1158 A    7299 TIP4 H1   HW0      0.679100        1.0080           
    1159 A    7299 TIP4 H2   HW0      0.679100        1.0080           
    1160 A    7299 TIP4 BD1  LP0     -1.358200        0.0000           
    1161 A    7300 TIP4 O1   OW0      0.000000       15.9990           
    1162 A    7300 TIP4 H1   HW0      0.679100        1.0080           
    1163 A    7300 TIP4 H2   HW0      0.679100        1.0080           
    1164 A    7300 TIP4 BD1  LP0     -1.358200        0.0000           
    1165 A    7301 TIP4 O1   OW0      0.000000       15.9990           
    1166 A    7301 TIP4 H1   HW0      0.679100        1.0080           
    1167 A    7301 TIP4 H2   HW0      0.679100        1.0080           
    1168 A    7301 TIP4 BD1  LP0     -1.358200        0.0000           
    1169 A    7302 TIP4 O1   OW0      0.000000       15.9990           
    1170 A    7302 TIP4 H1   HW0      0.679100        1.0080           
    1171 A    7302 TIP4 H2   HW0      0.679100        1.0080           
    1172 A    7302 TIP4 BD1  LP0     -1.358200        0.0000           
    1173 A    7303 TIP4 O1   OW0      0.000000       15.9990           
    1174 A    7303 TIP4 H1   HW0      0.679100        1.0080           
    1175 A    7303 TIP4 H2   HW0      0.679100        1.0080           
    1176 A    7303 TIP4 BD1  LP0     -1.358200        0.0000           
    1177 A    7304 TIP4 O1   OW0      0.000000       15.9990           
    1178 A    7304 TIP4 H1   HW0      0.679100        1.0080           
    1179 A    7304 TIP4 H2   HW0      0.679100        1.0080           
    1180 A    7304 TIP4 BD1  LP0     -1.358200        0.0000           
    1181 A    7305 TIP4 O1   OW0      0.000000       15.9990           
    1182 A    7305 TIP4 H1   HW0      0.679100        1.0080           
    1183 A    7305 TIP4 H2   HW0      0.679100        1.0080           
    1184 A    7305 TIP4 BD1  LP0     -1.358200        0.0000           
    1185 A    7306 TIP4 O1   OW0      0.000000       15.9990           
    1186 A    7306 TIP4 H1   HW0      0.679100        1.0080           
    1187 A    7306 TIP4 H2   HW0      0.679100        1.0080           
    1188 A    7306 TIP4 BD1  LP0     -1.358200        0.0000           
    1189 A    7307 TIP4 O1   OW0      0.000000       15.9990           
    1190 A    7307 TIP4 H1   HW0      0.679100        1.0080           
    1191 A    7307 TIP4 H2   HW0      0.679100        1.0080           
    1192 A    7307 TIP4 BD1  LP0     -1.358200        0.0000           
    1193 A    7308 TIP4 O1   OW0      0.000000       15.9990           
    1194 A    7308 TIP4 H1   HW0      0.679100        1.0080           
    1195 A    7308 TIP4 H2   HW0      0.679100        1.0080           
    1196 A    7308 TIP4 BD1  LP0     -1.358200        0.0000           
    1197 A    7309 TIP4 O1   OW0      0.000000       15.9990           
    1198 A    7309 TIP4 H1   HW0      0.679100        1.0080           
    1199 A    7309 TIP4 H2   HW0      0.679100        1.0080           
    1200 A    7309 TIP4 BD1  LP0     -1.358200        0.0000           
    1201 A    7310 TIP4 O1   OW0      0.000000       15.9990           
    1202 A    7310 TIP4 H1   HW0      0.679100        1.0080           
    1203 A    7310 TIP4 H2   HW0      0.679100        1.0080           
    1204 A    7310 TIP4 BD1  LP0     -1.358200        0.0000           
    1205 A    7311 TIP4 O1   OW0      0.000000       15.9990           
    1206 A    7311 TIP4 H1   HW0      0.679100        1.0080           
    1207 A    7311 TIP4 H2   HW0      0.679100        1.0080           
    1208 A    7311 TIP4 BD1  LP0     -1.358200        0.0000           
    1209 A    7312 TIP4 O1   OW0      0.000000       15.9990           
    1210 A    7312 TIP4 H1   HW0      0.679100        1.0080           
    1211 A    7312 TIP4 H2   HW0      0.679100        1.0080           
    1212 A    7312 TIP4 BD1  LP0     -1.358200        0.0000           
    1213 A    7313 TIP4 O1   OW0      0.000000       15.9990           
    1214 A    7313 TIP4 H1   HW0      0.679100        1.0080           
    1215 A    7313 TIP4 H2   HW0      0.679100        1.0080           
    1216 A    7313 TIP4 BD1  LP0     -1.358200        0.0000           
    1217 A    7314 TIP4 O1   OW0      0.000000       15.9990           
    1218 A    7314 TIP4 H1   HW0      0.679100        1.0080           
    1219 A    7314 TIP4 H2   HW0      0.679100        1.0080           
    1220 A    7314 TIP4 BD1  LP0     -1.358200        0.0000           
    1221 A    7315 TIP4 O1   OW0      0.000000       15.9990           
    1222 A    7315 TIP4 H1   HW0      0.679100        1.0080           
    1223 A    7315 TIP4 H2   HW0      0.679100        1.0080           
    1224 A    7315 TIP4 BD1  LP0     -1.358200        0.0000           
    1225 A    7316 TIP4 O1   OW0      0.000000       15.9990           
    1226 A    7316 TIP4 H1   HW0      0.679100        1.0080           
    1227 A    7316 TIP4 H2   HW0      0.679100        1.0080           
    1228 A    7316 TIP4 BD1  LP0     -1.358200        0.0000           
    1229 A    7317 TIP4 O1   OW0      0.000000       15.9990           
    1230 A    7317 TIP4 H1   HW0      0.679100        1.0080           
    1231 A    7317 TIP4 H2   HW0      0.679100        1.0080           
    1232 A    7317 TIP4 BD1  LP0     -1.358200        0.0000           
    1233 A    7318 TIP4 O1   OW0      0.000000       15.9990           
    1234 A    7318 TIP4 H1   HW0      0.679100        1.0080           
    1235 A    7318 TIP4 H2   HW0      0.679100        1.0080           
    1236 A    7318 TIP4 BD1  LP0     -1.358200        0.0000           
    1237 A    7319 TIP4 O1   OW0      0.000000       15.9990           
    1238 A    7319 TIP4 H1   HW0      0.679100        1.0080           
    1239 A    7319 TIP4 H2   HW0      0.679100        1.0080           
    1240 A    7319 TIP4 BD1  LP0     -1.358200        0.0000           
    1241 A    7320 TIP4 O1   OW0      0.000000       15.9990           
    1242 A    7320 TIP4 H1   HW0      0.679100        1.0080           
    1243 A    7320 TIP4 H2   HW0      0.679100        1.0080           
    1244 A    7320 TIP4 BD1  LP0     -1.358200        0.0000           
    1245 A    7321 TIP4 O1   OW0      0.000000       15.9990           
    1246 A    7321 TIP4 H1   HW0      0.679100        1.0080           
    1247 A    7321 TIP4 H2   HW0      0.679100        1.0080           
    1248 A    7321 TIP4 BD1  LP0     -1.358200        0.0000           
    1249 A    7322 TIP4 O1   OW0      0.000000       15.9990           
    1250 A    7322 TIP4 H1   HW0      0.679100        1.0080           
    1251 A    7322 TIP4 H2   HW0      0.679100        1.0080           
    1252 A    7322 TIP4 BD1  LP0     -1.358200        0.0000           
    1253 A    7323 TIP4 O1   OW0      0.000000       15.9990           
    1254 A    7323 TIP4 H1   HW0      0.679100        1.0080           
    1255 A    7323 TIP4 H2   HW0      0.679100        1.0080           
    1256 A    7323 TIP4 BD1  LP0     -1.358200        0.0000           
    1257 A    7324 TIP4 O1   OW0      0.000000       15.9990           
    1258 A    7324 TIP4 H1   HW0      0.679100        1.0080           
    1259 A    7324 TIP4 H2   HW0      0.679100        1.0080           
    1260 A    7324 TIP4 BD1  LP0     -1.358200        0.0000           
    1261 A    7325 TIP4 O1   OW0      0.000000       15.9990           
    1262 A    7325 TIP4 H1   HW0      0.679100        1.0080           
    1263 A    7325 TIP4 H2   HW0      0.679100        1.0080           
    1264 A    7325 TIP4 BD1  LP0     -1.358200        0.0000           
    1265 A    7326 TIP4 O1   OW0      0.000000       15.9990           
    1266 A    7326 TIP4 H1   HW0      0.679100        1.0080           
    1267 A    7326 TIP4 H2   HW0      0.679100        1.0080           
    1268 A    7326 TIP4 BD1  LP0     -1.358200        0.0000           
    1269 A    7327 TIP4 O1   OW0      0.000000       15.9990           
    1270 A    7327 TIP4 H1   HW0      0.679100        1.0080           
    1271 A    7327 TIP4 H2   HW0      0.679100        1.0080           
    1272 A    7327 TIP4 BD1  LP0     -1.358200        0.0000           
    1273 A    7328 TIP4 O1   OW0      0.000000       15.9990           
    1274 A    7328 TIP4 H1   HW0      0.679100        1.0080           
    1275 A    7328 TIP4 H2   HW0      0.679100        1.0080           
    1276 A    7328 TIP4 BD1  LP0     -1.358200        0.0000           
    1277 A    7329 TIP4 O1   OW0      0.000000       15.9990           
    1278 A    7329 TIP4 H1   HW0      0.679100        1.0080           
    1279 A    7329 TIP4 H2   HW0      0.679100        1.0080           
    1280 A    7329 TIP4 BD1  LP0     -1.358200        0.0000           
    1281 A    7330 TIP4 O1   OW0      0.000000       15.9990           
    1282 A    7330 TIP4 H1   HW0      0.679100        1.0080           
    1283 A    7330 TIP4 H2   HW0      0.679100        1.0080           
    1284 A    7330 TIP4 BD1  LP0     -1.358200        0.0000           
    1285 A    7331 TIP4 O1   OW0      0.000000       15.9990           
    1286 A    7331 TIP4 H1   HW0      0.679100        1.0080           
    1287 A    7331 TIP4 H2   HW0      0.679100        1.0080           
    1288 A    7331 TIP4 BD1  LP0     -1.358200        0.0000           
    1289 A    7332 TIP4 O1   OW0      0.000000       15.9990           
    1290 A    7332 TIP4 H1   HW0      0.679100        1.0080           
    1291 A    7332 TIP4 H2   HW0      0.679100        1.0080           
    1292 A    7332 TIP4 BD1  LP0     -1.358200        0.0000           
    1293 A    7333 TIP4 O1   OW0      0.000000       15.9990           
    1294 A    7333 TIP4 H1   HW0      0.679100        1.0080           
    1295 A    7333 TIP4 H2   HW0      0.679100        1.0080           
    1296 A    7333 TIP4 BD1  LP0     -1.358200        0.0000           
    1297 A    7334 TIP4 O1   OW0      0.000000       15.9990           
    1298 A    7334 TIP4 H1   HW0      0.679100        1.0080           
    1299 A    7334 TIP4 H2   HW0      0.679100        1.0080           
    1300 A    7334 TIP4 BD1  LP0     -1.358200        0.0000           
    1301 A    7335 TIP4 O1   OW0      0.000000       15.9990           
    1302 A    7335 TIP4 H1   HW0      0.679100        1.0080           
    1303 A    7335 TIP4 H2   HW0      0.679100        1.0080           
    1304 A    7335 TIP4 BD1  LP0     -1.358200        0.0000           
    1305 A    7336 TIP4 O1   OW0      0.000000       15.9990           
    1306 A    7336 TIP4 H1   HW0      0.679100        1.0080           
    1307 A    7336 TIP4 H2   HW0      0.679100        1.0080           
    1308 A    7336 TIP4 BD1  LP0     -1.358200        0.0000           
    1309 A    7337 TIP4 O1   OW0      0.000000       15.9990           
    1310 A    7337 TIP4 H1   HW0      0.679100        1.0080           
    1311 A    7337 TIP4 H2   HW0      0.679100        1.0080           
    1312 A    7337 TIP4 BD1  LP0     -1.358200        0.0000           
    1313 A    7338 TIP4 O1   OW0      0.000000       15.9990           
    1314 A    7338 TIP4 H1   HW0      0.679100        1.0080           
    1315 A    7338 TIP4 H2   HW0      0.679100        1.0080           
    1316 A    7338 TIP4 BD1  LP0     -1.358200        0.0000           
    1317 A    7339 TIP4 O1   OW0      0.000000       15.9990           
    1318 A    7339 TIP4 H1   HW0      0.679100        1.0080           
    1319 A    7339 TIP4 H2   HW0      0.679100        1.0080           
    1320 A    7339 TIP4 BD1  LP0     -1.358200        0.0000           
    1321 A    7340 TIP4 O1   OW0      0.000000       15.9990           
    1322 A    7340 TIP4 H1   HW0      0.679100        1.0080           
    1323 A    7340 TIP4 H2   HW0      0.679100        1.0080           
    1324 A    7340 TIP4 BD1  LP0     -1.358200        0.0000           
    1325 A    7341 TIP4 O1   OW0      0.000000       15.9990           
    1326 A    7341 TIP4 H1   HW0      0.679100        1.0080           
    1327 A    7341 TIP4 H2   HW0      0.679100        1.0080           
    1328 A    7341 TIP4 BD1  LP0     -1.358200        0.0000           
    1329 A    7342 TIP4 O1   OW0      0.000000       15.9990           
    1330 A    7342 TIP4 H1   HW0      0.679100        1.0080           
    1331 A    7342 TIP4 H2   HW0      0.679100        1.0080           
    1332 A    7342 TIP4 BD1  LP0     -1.358200        0.0000           
    1333 A    7343 TIP4 O1   OW0      0.000000       15.9990           
    1334 A    7343 TIP4 H1   HW0      0.679100        1.0080           
    1335 A    7343 TIP4 H2   HW0      0.679100        1.0080           
    1336 A    7343 TIP4 BD1  LP0     -1.358200        0.0000           
    1337 A    7344 TIP4 O1   OW0      0.000000       15.9990           
    1338 A    7344 TIP4 H1   HW0      0.679100        1.0080           
    1339 A    7344 TIP4 H2   HW0      0.679100        1.0080           
    1340 A    7344 TIP4 BD1  LP0     -1.358200        0.0000           
    1341 A    7345 TIP4 O1   OW0      0.000000       15.9990           
    1342 A    7345 TIP4 H1   HW0      0.679100        1.0080           
    1343 A    7345 TIP4 H2   HW0      0.679100        1.0080           
    1344 A    7345 TIP4 BD1  LP0     -1.358200        0.0000           
    1345 A    7346 TIP4 O1   OW0      0.000000       15.9990           
    1346 A    7346 TIP4 H1   HW0      0.679100        1.0080           
    1347 A    7346 TIP4 H2   HW0      0.679100        1.0080           
    1348 A    7346 TIP4 BD1  LP0     -1.358200        0.0000           
    1349 A    7347 TIP4 O1   OW0      0.000000       15.9990           
    1350 A    7347 TIP4 H1   HW0      0.679100        1.0080           
    1351 A    7347 TIP4 H2   HW0      0.679100        1.0080           
    1352 A    7347 TIP4 BD1  LP0     -1.358200        0.0000           
    1353 A    7348 TIP4 O1   OW0      0.000000       15.9990           
    1354 A    7348 TIP4 H1   HW0      0.679100        1.0080           
    1355 A    7348 TIP4 H2   HW0      0.679100        1.0080           
    1356 A    7348 TIP4 BD1  LP0     -1.358200        0.0000           
    1357 A    7349 TIP4 O1   OW0      0.000000       15.9990           
    1358 A    7349 TIP4 H1   HW0      0.679100        1.0080           
    1359 A    7349 TIP4 H2   HW0      0.679100        1.0080           
    1360 A    7349 TIP4 BD1  LP0     -1.358200        0.0000           
    1361 A    7350 TIP4 O1   OW0      0.000000       15.9990           
    1362 A    7350 TIP4 H1   HW0      0.679100        1.0080           
    1363 A    7350 TIP4 H2   HW0      0.679100        1.0080           
    1364 A    7350 TIP4 BD1  LP0     -1.358200        0.0000           
    1365 A    7351 TIP4 O1   OW0      0.000000       15.9990           
    1366 A    7351 TIP4 H1   HW0      0.679100        1.0080           
    1367 A    7351 TIP4 H2   HW0      0.679100        1.0080           
    1368 A    7351 TIP4 BD1  LP0     -1.358200        0.0000           
    1369 A    7352 TIP4 O1   OW0      0.000000       15.9990           
    1370 A    7352 TIP4 H1   HW0      0.679100        1.0080           
    1371 A    7352 TIP4 H2   HW0      0.679100        1.0080           
    1372 A    7352 TIP4 BD1  LP0     -1.358200        0.0000           
    1373 A    7353 TIP4 O1   OW0      0.000000       15.9990           
    1374 A    7353 TIP4 H1   HW0      0.679100        1.0080           
    1375 A    7353 TIP4 H2   HW0      0.679100        1.0080           
    1376 A    7353 TIP4 BD1  LP0     -1.358200        0.0000           
    1377 A    7354 TIP4 O1   OW0      0.000000       15.9990           
    1378 A    7354 TIP4 H1   HW0      0.679100        1.0080           
    1379 A    7354 TIP4 H2   HW0      0.679100        1.0080           
    1380 A    7354 TIP4 BD1  LP0     -1.358200        0.0000           
    1381 A    7355 TIP4 O1   OW0      0.000000       15.9990           
    1382 A    7355 TIP4 H1   HW0      0.679100        1.0080           
    1383 A    7355 TIP4 H2   HW0      0.679100        1.0080           
    1384 A    7355 TIP4 BD1  LP0     -1.358200        0.0000           
    1385 A    7356 TIP4 O1   OW0      0.000000       15.9990           
    1386 A    7356 TIP4 H1   HW0      0.679100        1.0080           
    1387 A    7356 TIP4 H2   HW0      0.679100        1.0080           
    1388 A    7356 TIP4 BD1  LP0     -1.358200        0.0000           
    1389 A    7357 TIP4 O1   OW0      0.000000       15.9990           
    1390 A    7357 TIP4 H1   HW0      0.679100        1.0080           
    1391 A    7357 TIP4 H2   HW0      0.679100        1.0080           
    1392 A    7357 TIP4 BD1  LP0     -1.358200        0.0000           
    1393 A    7358 TIP4 O1   OW0      0.000000       15.9990           
    1394 A    7358 TIP4 H1   HW0      0.679100        1.0080           
    1395 A    7358 TIP4 H2   HW0      0.679100        1.0080           
    1396 A    7358 TIP4 BD1  LP0     -1.358200        0.0000           
    1397 A    7359 TIP4 O1   OW0      0.000000       15.9990           
    1398 A    7359 TIP4 H1   HW0      0.679100        1.0080           
    1399 A    7359 TIP4 H2   HW0      0.679100        1.0080           
    1400 A    7359 TIP4 BD1  LP0     -1.358200        0.0000           
    1401 A    7360 TIP4 O1   OW0      0.000000       15.9990           
    1402 A    7360 TIP4 H1   HW0      0.679100        1.0080           
    1403 A    7360 TIP4 H2   HW0      0.679100        1.0080           
    1404 A    7360 TIP4 BD1  LP0     -1.358200        0.0000           
    1405 A    7361 TIP4 O1   OW0      0.000000       15.9990           
    1406 A    7361 TIP4 H1   HW0      0.679100        1.0080           
    1407 A    7361 TIP4 H2   HW0      0.679100        1.0080           
    1408 A    7361 TIP4 BD1  LP0     -1.358200        0.0000           
    1409 A    7362 TIP4 O1   OW0      0.000000       15.9990           
    1410 A    7362 TIP4 H1   HW0      0.679100        1.0080           
    1411 A    7362 TIP4 H2   HW0      0.679100        1.0080           
    1412 A    7362 TIP4 BD1  LP0     -1.358200        0.0000           
    1413 A    7363 TIP4 O1   OW0      0.000000       15.9990           
    1414 A    7363 TIP4 H1   HW0      0.679100        1.0080           
    1415 A    7363 TIP4 H2   HW0      0.679100        1.0080           
    1416 A    7363 TIP4 BD1  LP0     -1.358200        0.0000           
    1417 A    7364 TIP4 O1   OW0      0.000000       15.9990           
    1418 A    7364 TIP4 H1   HW0      0.679100        1.0080           
    1419 A    7364 TIP4 H2   HW0      0.679100        1.0080           
    1420 A    7364 TIP4 BD1  LP0     -1.358200        0.0000           
    1421 A    7365 TIP4 O1   OW0      0.000000       15.9990           
    1422 A    7365 TIP4 H1   HW0      0.679100        1.0080           
    1423 A    7365 TIP4 H2   HW0      0.679100        1.0080           
    1424 A    7365 TIP4 BD1  LP0     -1.358200        0.0000           
    1425 A    7366 TIP4 O1   OW0      0.000000       15.9990           
    1426 A    7366 TIP4 H1   HW0      0.679100        1.0080           
    1427 A    7366 TIP4 H2   HW0      0.679100        1.0080           
    1428 A    7366 TIP4 BD1  LP0     -1.358200        0.0000           
    1429 A    7367 TIP4 O1   OW0      0.000000       15.9990           
    1430 A    7367 TIP4 H1   HW0      0.679100        1.0080           
    1431 A    7367 TIP4 H2   HW0      0.679100        1.0080           
    1432 A    7367 TIP4 BD1  LP0     -1.358200        0.0000           
    1433 A    7368 TIP4 O1   OW0      0.000000       15.9990           
    1434 A    7368 TIP4 H1   HW0      0.679100        1.0080           
    1435 A    7368 TIP4 H2   HW0      0.679100        1.0080           
    1436 A    7368 TIP4 BD1  LP0     -1.358200        0.0000           
    1437 A    7369 TIP4 O1   OW0      0.000000       15.9990           
    1438 A    7369 TIP4 H1   HW0      0.679100        1.0080           
    1439 A    7369 TIP4 H2   HW0      0.679100        1.0080           
    1440 A    7369 TIP4 BD1  LP0     -1.358200        0.0000           
    1441 A    7370 TIP4 O1   OW0      0.000000       15.9990           
    1442 A    7370 TIP4 H1   HW0      0.679100        1.0080           
    1443 A    7370 TIP4 H2   HW0      0.679100        1.0080           
    1444 A    7370 TIP4 BD1  LP0     -1.358200        0.0000           
    1445 A    7371 TIP4 O1   OW0      0.000000       15.9990           
    1446 A    7371 TIP4 H1   HW0      0.679100        1.0080           
    1447 A    7371 TIP4 H2   HW0      0.679100        1.0080           
    1448 A    7371 TIP4 BD1  LP0     -1.358200        0.0000           
    1449 A    7372 TIP4 O1   OW0      0.000000       15.9990           
    1450 A    7372 TIP4 H1   HW0      0.679100        1.0080           
    1451 A    7372 TIP4 H2   HW0      0.679100        1.0080           
    1452 A    7372 TIP4 BD1  LP0     -1.358200        0.0000           
    1453 A    7373 TIP4 O1   OW0      0.000000       15.9990           
    1454 A    7373 TIP4 H1   HW0      0.679100        1.0080           
    1455 A    7373 TIP4 H2   HW0      0.679100        1.0080           
    1456 A    7373 TIP4 BD1  LP0     -1.358200        0.0000           
    1457 A    7374 TIP4 O1   OW0      0.000000       15.9990           
    1458 A    7374 TIP4 H1   HW0      0.679100        1.0080           
    1459 A    7374 TIP4 H2   HW0      0.679100        1.0080           
    1460 A    7374 TIP4 BD1  LP0     -1.358200        0.0000           
    1461 A    7375 TIP4 O1   OW0      0.000000       15.9990           
    1462 A    7375 TIP4 H1   HW0      0.679100        1.0080           
    1463 A    7375 TIP4 H2   HW0      0.679100        1.0080           
    1464 A    7375 TIP4 BD1  LP0     -1.358200        0.0000           
    1465 A    7376 TIP4 O1   OW0      0.000000       15.9990           
    1466 A    7376 TIP4 H1   HW0      0.679100        1.0080           
    1467 A    7376 TIP4 H2   HW0      0.679100        1.0080           
    1468 A    7376 TIP4 BD1  LP0     -1.358200        0.0000           
    1469 A    7377 TIP4 O1   OW0      0.000000       15.9990           
    1470 A    7377 TIP4 H1   HW0      0.679100        1.0080           
    1471 A    7377 TIP4 H2   HW0      0.679100        1.0080           
    1472 A    7377 TIP4 BD1  LP0     -1.358200        0.0000           
    1473 A    7378 TIP4 O1   OW0      0.000000       15.9990           
    1474 A    7378 TIP4 H1   HW0      0.679100        1.0080           
    1475 A    7378 TIP4 H2   HW0      0.679100        1.0080           
    1476 A    7378 TIP4 BD1  LP0     -1.358200        0.0000           
    1477 A    7379 TIP4 O1   OW0      0.000000       15.9990           
    1478 A    7379 TIP4 H1   HW0      0.679100        1.0080           
    1479 A    7379 TIP4 H2   HW0      0.679100        1.0080           
    1480 A    7379 TIP4 BD1  LP0     -1.358200        0.0000           
    1481 A    7380 TIP4 O1   OW0      0.000000       15.9990           
    1482 A    7380 TIP4 H1   HW0      0.679100        1.0080           
    1483 A    7380 TIP4 H2   HW0      0.679100        1.0080           
    1484 A    7380 TIP4 BD1  LP0     -1.358200        0.0000           
    1485 A    7381 TIP4 O1   OW0      0.000000       15.9990           
    1486 A    7381 TIP4 H1   HW0      0.679100        1.0080           
    1487 A    7381 TIP4 H2   HW0      0.679100        1.0080           
    1488 A    7381 TIP4 BD1  LP0     -1.358200        0.0000           
    1489 A    7382 TIP4 O1   OW0      0.000000       15.9990           
    1490 A    7382 TIP4 H1   HW0      0.679100        1.0080           
    1491 A    7382 TIP4 H2   HW0      0.679100        1.0080           
    1492 A    7382 TIP4 BD1  LP0     -1.358200        0.0000           
    1493 A    7383 TIP4 O1   OW0      0.000000       15.9990           
    1494 A    7383 TIP4 H1   HW0      0.679100        1.0080           
    1495 A    7383 TIP4 H2   HW0      0.679100        1.0080           
    1496 A    7383 TIP4 BD1  LP0     -1.358200        0.0000           
    1497 A    7384 TIP4 O1   OW0      0.000000       15.9990           
    1498 A    7384 TIP4 H1   HW0      0.679100        1.0080           
    1499 A    7384 TIP4 H2   HW0      0.679100        1.0080           
    1500 A    7384 TIP4 BD1  LP0     -1.358200        0.0000           
    1501 A    7385 TIP4 O1   OW0      0.000000       15.9990           
    1502 A    7385 TIP4 H1   HW0      0.679100        1.0080           
    1503 A    7385 TIP4 H2   HW0      0.679100        1.0080           
    1504 A    7385 TIP4 BD1  LP0     -1.358200        0.0000           
    1505 A    7386 TIP4 O1   OW0      0.000000       15.9990           
    1506 A    7386 TIP4 H1   HW0      0.679100        1.0080           
    1507 A    7386 TIP4 H2   HW0      0.679100        1.0080           
    1508 A    7386 TIP4 BD1  LP0     -1.358200        0.0000           
    1509 A    7387 TIP4 O1   OW0      0.000000       15.9990           
    1510 A    7387 TIP4 H1   HW0      0.679100        1.0080           
    1511 A    7387 TIP4 H2   HW0      0.679100        1.0080           
    1512 A    7387 TIP4 BD1  LP0     -1.358200        0.0000           
    1513 A    7388 TIP4 O1   OW0      0.000000       15.9990           
    1514 A    7388 TIP4 H1   HW0      0.679100        1.0080           
    1515 A    7388 TIP4 H2   HW0      0.679100        1.0080           
    1516 A    7388 TIP4 BD1  LP0     -1.358200        0.0000           
    1517 A    7389 TIP4 O1   OW0      0.000000       15.9990           
    1518 A    7389 TIP4 H1   HW0      0.679100        1.0080           
    1519 A    7389 TIP4 H2   HW0      0.679100        1.0080           
    1520 A    7389 TIP4 BD1  LP0     -1.358200        0.0000           
    1521 A    7390 TIP4 O1   OW0      0.000000       15.9990           
    1522 A    7390 TIP4 H1   HW0      0.679100        1.0080           
    1523 A    7390 TIP4 H2   HW0      0.679100        1.0080           
    1524 A    7390 TIP4 BD1  LP0     -1.358200        0.0000           
    1525 A    7391 TIP4 O1   OW0      0.000000       15.9990           
    1526 A    7391 TIP4 H1   HW0      0.679100        1.0080           
    1527 A    7391 TIP4 H2   HW0      0.679100        1.0080           
    1528 A    7391 TIP4 BD1  LP0     -1.358200        0.0000           
    1529 A    7392 TIP4 O1   OW0      0.000000       15.9990           
    1530 A    7392 TIP4 H1   HW0      0.679100        1.0080           
    1531 A    7392 TIP4 H2   HW0      0.679100        1.0080           
    1532 A    7392 TIP4 BD1  LP0     -1.358200        0.0000           
    1533 A    7393 TIP4 O1   OW0      0.000000       15.9990           
    1534 A    7393 TIP4 H1   HW0      0.679100        1.0080           
    1535 A    7393 TIP4 H2   HW0      0.679100        1.0080           
    1536 A    7393 TIP4 BD1  LP0     -1.358200        0.0000           
    1537 A    7394 TIP4 O1   OW0      0.000000       15.9990           
    1538 A    7394 TIP4 H1   HW0      0.679100        1.0080           
    1539 A    7394 TIP4 H2   HW0      0.679100        1.0080           
    1540 A    7394 TIP4 BD1  LP0     -1.358200        0.0000           
    1541 A    7395 TIP4 O1   OW0      0.000000       15.9990           
    1542 A    7395 TIP4 H1   HW0      0.679100        1.0080           
    1543 A    7395 TIP4 H2   HW0      0.679100        1.0080           
    1544 A    7395 TIP4 BD1  LP0     -1.358200        0.0000           
    1545 A    7396 TIP4 O1   OW0      0.000000       15.9990           
    1546 A    7396 TIP4 H1   HW0      0.679100        1.0080           
    1547 A    7396 TIP4 H2   HW0      0.679100        1.0080           
    1548 A    7396 TIP4 BD1  LP0     -1.358200        0.0000           
    1549 A    7397 TIP4 O1   OW0      0.000000       15.9990           
    1550 A    7397 TIP4 H1   HW0      0.679100        1.0080           
    1551 A    7397 TIP4 H2   HW0      0.679100        1.0080           
    1552 A    7397 TIP4 BD1  LP0     -1.358200        0.0000           
    1553 A    7398 TIP4 O1   OW0      0.000000       15.9990           
    1554 A    7398 TIP4 H1   HW0      0.679100        1.0080           
    1555 A    7398 TIP4 H2   HW0      0.679100        1.0080           
    1556 A    7398 TIP4 BD1  LP0     -1.358200        0.0000           
    1557 A    7399 TIP4 O1   OW0      0.000000       15.9990           
    1558 A    7399 TIP4 H1   HW0      0.679100        1.0080           
    1559 A    7399 TIP4 H2   HW0      0.679100        1.0080           
    1560 A    7399 TIP4 BD1  LP0     -1.358200        0.0000           
    1561 A    7400 TIP4 O1   OW0      0.000000       15.9990           
    1562 A    7400 TIP4 H1   HW0      0.679100        1.0080           
    1563 A    7400 TIP4 H2   HW0      0.679100        1.0080           
    1564 A    7400 TIP4 BD1  LP0     -1.358200        0.0000           
    1565 A    7401 TIP4 O1   OW0      0.000000       15.9990           
    1566 A    7401 TIP4 H1   HW0      0.679100        1.0080           
    1567 A    7401 TIP4 H2   HW0      0.679100        1.0080           
    1568 A    7401 TIP4 BD1  LP0     -1.358200        0.0000           
    1569 A    7402 TIP4 O1   OW0      0.000000       15.9990           
    1570 A    7402 TIP4 H1   HW0      0.679100        1.0080           
    1571 A    7402 TIP4 H2   HW0      0.679100        1.0080           
    1572 A    7402 TIP4 BD1  LP0     -1.358200        0.0000           
    1573 A    7403 TIP4 O1   OW0      0.000000       15.9990           
    1574 A    7403 TIP4 H1   HW0      0.679100        1.0080           
    1575 A    7403 TIP4 H2   HW0      0.679100        1.0080           
    1576 A    7403 TIP4 BD1  LP0     -1.358200        0.0000           
    1577 A    7404 TIP4 O1   OW0      0.000000       15.9990           
    1578 A    7404 TIP4 H1   HW0      0.679100        1.0080           
    1579 A    7404 TIP4 H2   HW0      0.679100        1.0080           
    1580 A    7404 TIP4 BD1  LP0     -1.358200        0.0000           
    1581 A    7405 TIP4 O1   OW0      0.000000       15.9990           
    1582 A    7405 TIP4 H1   HW0      0.679100        1.0080           
    1583 A    7405 TIP4 H2   HW0      0.679100        1.0080           
    1584 A    7405 TIP4 BD1  LP0     -1.358200        0.0000           
    1585 A    7406 TIP4 O1   OW0      0.000000       15.9990           
    1586 A    7406 TIP4 H1   HW0      0.679100        1.0080           
    1587 A    7406 TIP4 H2   HW0      0.679100        1.0080           
    1588 A    7406 TIP4 BD1  LP0     -1.358200        0.0000           
    1589 A    7407 TIP4 O1   OW0      0.000000       15.9990           
    1590 A    7407 TIP4 H1   HW0      0.679100        1.0080           
    1591 A    7407 TIP4 H2   HW0      0.679100        1.0080           
    1592 A    7407 TIP4 BD1  LP0     -1.358200        0.0000           
    1593 A    7408 TIP4 O1   OW0      0.000000       15.9990           
    1594 A    7408 TIP4 H1   HW0      0.679100        1.0080           
    1595 A    7408 TIP4 H2   HW0      0.679100        1.0080           
    1596 A    7408 TIP4 BD1  LP0     -1.358200        0.0000           
    1597 A    7409 TIP4 O1   OW0      0.000000       15.9990           
    1598 A    7409 TIP4 H1   HW0      0.679100        1.0080           
    1599 A    7409 TIP4 H2   HW0      0.679100        1.0080           
    1600 A    7409 TIP4 BD1  LP0     -1.358200        0.0000           
    1601 A    7410 TIP4 O1   OW0      0.000000       15.9990           
    1602 A    7410 TIP4 H1   HW0      0.679100        1.0080           
    1603 A    7410 TIP4 H2   HW0      0.679100        1.0080           
    1604 A    7410 TIP4 BD1  LP0     -1.358200        0.0000           
    1605 A    7411 TIP4 O1   OW0      0.000000       15.9990           
    1606 A    7411 TIP4 H1   HW0      0.679100        1.0080           
    1607 A    7411 TIP4 H2   HW0      0.679100        1.0080           
    1608 A    7411 TIP4 BD1  LP0     -1.358200        0.0000           
    1609 A    7412 TIP4 O1   OW0      0.000000       15.9990           
    1610 A    7412 TIP4 H1   HW0      0.679100        1.0080           
    1611 A    7412 TIP4 H2   HW0      0.679100        1.0080           
    1612 A    7412 TIP4 BD1  LP0     -1.358200        0.0000           
    1613 A    7413 TIP4 O1   OW0      0.000000       15.9990           
    1614 A    7413 TIP4 H1   HW0      0.679100        1.0080           
    1615 A    7413 TIP4 H2   HW0      0.679100        1.0080           
    1616 A    7413 TIP4 BD1  LP0     -1.358200        0.0000           
    1617 A    7414 TIP4 O1   OW0      0.000000       15.9990           
    1618 A    7414 TIP4 H1   HW0      0.679100        1.0080           
    1619 A    7414 TIP4 H2   HW0      0.679100        1.0080           
    1620 A    7414 TIP4 BD1  LP0     -1.358200        0.0000           
    1621 A    7415 TIP4 O1   OW0      0.000000       15.9990           
    1622 A    7415 TIP4 H1   HW0      0.679100        1.0080           
    1623 A    7415 TIP4 H2   HW0      0.679100        1.0080           
    1624 A    7415 TIP4 BD1  LP0     -1.358200        0.0000           
    1625 A    7416 TIP4 O1   OW0      0.000000       15.9990           
    1626 A    7416 TIP4 H1   HW0      0.679100        1.0080           
    1627 A    7416 TIP4 H2   HW0      0.679100        1.0080           
    1628 A    7416 TIP4 BD1  LP0     -1.358200        0.0000           
    1629 A    7417 TIP4 O1   OW0      0.000000       15.9990           
    1630 A    7417 TIP4 H1   HW0      0.679100        1.0080           
    1631 A    7417 TIP4 H2   HW0      0.679100        1.0080           
    1632 A    7417 TIP4 BD1  LP0     -1.358200        0.0000           
    1633 A    7418 TIP4 O1   OW0      0.000000       15.9990           
    1634 A    7418 TIP4 H1   HW0      0.679100        1.0080           
    1635 A    7418 TIP4 H2   HW0      0.679100        1.0080           
    1636 A    7418 TIP4 BD1  LP0     -1.358200        0.0000           
    1637 A    7419 TIP4 O1   OW0      0.000000       15.9990           
    1638 A    7419 TIP4 H1   HW0      0.679100        1.0080           
    1639 A    7419 TIP4 H2   HW0      0.679100        1.0080           
    1640 A    7419 TIP4 BD1  LP0     -1.358200        0.0000           
    1641 A    7420 TIP4 O1   OW0      0.000000       15.9990           
    1642 A    7420 TIP4 H1   HW0      0.679100        1.0080           
    1643 A    7420 TIP4 H2   HW0      0.679100        1.0080           
    1644 A    7420 TIP4 BD1  LP0     -1.358200        0.0000           
    1645 A    7421 TIP4 O1   OW0      0.000000       15.9990           
    1646 A    7421 TIP4 H1   HW0      0.679100        1.0080           
    1647 A    7421 TIP4 H2   HW0      0.679100        1.0080           
    1648 A    7421 TIP4 BD1  LP0     -1.358200        0.0000           
    1649 A    7422 TIP4 O1   OW0      0.000000       15.9990           
    1650 A    7422 TIP4 H1   HW0      0.679100        1.0080           
    1651 A    7422 TIP4 H2   HW0      0.679100        1.0080           
    1652 A    7422 TIP4 BD1  LP0     -1.358200        0.0000           
    1653 A    7423 TIP4 O1   OW0      0.000000       15.9990           
    1654 A    7423 TIP4 H1   HW0      0.679100        1.0080           
    1655 A    7423 TIP4 H2   HW0      0.679100        1.0080           
    1656 A    7423 TIP4 BD1  LP0     -1.358200        0.0000           
    1657 A    7424 TIP4 O1   OW0      0.000000       15.9990           
    1658 A    7424 TIP4 H1   HW0      0.679100        1.0080           
    1659 A    7424 TIP4 H2   HW0      0.679100        1.0080           
    1660 A    7424 TIP4 BD1  LP0     -1.358200        0.0000           
    1661 A    7425 TIP4 O1   OW0      0.000000       15.9990           
    1662 A    7425 TIP4 H1   HW0      0.679100        1.0080           
    1663 A    7425 TIP4 H2   HW0      0.679100        1.0080           
    1664 A    7425 TIP4 BD1  LP0     -1.358200        0.0000           
    1665 A    7426 TIP4 O1   OW0      0.000000       15.9990           
    1666 A    7426 TIP4 H1   HW0      0.679100        1.0080           
    1667 A    7426 TIP4 H2   HW0      0.679100        1.0080           
    1668 A    7426 TIP4 BD1  LP0     -1.358200        0.0000           
    1669 A    7427 TIP4 O1   OW0      0.000000       15.9990           
    1670 A    7427 TIP4 H1   HW0      0.679100        1.0080           
    1671 A    7427 TIP4 H2   HW0      0.679100        1.0080           
    1672 A    7427 TIP4 BD1  LP0     -1.358200        0.0000           
    1673 A    7428 TIP4 O1   OW0      0.000000       15.9990           
    1674 A    7428 TIP4 H1   HW0      0.679100        1.0080           
    1675 A    7428 TIP4 H2   HW0      0.679100        1.0080           
    1676 A    7428 TIP4 BD1  LP0     -1.358200        0.0000           
    1677 A    7429 TIP4 O1   OW0      0.000000       15.9990           
    1678 A    7429 TIP4 H1   HW0      0.679100        1.0080           
    1679 A    7429 TIP4 H2   HW0      0.679100        1.0080           
    1680 A    7429 TIP4 BD1  LP0     -1.358200        0.0000           
    1681 A    7430 TIP4 O1   OW0      0.000000       15.9990           
    1682 A    7430 TIP4 H1   HW0      0.679100        1.0080           
    1683 A    7430 TIP4 H2   HW0      0.679100        1.0080           
    1684 A    7430 TIP4 BD1  LP0     -1.358200        0.0000           
    1685 A    7431 TIP4 O1   OW0      0.000000       15.9990           
    1686 A    7431 TIP4 H1   HW0      0.679100        1.0080           
    1687 A    7431 TIP4 H2   HW0      0.679100        1.0080           
    1688 A    7431 TIP4 BD1  LP0     -1.358200        0.0000           
    1689 A    7432 TIP4 O1   OW0      0.000000       15.9990           
    1690 A    7432 TIP4 H1   HW0      0.679100        1.0080           
    1691 A    7432 TIP4 H2   HW0      0.679100        1.0080           
    1692 A    7432 TIP4 BD1  LP0     -1.358200        0.0000           
    1693 A    7433 TIP4 O1   OW0      0.000000       15.9990           
    1694 A    7433 TIP4 H1   HW0      0.679100        1.0080           
    1695 A    7433 TIP4 H2   HW0      0.679100        1.0080           
    1696 A    7433 TIP4 BD1  LP0     -1.358200        0.0000           
    1697 A    7434 TIP4 O1   OW0      0.000000       15.9990           
    1698 A    7434 TIP4 H1   HW0      0.679100        1.0080           
    1699 A    7434 TIP4 H2   HW0      0.679100        1.0080           
    1700 A    7434 TIP4 BD1  LP0     -1.358200        0.0000           
    1701 A    7435 TIP4 O1   OW0      0.000000       15.9990           
    1702 A    7435 TIP4 H1   HW0      0.679100        1.0080           
    1703 A    7435 TIP4 H2   HW0      0.679100        1.0080           
    1704 A    7435 TIP4 BD1  LP0     -1.358200        0.0000           
    1705 A    7436 TIP4 O1   OW0      0.000000       15.9990           
    1706 A    7436 TIP4 H1   HW0      0.679100        1.0080           
    1707 A    7436 TIP4 H2   HW0      0.679100        1.0080           
    1708 A    7436 TIP4 BD1  LP0     -1.358200        0.0000           
    1709 A    7437 TIP4 O1   OW0      0.000000       15.9990           
    1710 A    7437 TIP4 H1   HW0      0.679100        1.0080           
    1711 A    7437 TIP4 H2   HW0      0.679100        1.0080           
    1712 A    7437 TIP4 BD1  LP0     -1.358200        0.0000           
    1713 A    7438 TIP4 O1   OW0      0.000000       15.9990           
    1714 A    7438 TIP4 H1   HW0      0.679100        1.0080           
    1715 A    7438 TIP4 H2   HW0      0.679100        1.0080           
    1716 A    7438 TIP4 BD1  LP0     -1.358200        0.0000           
    1717 A    7439 TIP4 O1   OW0      0.000000       15.9990           
    1718 A    7439 TIP4 H1   HW0      0.679100        1.0080           
    1719 A    7439 TIP4 H2   HW0      0.679100        1.0080           
    1720 A    7439 TIP4 BD1  LP0     -1.358200        0.0000           
    1721 A    7440 TIP4 O1   OW0      0.000000       15.9990           
    1722 A    7440 TIP4 H1   HW0      0.679100        1.0080           
    1723 A    7440 TIP4 H2   HW0      0.679100        1.0080           
    1724 A    7440 TIP4 BD1  LP0     -1.358200        0.0000           
    1725 A    7441 TIP4 O1   OW0      0.000000       15.9990           
    1726 A    7441 TIP4 H1   HW0      0.679100        1.0080           
    1727 A    7441 TIP4 H2   HW0      0.679100        1.0080           
    1728 A    7441 TIP4 BD1  LP0     -1.358200        0.0000           
    1729 A    7442 TIP4 O1   OW0      0.000000       15.9990           
    1730 A    7442 TIP4 H1   HW0      0.679100        1.0080           
    1731 A    7442 TIP4 H2   HW0      0.679100        1.0080           
    1732 A    7442 TIP4 BD1  LP0     -1.358200        0.0000           
    1733 A    7443 TIP4 O1   OW0      0.000000       15.9990           
    1734 A    7443 TIP4 H1   HW0      0.679100        1.0080           
    1735 A    7443 TIP4 H2   HW0      0.679100        1.0080           
    1736 A    7443 TIP4 BD1  LP0     -1.358200        0.0000           
    1737 A    7444 TIP4 O1   OW0      0.000000       15.9990           
    1738 A    7444 TIP4 H1   HW0      0.679100        1.0080           
    1739 A    7444 TIP4 H2   HW0      0.679100        1.0080           
    1740 A    7444 TIP4 BD1  LP0     -1.358200        0.0000           
    1741 A    7445 TIP4 O1   OW0      0.000000       15.9990           
    1742 A    7445 TIP4 H1   HW0      0.679100        1.0080           
    1743 A    7445 TIP4 H2   HW0      0.679100        1.0080           
    1744 A    7445 TIP4 BD1  LP0     -1.358200        0.0000           
    1745 A    7446 TIP4 O1   OW0      0.000000       15.9990           
    1746 A    7446 TIP4 H1   HW0      0.679100        1.0080           
    1747 A    7446 TIP4 H2   HW0      0.679100        1.0080           
    1748 A    7446 TIP4 BD1  LP0     -1.358200        0.0000           
    1749 A    7447 TIP4 O1   OW0      0.000000       15.9990           
    1750 A    7447 TIP4 H1   HW0      0.679100        1.0080           
    1751 A    7447 TIP4 H2   HW0      0.679100        1.0080           
    1752 A    7447 TIP4 BD1  LP0     -1.358200        0.0000           
    1753 A    7448 TIP4 O1   OW0      0.000000       15.9990           
    1754 A    7448 TIP4 H1   HW0      0.679100        1.0080           
    1755 A    7448 TIP4 H2   HW0      0.679100        1.0080           
    1756 A    7448 TIP4 BD1  LP0     -1.358200        0.0000           
    1757 A    7449 TIP4 O1   OW0      0.000000       15.9990           
    1758 A    7449 TIP4 H1   HW0      0.679100        1.0080           
    1759 A    7449 TIP4 H2   HW0      0.679100        1.0080           
    1760 A    7449 TIP4 BD1  LP0     -1.358200        0.0000           
    1761 A    7450 TIP4 O1   OW0      0.000000       15.9990           
    1762 A    7450 TIP4 H1   HW0      0.679100        1.0080           
    1763 A    7450 TIP4 H2   HW0      0.679100        1.0080           
    1764 A    7450 TIP4 BD1  LP0     -1.358200        0.0000           
    1765 A    7451 TIP4 O1   OW0      0.000000       15.9990           
    1766 A    7451 TIP4 H1   HW0      0.679100        1.0080           
    1767 A    7451 TIP4 H2   HW0      0.679100        1.0080           
    1768 A    7451 TIP4 BD1  LP0     -1.358200        0.0000           
    1769 A    7452 TIP4 O1   OW0      0.000000       15.9990           
    1770 A    7452 TIP4 H1   HW0      0.679100        1.0080           
    1771 A    7452 TIP4 H2   HW0      0.679100        1.0080           
    1772 A    7452 TIP4 BD1  LP0     -1.358200        0.0000           
    1773 A    7453 TIP4 O1   OW0      0.000000       15.9990           
    1774 A    7453 TIP4 H1   HW0      0.679100        1.0080           
    1775 A    7453 TIP4 H2   HW0      0.679100        1.0080           
    1776 A    7453 TIP4 BD1  LP0     -1.358200        0.0000           
    1777 A    7454 TIP4 O1   OW0      0.000000       15.9990           
    1778 A    7454 TIP4 H1   HW0      0.679100        1.0080           
    1779 A    7454 TIP4 H2   HW0      0.679100        1.0080           
    1780 A    7454 TIP4 BD1  LP0     -1.358200        0.0000           
    1781 A    7455 TIP4 O1   OW0      0.000000       15.9990           
    1782 A    7455 TIP4 H1   HW0      0.679100        1.0080           
    1783 A    7455 TIP4 H2   HW0      0.679100        1.0080           
    1784 A    7455 TIP4 BD1  LP0     -1.358200        0.0000           
    1785 A    7456 TIP4 O1   OW0      0.000000       15.9990           
    1786 A    7456 TIP4 H1   HW0      0.679100        1.0080           
    1787 A    7456 TIP4 H2   HW0      0.679100        1.0080           
    1788 A    7456 TIP4 BD1  LP0     -1.358200        0.0000           
    1789 A    7457 TIP4 O1   OW0      0.000000       15.9990           
    1790 A    7457 TIP4 H1   HW0      0.679100        1.0080           
    1791 A    7457 TIP4 H2   HW0      0.679100        1.0080           
    1792 A    7457 TIP4 BD1  LP0     -1.358200        0.0000           
    1793 A    7458 TIP4 O1   OW0      0.000000       15.9990           
    1794 A    7458 TIP4 H1   HW0      0.679100        1.0080           
    1795 A    7458 TIP4 H2   HW0      0.679100        1.0080           
    1796 A    7458 TIP4 BD1  LP0     -1.358200        0.0000           
    1797 A    7459 TIP4 O1   OW0      0.000000       15.9990           
    1798 A    7459 TIP4 H1   HW0      0.679100        1.0080           
    1799 A    7459 TIP4 H2   HW0      0.679100        1.0080           
    1800 A    7459 TIP4 BD1  LP0     -1.358200        0.0000           
    1801 A    7460 TIP4 O1   OW0      0.000000       15.9990           
    1802 A    7460 TIP4 H1   HW0      0.679100        1.0080           
    1803 A    7460 TIP4 H2   HW0      0.679100        1.0080           
    1804 A    7460 TIP4 BD1  LP0     -1.358200        0.0000           
    1805 A    7461 TIP4 O1   OW0      0.000000       15.9990           
    1806 A    7461 TIP4 H1   HW0      0.679100        1.0080           
    1807 A    7461 TIP4 H2   HW0      0.679100        1.0080           
    1808 A    7461 TIP4 BD1  LP0     -1.358200        0.0000           
    1809 A    7462 TIP4 O1   OW0      0.000000       15.9990           
    1810 A    7462 TIP4 H1   HW0      0.679100        1.0080           
    1811 A    7462 TIP4 H2   HW0      0.679100        1.0080           
    1812 A    7462 TIP4 BD1  LP0     -1.358200        0.0000           
    1813 A    7463 TIP4 O1   OW0      0.000000       15.9990           
    1814 A    7463 TIP4 H1   HW0      0.679100        1.0080           
    1815 A    7463 TIP4 H2   HW0      0.679100        1.0080           
    1816 A    7463 TIP4 BD1  LP0     -1.358200        0.0000           
    1817 A    7464 TIP4 O1   OW0      0.000000       15.9990           
    1818 A    7464 TIP4 H1   HW0      0.679100        1.0080           
    1819 A    7464 TIP4 H2   HW0      0.679100        1.0080           
    1820 A    7464 TIP4 BD1  LP0     -1.358200        0.0000           
    1821 A    7465 TIP4 O1   OW0      0.000000       15.9990           
    1822 A    7465 TIP4 H1   HW0      0.679100        1.0080           
    1823 A    7465 TIP4 H2   HW0      0.679100        1.0080           
    1824 A    7465 TIP4 BD1  LP0     -1.358200        0.0000           
    1825 A    7466 TIP4 O1   OW0      0.000000       15.9990           
    1826 A    7466 TIP4 H1   HW0      0.679100        1.0080           
    1827 A    7466 TIP4 H2   HW0      0.679100        1.0080           
    1828 A    7466 TIP4 BD1  LP0     -1.358200        0.0000           
    1829 A    7467 TIP4 O1   OW0      0.000000       15.9990           
    1830 A    7467 TIP4 H1   HW0      0.679100        1.0080           
    1831 A    7467 TIP4 H2   HW0      0.679100        1.0080           
    1832 A    7467 TIP4 BD1  LP0     -1.358200        0.0000           
    1833 A    7468 TIP4 O1   OW0      0.000000       15.9990           
    1834 A    7468 TIP4 H1   HW0      0.679100        1.0080           
    1835 A    7468 TIP4 H2   HW0      0.679100        1.0080           
    1836 A    7468 TIP4 BD1  LP0     -1.358200        0.0000           
    1837 A    7469 TIP4 O1   OW0      0.000000       15.9990           
    1838 A    7469 TIP4 H1   HW0      0.679100        1.0080           
    1839 A    7469 TIP4 H2   HW0      0.679100        1.0080           
    1840 A    7469 TIP4 BD1  LP0     -1.358200        0.0000           
    1841 A    7470 TIP4 O1   OW0      0.000000       15.9990           
    1842 A    7470 TIP4 H1   HW0      0.679100        1.0080           
    1843 A    7470 TIP4 H2   HW0      0.679100        1.0080           
    1844 A    7470 TIP4 BD1  LP0     -1.358200        0.0000           
    1845 A    7471 TIP4 O1   OW0      0.000000       15.9990           
    1846 A    7471 TIP4 H1   HW0      0.679100        1.0080           
    1847 A    7471 TIP4 H2   HW0      0.679100        1.0080           
    1848 A    7471 TIP4 BD1  LP0     -1.358200        0.0000           
    1849 A    7472 TIP4 O1   OW0      0.000000       15.9990           
    1850 A    7472 TIP4 H1   HW0      0.679100        1.0080           
    1851 A    7472 TIP4 H2   HW0      0.679100        1.0080           
    1852 A    7472 TIP4 BD1  LP0     -1.358200        0.0000           
    1853 A    7473 TIP4 O1   OW0      0.000000       15.9990           
    1854 A    7473 TIP4 H1   HW0      0.679100        1.0080           
    1855 A    7473 TIP4 H2   HW0      0.679100        1.0080           
    1856 A    7473 TIP4 BD1  LP0     -1.358200        0.0000           
    1857 A    7474 TIP4 O1   OW0      0.000000       15.9990           
    1858 A    7474 TIP4 H1   HW0      0.679100        1.0080           
    1859 A    7474 TIP4 H2   HW0      0.679100        1.0080           
    1860 A    7474 TIP4 BD1  LP0     -1.358200        0.0000           
    1861 A    7475 TIP4 O1   OW0      0.000000       15.9990           
    1862 A    7475 TIP4 H1   HW0      0.679100        1.0080           
    1863 A    7475 TIP4 H2   HW0      0.679100        1.0080           
    1864 A    7475 TIP4 BD1  LP0     -1.358200        0.0000           
    1865 A    7476 TIP4 O1   OW0      0.000000       15.9990           
    1866 A    7476 TIP4 H1   HW0      0.679100        1.0080           
    1867 A    7476 TIP4 H2   HW0      0.679100        1.0080           
    1868 A    7476 TIP4 BD1  LP0     -1.358200        0.0000           
    1869 A    7477 TIP4 O1   OW0      0.000000       15.9990           
    1870 A    7477 TIP4 H1   HW0      0.679100        1.0080           
    1871 A    7477 TIP4 H2   HW0      0.679100        1.0080           
    1872 A    7477 TIP4 BD1  LP0     -1.358200        0.0000           
    1873 A    7478 TIP4 O1   OW0      0.000000       15.9990           
    1874 A    7478 TIP4 H1   HW0      0.679100        1.0080           
    1875 A    7478 TIP4 H2   HW0      0.679100        1.0080           
    1876 A    7478 TIP4 BD1  LP0     -1.358200        0.0000           
    1877 A    7479 TIP4 O1   OW0      0.000000       15.9990           
    1878 A    7479 TIP4 H1   HW0      0.679100        1.0080           
    1879 A    7479 TIP4 H2   HW0      0.679100        1.0080           
    1880 A    7479 TIP4 BD1  LP0     -1.358200        0.0000           
    1881 A    7480 TIP4 O1   OW0      0.000000       15.9990           
    1882 A    7480 TIP4 H1   HW0      0.679100        1.0080           
    1883 A    7480 TIP4 H2   HW0      0.679100        1.0080           
    1884 A    7480 TIP4 BD1  LP0     -1.358200        0.0000           
    1885 A    7481 TIP4 O1   OW0      0.000000       15.9990           
    1886 A    7481 TIP4 H1   HW0      0.679100        1.0080           
    1887 A    7481 TIP4 H2   HW0      0.679100        1.0080           
    1888 A    7481 TIP4 BD1  LP0     -1.358200        0.0000           
    1889 A    7482 TIP4 O1   OW0      0.000000       15.9990           
    1890 A    7482 TIP4 H1   HW0      0.679100        1.0080           
    1891 A    7482 TIP4 H2   HW0      0.679100        1.0080           
    1892 A    7482 TIP4 BD1  LP0     -1.358200        0.0000           
    1893 A    7483 TIP4 O1   OW0      0.000000       15.9990           
    1894 A    7483 TIP4 H1   HW0      0.679100        1.0080           
    1895 A    7483 TIP4 H2   HW0      0.679100        1.0080           
    1896 A    7483 TIP4 BD1  LP0     -1.358200        0.0000           
    1897 A    7484 TIP4 O1   OW0      0.000000       15.9990           
    1898 A    7484 TIP4 H1   HW0      0.679100        1.0080           
    1899 A    7484 TIP4 H2   HW0      0.679100        1.0080           
    1900 A    7484 TIP4 BD1  LP0     -1.358200        0.0000           
    1901 A    7485 TIP4 O1   OW0      0.000000       15.9990           
    1902 A    7485 TIP4 H1   HW0      0.679100        1.0080           
    1903 A    7485 TIP4 H2   HW0      0.679100        1.0080           
    1904 A    7485 TIP4 BD1  LP0     -1.358200        0.0000           
    1905 A    7486 TIP4 O1   OW0      0.000000       15.9990           
    1906 A    7486 TIP4 H1   HW0      0.679100        1.0080           
    1907 A    7486 TIP4 H2   HW0      0.679100        1.0080           
    1908 A    7486 TIP4 BD1  LP0     -1.358200        0.0000           
    1909 A    7487 TIP4 O1   OW0      0.000000       15.9990           
    1910 A    7487 TIP4 H1   HW0      0.679100        1.0080           
    1911 A    7487 TIP4 H2   HW0      0.679100        1.0080           
    1912 A    7487 TIP4 BD1  LP0     -1.358200        0.0000           
    1913 A    7488 TIP4 O1   OW0      0.000000       15.9990           
    1914 A    7488 TIP4 H1   HW0      0.679100        1.0080           
    1915 A    7488 TIP4 H2   HW0      0.679100        1.0080           
    1916 A    7488 TIP4 BD1  LP0     -1.358200        0.0000           
    1917 A    7489 TIP4 O1   OW0      0.000000       15.9990           
    1918 A    7489 TIP4 H1   HW0      0.679100        1.0080           
    1919 A    7489 TIP4 H2   HW0      0.679100        1.0080           
    1920 A    7489 TIP4 BD1  LP0     -1.358200        0.0000           
    1921 A    7490 TIP4 O1   OW0      0.000000       15.9990           
    1922 A    7490 TIP4 H1   HW0      0.679100        1.0080           
    1923 A    7490 TIP4 H2   HW0      0.679100        1.0080           
    1924 A    7490 TIP4 BD1  LP0     -1.358200        0.0000           
    1925 A    7491 TIP4 O1   OW0      0.000000       15.9990           
    1926 A    7491 TIP4 H1   HW0      0.679100        1.0080           
    1927 A    7491 TIP4 H2   HW0      0.679100        1.0080           
    1928 A    7491 TIP4 BD1  LP0     -1.358200        0.0000           
    1929 A    7492 TIP4 O1   OW0      0.000000       15.9990           
    1930 A    7492 TIP4 H1   HW0      0.679100        1.0080           
    1931 A    7492 TIP4 H2   HW0      0.679100        1.0080           
    1932 A    7492 TIP4 BD1  LP0     -1.358200        0.0000           
    1933 A    7493 TIP4 O1   OW0      0.000000       15.9990           
    1934 A    7493 TIP4 H1   HW0      0.679100        1.0080           
    1935 A    7493 TIP4 H2   HW0      0.679100        1.0080           
    1936 A    7493 TIP4 BD1  LP0     -1.358200        0.0000           
    1937 A    7494 TIP4 O1   OW0      0.000000       15.9990           
    1938 A    7494 TIP4 H1   HW0      0.679100        1.0080           
    1939 A    7494 TIP4 H2   HW0      0.679100        1.0080           
    1940 A    7494 TIP4 BD1  LP0     -1.358200        0.0000           
    1941 A    7495 TIP4 O1   OW0      0.000000       15.9990           
    1942 A    7495 TIP4 H1   HW0      0.679100        1.0080           
    1943 A    7495 TIP4 H2   HW0      0.679100        1.0080           
    1944 A    7495 TIP4 BD1  LP0     -1.358200        0.0000           
    1945 A    7496 TIP4 O1   OW0      0.000000       15.9990           
    1946 A    7496 TIP4 H1   HW0      0.679100        1.0080           
    1947 A    7496 TIP4 H2   HW0      0.679100        1.0080           
    1948 A    7496 TIP4 BD1  LP0     -1.358200        0.0000           
    1949 A    7497 TIP4 O1   OW0      0.000000       15.9990           
    1950 A    7497 TIP4 H1   HW0      0.679100        1.0080           
    1951 A    7497 TIP4 H2   HW0      0.679100        1.0080           
    1952 A    7497 TIP4 BD1  LP0     -1.358200        0.0000           
    1953 A    7498 TIP4 O1   OW0      0.000000       15.9990           
    1954 A    7498 TIP4 H1   HW0      0.679100        1.0080           
    1955 A    7498 TIP4 H2   HW0      0.679100        1.0080           
    1956 A    7498 TIP4 BD1  LP0     -1.358200        0.0000           
    1957 A    7499 TIP4 O1   OW0      0.000000       15.9990           
    1958 A    7499 TIP4 H1   HW0      0.679100        1.0080           
    1959 A    7499 TIP4 H2   HW0      0.679100        1.0080           
    1960 A    7499 TIP4 BD1  LP0     -1.358200        0.0000           
    1961 A    7500 TIP4 O1   OW0      0.000000       15.9990           
    1962 A    7500 TIP4 H1   HW0      0.679100        1.0080           
    1963 A    7500 TIP4 H2   HW0      0.679100        1.0080           
    1964 A    7500 TIP4 BD1  LP0     -1.358200        0.0000           
    1965 A    7501 TIP4 O1   OW0      0.000000       15.9990           
    1966 A    7501 TIP4 H1   HW0      0.679100        1.0080           
    1967 A    7501 TIP4 H2   HW0      0.679100        1.0080           
    1968 A    7501 TIP4 BD1  LP0     -1.358200        0.0000           
    1969 A    7502 TIP4 O1   OW0      0.000000       15.9990           
    1970 A    7502 TIP4 H1   HW0      0.679100        1.0080           
    1971 A    7502 TIP4 H2   HW0      0.679100        1.0080           
    1972 A    7502 TIP4 BD1  LP0     -1.358200        0.0000           
    1973 A    7503 TIP4 O1   OW0      0.000000       15.9990           
    1974 A    7503 TIP4 H1   HW0      0.679100        1.0080           
    1975 A    7503 TIP4 H2   HW0      0.679100        1.0080           
    1976 A    7503 TIP4 BD1  LP0     -1.358200        0.0000           
    1977 A    7504 TIP4 O1   OW0      0.000000       15.9990           
    1978 A    7504 TIP4 H1   HW0      0.679100        1.0080           
    1979 A    7504 TIP4 H2   HW0      0.679100        1.0080           
    1980 A    7504 TIP4 BD1  LP0     -1.358200        0.0000           
    1981 A    7505 TIP4 O1   OW0      0.000000       15.9990           
    1982 A    7505 TIP4 H1   HW0      0.679100        1.0080           
    1983 A    7505 TIP4 H2   HW0      0.679100        1.0080           
    1984 A    7505 TIP4 BD1  LP0     -1.358200        0.0000           
    1985 A    7506 TIP4 O1   OW0      0.000000       15.9990           
    1986 A    7506 TIP4 H1   HW0      0.679100        1.0080           
    1987 A    7506 TIP4 H2   HW0      0.679100        1.0080           
    1988 A    7506 TIP4 BD1  LP0     -1.358200        0.0000           
    1989 A    7507 TIP4 O1   OW0      0.000000       15.9990           
    1990 A    7507 TIP4 H1   HW0      0.679100        1.0080           
    1991 A    7507 TIP4 H2   HW0      0.679100        1.0080           
    1992 A    7507 TIP4 BD1  LP0     -1.358200        0.0000           
    1993 A    7508 TIP4 O1   OW0      0.000000       15.9990           
    1994 A    7508 TIP4 H1   HW0      0.679100        1.0080           
    1995 A    7508 TIP4 H2   HW0      0.679100        1.0080           
    1996 A    7508 TIP4 BD1  LP0     -1.358200        0.0000           
    1997 A    7509 TIP4 O1   OW0      0.000000       15.9990           
    1998 A    7509 TIP4 H1   HW0      0.679100        1.0080           
    1999 A    7509 TIP4 H2   HW0      0.679100        1.0080           
    2000 A    7509 TIP4 BD1  LP0     -1.358200        0.0000           
    2001 A    7510 TIP4 O1   OW0      0.000000       15.9990           
    2002 A    7510 TIP4 H1   HW0      0.679100        1.0080           
    2003 A    7510 TIP4 H2   HW0      0.679100        1.0080           
    2004 A    7510 TIP4 BD1  LP0     -1.358200        0.0000           
    2005 A    7511 TIP4 O1   OW0      0.000000       15.9990           
    2006 A    7511 TIP4 H1   HW0      0.679100        1.0080           
    2007 A    7511 TIP4 H2   HW0      0.679100        1.0080           
    2008 A    7511 TIP4 BD1  LP0     -1.358200        0.0000           
    2009 A    7512 TIP4 O1   OW0      0.000000       15.9990           
    2010 A    7512 TIP4 H1   HW0      0.679100        1.0080           
    2011 A    7512 TIP4 H2   HW0      0.679100        1.0080           
    2012 A    7512 TIP4 BD1  LP0     -1.358200        0.0000           
    2013 A    7513 TIP4 O1   OW0      0.000000       15.9990           
    2014 A    7513 TIP4 H1   HW0      0.679100        1.0080           
    2015 A    7513 TIP4 H2   HW0      0.679100        1.0080           
    2016 A    7513 TIP4 BD1  LP0     -1.358200        0.0000           
    2017 A    7514 TIP4 O1   OW0      0.000000       15.9990           
    2018 A    7514 TIP4 H1   HW0      0.679100        1.0080           
    2019 A    7514 TIP4 H2   HW0      0.679100        1.0080           
    2020 A    7514 TIP4 BD1  LP0     -1.358200        0.0000           
    2021 A    7515 TIP4 O1   OW0      0.000000       15.9990           
    2022 A    7515 TIP4 H1   HW0      0.679100        1.0080           
    2023 A    7515 TIP4 H2   HW0      0.679100        1.0080           
    2024 A    7515 TIP4 BD1  LP0     -1.358200        0.0000           
    2025 A    7516 TIP4 O1   OW0      0.000000       15.9990           
    2026 A    7516 TIP4 H1   HW0      0.679100        1.0080           
    2027 A    7516 TIP4 H2   HW0      0.679100        1.0080           
    2028 A    7516 TIP4 BD1  LP0     -1.358200        0.0000           
    2029 A    7517 TIP4 O1   OW0      0.000000       15.9990           
    2030 A    7517 TIP4 H1   HW0      0.679100        1.0080           
    2031 A    7517 TIP4 H2   HW0      0.679100        1.0080           
    2032 A    7517 TIP4 BD1  LP0     -1.358200        0.0000           
    2033 A    7518 TIP4 O1   OW0      0.000000       15.9990           
    2034 A    7518 TIP4 H1   HW0      0.679100        1.0080           
    2035 A    7518 TIP4 H2   HW0      0.679100        1.0080           
    2036 A    7518 TIP4 BD1  LP0     -1.358200        0.0000           
    2037 A    7519 TIP4 O1   OW0      0.000000       15.9990           
    2038 A    7519 TIP4 H1   HW0      0.679100        1.0080           
    2039 A    7519 TIP4 H2   HW0      0.679100        1.0080           
    2040 A    7519 TIP4 BD1  LP0     -1.358200        0.0000           
    2041 A    7520 TIP4 O1   OW0      0.000000       15.9990           
    2042 A    7520 TIP4 H1   HW0      0.679100        1.0080           
    2043 A    7520 TIP4 H2   HW0      0.679100        1.0080           
    2044 A    7520 TIP4 BD1  LP0     -1.358200        0.0000           
    2045 A    7521 TIP4 O1   OW0      0.000000       15.9990           
    2046 A    7521 TIP4 H1   HW0      0.679100        1.0080           
    2047 A    7521 TIP4 H2   HW0      0.679100        1.0080           
    2048 A    7521 TIP4 BD1  LP0     -1.358200        0.0000           
    2049 A    7522 TIP4 O1   OW0      0.000000       15.9990           
    2050 A    7522 TIP4 H1   HW0      0.679100        1.0080           
    2051 A    7522 TIP4 H2   HW0      0.679100        1.0080           
    2052 A    7522 TIP4 BD1  LP0     -1.358200        0.0000           
    2053 A    7523 TIP4 O1   OW0      0.000000       15.9990           
    2054 A    7523 TIP4 H1   HW0      0.679100        1.0080           
    2055 A    7523 TIP4 H2   HW0      0.679100        1.0080           
    2056 A    7523 TIP4 BD1  LP0     -1.358200        0.0000           
    2057 A    7524 TIP4 O1   OW0      0.000000       15.9990           
    2058 A    7524 TIP4 H1   HW0      0.679100        1.0080           
    2059 A    7524 TIP4 H2   HW0      0.679100        1.0080           
    2060 A    7524 TIP4 BD1  LP0     -1.358200        0.0000           
    2061 A    7525 TIP4 O1   OW0      0.000000       15.9990           
    2062 A    7525 TIP4 H1   HW0      0.679100        1.0080           
    2063 A    7525 TIP4 H2   HW0      0.679100        1.0080           
    2064 A    7525 TIP4 BD1  LP0     -1.358200        0.0000           
    2065 A    7526 TIP4 O1   OW0      0.000000       15.9990           
    2066 A    7526 TIP4 H1   HW0      0.679100        1.0080           
    2067 A    7526 TIP4 H2   HW0      0.679100        1.0080           
    2068 A    7526 TIP4 BD1  LP0     -1.358200        0.0000           
    2069 A    7527 TIP4 O1   OW0      0.000000       15.9990           
    2070 A    7527 TIP4 H1   HW0      0.679100        1.0080           
    2071 A    7527 TIP4 H2   HW0      0.679100        1.0080           
    2072 A    7527 TIP4 BD1  LP0     -1.358200        0.0000           
    2073 A    7528 TIP4 O1   OW0      0.000000       15.9990           
    2074 A    7528 TIP4 H1   HW0      0.679100        1.0080           
    2075 A    7528 TIP4 H2   HW0      0.679100        1.0080           
    2076 A    7528 TIP4 BD1  LP0     -1.358200        0.0000           
    2077 A    7529 TIP4 O1   OW0      0.000000       15.9990           
    2078 A    7529 TIP4 H1   HW0      0.679100        1.0080           
    2079 A    7529 TIP4 H2   HW0      0.679100        1.0080           
    2080 A    7529 TIP4 BD1  LP0     -1.358200        0.0000           
    2081 A    7530 TIP4 O1   OW0      0.000000       15.9990           
    2082 A    7530 TIP4 H1   HW0      0.679100        1.0080           
    2083 A    7530 TIP4 H2   HW0      0.679100        1.0080           
    2084 A    7530 TIP4 BD1  LP0     -1.358200        0.0000           
    2085 A    7531 TIP4 O1   OW0      0.000000       15.9990           
    2086 A    7531 TIP4 H1   HW0      0.679100        1.0080           
    2087 A    7531 TIP4 H2   HW0      0.679100        1.0080           
    2088 A    7531 TIP4 BD1  LP0     -1.358200        0.0000           
    2089 A    7532 TIP4 O1   OW0      0.000000       15.9990           
    2090 A    7532 TIP4 H1   HW0      0.679100        1.0080           
    2091 A    7532 TIP4 H2   HW0      0.679100        1.0080           
    2092 A    7532 TIP4 BD1  LP0     -1.358200        0.0000           
    2093 A    7533 TIP4 O1   OW0      0.000000       15.9990           
    2094 A    7533 TIP4 H1   HW0      0.679100        1.0080           
    2095 A    7533 TIP4 H2   HW0      0.679100        1.0080           
    2096 A    7533 TIP4 BD1  LP0     -1.358200        0.0000           
    2097 A    7534 TIP4 O1   OW0      0.000000       15.9990           
    2098 A    7534 TIP4 H1   HW0      0.679100        1.0080           
    2099 A    7534 TIP4 H2   HW0      0.679100        1.0080           
    2100 A    7534 TIP4 BD1  LP0     -1.358200        0.0000           
    2101 A    7535 TIP4 O1   OW0      0.000000       15.9990           
    2102 A    7535 TIP4 H1   HW0      0.679100        1.0080           
    2103 A    7535 TIP4 H2   HW0      0.679100        1.0080           
    2104 A    7535 TIP4 BD1  LP0     -1.358200        0.0000           
    2105 A    7536 TIP4 O1   OW0      0.000000       15.9990           
    2106 A    7536 TIP4 H1   HW0      0.679100        1.0080           
    2107 A    7536 TIP4 H2   HW0      0.679100        1.0080           
    2108 A    7536 TIP4 BD1  LP0     -1.358200        0.0000           
    2109 A    7537 TIP4 O1   OW0      0.000000       15.9990           
    2110 A    7537 TIP4 H1   HW0      0.679100        1.0080           
    2111 A    7537 TIP4 H2   HW0      0.679100        1.0080           
    2112 A    7537 TIP4 BD1  LP0     -1.358200        0.0000           
    2113 A    7538 TIP4 O1   OW0      0.000000       15.9990           
    2114 A    7538 TIP4 H1   HW0      0.679100        1.0080           
    2115 A    7538 TIP4 H2   HW0      0.679100        1.0080           
    2116 A    7538 TIP4 BD1  LP0     -1.358200        0.0000           
    2117 A    7539 TIP4 O1   OW0      0.000000       15.9990           
    2118 A    7539 TIP4 H1   HW0      0.679100        1.0080           
    2119 A    7539 TIP4 H2   HW0      0.679100        1.0080           
    2120 A    7539 TIP4 BD1  LP0     -1.358200        0.0000           
    2121 A    7540 TIP4 O1   OW0      0.000000       15.9990           
    2122 A    7540 TIP4 H1   HW0      0.679100        1.0080           
    2123 A    7540 TIP4 H2   HW0      0.679100        1.0080           
    2124 A    7540 TIP4 BD1  LP0     -1.358200        0.0000           
    2125 A    7541 TIP4 O1   OW0      0.000000       15.9990           
    2126 A    7541 TIP4 H1   HW0      0.679100        1.0080           
    2127 A    7541 TIP4 H2   HW0      0.679100        1.0080           
    2128 A    7541 TIP4 BD1  LP0     -1.358200        0.0000           
    2129 A    7542 TIP4 O1   OW0      0.000000       15.9990           
    2130 A    7542 TIP4 H1   HW0      0.679100        1.0080           
    2131 A    7542 TIP4 H2   HW0      0.679100        1.0080           
    2132 A    7542 TIP4 BD1  LP0     -1.358200        0.0000           
    2133 A    7543 TIP4 O1   OW0      0.000000       15.9990           
    2134 A    7543 TIP4 H1   HW0      0.679100        1.0080           
    2135 A    7543 TIP4 H2   HW0      0.679100        1.0080           
    2136 A    7543 TIP4 BD1  LP0     -1.358200        0.0000           
    2137 A    7544 TIP4 O1   OW0      0.000000       15.9990           
    2138 A    7544 TIP4 H1   HW0      0.679100        1.0080           
    2139 A    7544 TIP4 H2   HW0      0.679100        1.0080           
    2140 A    7544 TIP4 BD1  LP0     -1.358200        0.0000           
    2141 A    7545 TIP4 O1   OW0      0.000000       15.9990           
    2142 A    7545 TIP4 H1   HW0      0.679100        1.0080           
    2143 A    7545 TIP4 H2   HW0      0.679100        1.0080           
    2144 A    7545 TIP4 BD1  LP0     -1.358200        0.0000           
    2145 A    7546 TIP4 O1   OW0      0.000000       15.9990           
    2146 A    7546 TIP4 H1   HW0      0.679100        1.0080           
    2147 A    7546 TIP4 H2   HW0      0.679100        1.0080           
    2148 A    7546 TIP4 BD1  LP0     -1.358200        0.0000           
    2149 A    7547 TIP4 O1   OW0      0.000000       15.9990           
    2150 A    7547 TIP4 H1   HW0      0.679100        1.0080           
    2151 A    7547 TIP4 H2   HW0      0.679100        1.0080           
    2152 A    7547 TIP4 BD1  LP0     -1.358200        0.0000           
    2153 A    7548 TIP4 O1   OW0      0.000000       15.9990           
    2154 A    7548 TIP4 H1   HW0      0.679100        1.0080           
    2155 A    7548 TIP4 H2   HW0      0.679100        1.0080           
    2156 A    7548 TIP4 BD1  LP0     -1.358200        0.0000           
    2157 A    7549 TIP4 O1   OW0      0.000000       15.9990           
    2158 A    7549 TIP4 H1   HW0      0.679100        1.0080           
    2159 A    7549 TIP4 H2   HW0      0.679100        1.0080           
    2160 A    7549 TIP4 BD1  LP0     -1.358200        0.0000           
    2161 A    7550 TIP4 O1   OW0      0.000000       15.9990           
    2162 A    7550 TIP4 H1   HW0      0.679100        1.0080           
    2163 A    7550 TIP4 H2   HW0      0.679100        1.0080           
    2164 A    7550 TIP4 BD1  LP0     -1.358200        0.0000           
    2165 A    7551 TIP4 O1   OW0      0.000000       15.9990           
    2166 A    7551 TIP4 H1   HW0      0.679100        1.0080           
    2167 A    7551 TIP4 H2   HW0      0.679100        1.0080           
    2168 A    7551 TIP4 BD1  LP0     -1.358200        0.0000           
    2169 A    7552 TIP4 O1   OW0      0.000000       15.9990           
    2170 A    7552 TIP4 H1   HW0      0.679100        1.0080           
    2171 A    7552 TIP4 H2   HW0      0.679100        1.0080           
    2172 A    7552 TIP4 BD1  LP0     -1.358200        0.0000           
    2173 A    7553 TIP4 O1   OW0      0.000000       15.9990           
    2174 A    7553 TIP4 H1   HW0      0.679100        1.0080           
    2175 A    7553 TIP4 H2   HW0      0.679100        1.0080           
    2176 A    7553 TIP4 BD1  LP0     -1.358200        0.0000           
    2177 A    7554 TIP4 O1   OW0      0.000000       15.9990           
    2178 A    7554 TIP4 H1   HW0      0.679100        1.0080           
    2179 A    7554 TIP4 H2   HW0      0.679100        1.0080           
    2180 A    7554 TIP4 BD1  LP0     -1.358200        0.0000           
    2181 A    7555 TIP4 O1   OW0      0.000000       15.9990           
    2182 A    7555 TIP4 H1   HW0      0.679100        1.0080           
    2183 A    7555 TIP4 H2   HW0      0.679100        1.0080           
    2184 A    7555 TIP4 BD1  LP0     -1.358200        0.0000           
    2185 A    7556 TIP4 O1   OW0      0.000000       15.9990           
    2186 A    7556 TIP4 H1   HW0      0.679100        1.0080           
    2187 A    7556 TIP4 H2   HW0      0.679100        1.0080           
    2188 A    7556 TIP4 BD1  LP0     -1.358200        0.0000           
    2189 A    7557 TIP4 O1   OW0      0.000000       15.9990           
    2190 A    7557 TIP4 H1   HW0      0.679100        1.0080           
    2191 A    7557 TIP4 H2   HW0      0.679100        1.0080           
    2192 A    7557 TIP4 BD1  LP0     -1.358200        0.0000           
    2193 A    7558 TIP4 O1   OW0      0.000000       15.9990           
    2194 A    7558 TIP4 H1   HW0      0.679100        1.0080           
    2195 A    7558 TIP4 H2   HW0      0.679100        1.0080           
    2196 A    7558 TIP4 BD1  LP0     -1.358200        0.0000           
    2197 A    7559 TIP4 O1   OW0      0.000000       15.9990           
    2198 A    7559 TIP4 H1   HW0      0.679100        1.0080           
    2199 A    7559 TIP4 H2   HW0      0.679100        1.0080           
    2200 A    7559 TIP4 BD1  LP0     -1.358200        0.0000           
    2201 A    7560 TIP4 O1   OW0      0.000000       15.9990           
    2202 A    7560 TIP4 H1   HW0      0.679100        1.0080           
    2203 A    7560 TIP4 H2   HW0      0.679100        1.0080           
    2204 A    7560 TIP4 BD1  LP0     -1.358200        0.0000           
    2205 A    7561 TIP4 O1   OW0      0.000000       15.9990           
    2206 A    7561 TIP4 H1   HW0      0.679100        1.0080           
    2207 A    7561 TIP4 H2   HW0      0.679100        1.0080           
    2208 A    7561 TIP4 BD1  LP0     -1.358200        0.0000           
    2209 A    7562 TIP4 O1   OW0      0.000000       15.9990           
    2210 A    7562 TIP4 H1   HW0      0.679100        1.0080           
    2211 A    7562 TIP4 H2   HW0      0.679100        1.0080           
    2212 A    7562 TIP4 BD1  LP0     -1.358200        0.0000           
    2213 A    7563 TIP4 O1   OW0      0.000000       15.9990           
    2214 A    7563 TIP4 H1   HW0      0.679100        1.0080           
    2215 A    7563 TIP4 H2   HW0      0.679100        1.0080           
    2216 A    7563 TIP4 BD1  LP0     -1.358200        0.0000           
    2217 A    7564 TIP4 O1   OW0      0.000000       15.9990           
    2218 A    7564 TIP4 H1   HW0      0.679100        1.0080           
    2219 A    7564 TIP4 H2   HW0      0.679100        1.0080           
    2220 A    7564 TIP4 BD1  LP0     -1.358200        0.0000           
    2221 A    7565 TIP4 O1   OW0      0.000000       15.9990           
    2222 A    7565 TIP4 H1   HW0      0.679100        1.0080           
    2223 A    7565 TIP4 H2   HW0      0.679100        1.0080           
    2224 A    7565 TIP4 BD1  LP0     -1.358200        0.0000           
    2225 A    7566 TIP4 O1   OW0      0.000000       15.9990           
    2226 A    7566 TIP4 H1   HW0      0.679100        1.0080           
    2227 A    7566 TIP4 H2   HW0      0.679100        1.0080           
    2228 A    7566 TIP4 BD1  LP0     -1.358200        0.0000           
    2229 A    7567 TIP4 O1   OW0      0.000000       15.9990           
    2230 A    7567 TIP4 H1   HW0      0.679100        1.0080           
    2231 A    7567 TIP4 H2   HW0      0.679100        1.0080           
    2232 A    7567 TIP4 BD1  LP0     -1.358200        0.0000           
    2233 A    7568 TIP4 O1   OW0      0.000000       15.9990           
    2234 A    7568 TIP4 H1   HW0      0.679100        1.0080           
    2235 A    7568 TIP4 H2   HW0      0.679100        1.0080           
    2236 A    7568 TIP4 BD1  LP0     -1.358200        0.0000           
    2237 A    7569 TIP4 O1   OW0      0.000000       15.9990           
    2238 A    7569 TIP4 H1   HW0      0.679100        1.0080           
    2239 A    7569 TIP4 H2   HW0      0.679100        1.0080           
    2240 A    7569 TIP4 BD1  LP0     -1.358200        0.0000           
    2241 A    7570 TIP4 O1   OW0      0.000000       15.9990           
    2242 A    7570 TIP4 H1   HW0      0.679100        1.0080           
    2243 A    7570 TIP4 H2   HW0      0.679100        1.0080           
    2244 A    7570 TIP4 BD1  LP0     -1.358200        0.0000           
    2245 A    7571 TIP4 O1   OW0      0.000000       15.9990           
    2246 A    7571 TIP4 H1   HW0      0.679100        1.0080           
    2247 A    7571 TIP4 H2   HW0      0.679100        1.0080           
    2248 A    7571 TIP4 BD1  LP0     -1.358200        0.0000           
    2249 A    7572 TIP4 O1   OW0      0.000000       15.9990           
    2250 A    7572 TIP4 H1   HW0      0.679100        1.0080           
    2251 A    7572 TIP4 H2   HW0      0.679100        1.0080           
    2252 A    7572 TIP4 BD1  LP0     -1.358200        0.0000           
    2253 A    7573 TIP4 O1   OW0      0.000000       15.9990           
    2254 A    7573 TIP4 H1   HW0      0.679100        1.0080           
    2255 A    7573 TIP4 H2   HW0      0.679100        1.0080           
    2256 A    7573 TIP4 BD1  LP0     -1.358200        0.0000           
    2257 A    7574 TIP4 O1   OW0      0.000000       15.9990           
    2258 A    7574 TIP4 H1   HW0      0.679100        1.0080           
    2259 A    7574 TIP4 H2   HW0      0.679100        1.0080           
    2260 A    7574 TIP4 BD1  LP0     -1.358200        0.0000           
    2261 A    7575 TIP4 O1   OW0      0.000000       15.9990           
    2262 A    7575 TIP4 H1   HW0      0.679100        1.0080           
    2263 A    7575 TIP4 H2   HW0      0.679100        1.0080           
    2264 A    7575 TIP4 BD1  LP0     -1.358200        0.0000           
    2265 A    7576 TIP4 O1   OW0      0.000000       15.9990           
    2266 A    7576 TIP4 H1   HW0      0.679100        1.0080           
    2267 A    7576 TIP4 H2   HW0      0.679100        1.0080           
    2268 A    7576 TIP4 BD1  LP0     -1.358200        0.0000           
    2269 A    7577 TIP4 O1   OW0      0.000000       15.9990           
    2270 A    7577 TIP4 H1   HW0      0.679100        1.0080           
    2271 A    7577 TIP4 H2   HW0      0.679100        1.0080           
    2272 A    7577 TIP4 BD1  LP0     -1.358200        0.0000           
    2273 A    7578 TIP4 O1   OW0      0.000000       15.9990           
    2274 A    7578 TIP4 H1   HW0      0.679100        1.0080           
    2275 A    7578 TIP4 H2   HW0      0.679100        1.0080           
    2276 A    7578 TIP4 BD1  LP0     -1.358200        0.0000           
    2277 A    7579 TIP4 O1   OW0      0.000000       15.9990           
    2278 A    7579 TIP4 H1   HW0      0.679100        1.0080           
    2279 A    7579 TIP4 H2   HW0      0.679100        1.0080           
    2280 A    7579 TIP4 BD1  LP0     -1.358200        0.0000           
    2281 A    7580 TIP4 O1   OW0      0.000000       15.9990           
    2282 A    7580 TIP4 H1   HW0      0.679100        1.0080           
    2283 A    7580 TIP4 H2   HW0      0.679100        1.0080           
    2284 A    7580 TIP4 BD1  LP0     -1.358200        0.0000           
    2285 A    7581 TIP4 O1   OW0      0.000000       15.9990           
    2286 A    7581 TIP4 H1   HW0      0.679100        1.0080           
    2287 A    7581 TIP4 H2   HW0      0.679100        1.0080           
    2288 A    7581 TIP4 BD1  LP0     -1.358200        0.0000           
    2289 A    7582 TIP4 O1   OW0      0.000000       15.9990           
    2290 A    7582 TIP4 H1   HW0      0.679100        1.0080           
    2291 A    7582 TIP4 H2   HW0      0.679100        1.0080           
    2292 A    7582 TIP4 BD1  LP0     -1.358200        0.0000           
    2293 A    7583 TIP4 O1   OW0      0.000000       15.9990           
    2294 A    7583 TIP4 H1   HW0      0.679100        1.0080           
    2295 A    7583 TIP4 H2   HW0      0.679100        1.0080           
    2296 A    7583 TIP4 BD1  LP0     -1.358200        0.0000           
    2297 A    7584 TIP4 O1   OW0      0.000000       15.9990           
    2298 A    7584 TIP4 H1   HW0      0.679100        1.0080           
    2299 A    7584 TIP4 H2   HW0      0.679100        1.0080           
    2300 A    7584 TIP4 BD1  LP0     -1.358200        0.0000           
    2301 A    7585 TIP4 O1   OW0      0.000000       15.9990           
    2302 A    7585 TIP4 H1   HW0      0.679100        1.0080           
    2303 A    7585 TIP4 H2   HW0      0.679100        1.0080           
    2304 A    7585 TIP4 BD1  LP0     -1.358200        0.0000           
    2305 A    7586 TIP4 O1   OW0      0.000000       15.9990           
    2306 A    7586 TIP4 H1   HW0      0.679100        1.0080           
    2307 A    7586 TIP4 H2   HW0      0.679100        1.0080           
    2308 A    7586 TIP4 BD1  LP0     -1.358200        0.0000           
    2309 A    7587 TIP4 O1   OW0      0.000000       15.9990           
    2310 A    7587 TIP4 H1   HW0      0.679100        1.0080           
    2311 A    7587 TIP4 H2   HW0      0.679100        1.0080           
    2312 A    7587 TIP4 BD1  LP0     -1.358200        0.0000           
    2313 A    7588 TIP4 O1   OW0      0.000000       15.9990           
    2314 A    7588 TIP4 H1   HW0      0.679100        1.0080           
    2315 A    7588 TIP4 H2   HW0      0.679100        1.0080           
    2316 A    7588 TIP4 BD1  LP0     -1.358200        0.0000           
    2317 A    7589 TIP4 O1   OW0      0.000000       15.9990           
    2318 A    7589 TIP4 H1   HW0      0.679100        1.0080           
    2319 A    7589 TIP4 H2   HW0      0.679100        1.0080           
    2320 A    7589 TIP4 BD1  LP0     -1.358200        0.0000           
    2321 A    7590 TIP4 O1   OW0      0.000000       15.9990           
    2322 A    7590 TIP4 H1   HW0      0.679100        1.0080           
    2323 A    7590 TIP4 H2   HW0      0.679100        1.0080           
    2324 A    7590 TIP4 BD1  LP0     -1.358200        0.0000           
    2325 A    7591 TIP4 O1   OW0      0.000000       15.9990           
    2326 A    7591 TIP4 H1   HW0      0.679100        1.0080           
    2327 A    7591 TIP4 H2   HW0      0.679100        1.0080           
    2328 A    7591 TIP4 BD1  LP0     -1.358200        0.0000           
    2329 A    7592 TIP4 O1   OW0      0.000000       15.9990           
    2330 A    7592 TIP4 H1   HW0      0.679100        1.0080           
    2331 A    7592 TIP4 H2   HW0      0.679100        1.0080           
    2332 A    7592 TIP4 BD1  LP0     -1.358200        0.0000           
    2333 A    7593 TIP4 O1   OW0      0.000000       15.9990           
    2334 A    7593 TIP4 H1   HW0      0.679100        1.0080           
    2335 A    7593 TIP4 H2   HW0      0.679100        1.0080           
    2336 A    7593 TIP4 BD1  LP0     -1.358200        0.0000           
    2337 A    7594 TIP4 O1   OW0      0.000000       15.9990           
    2338 A    7594 TIP4 H1   HW0      0.679100        1.0080           
    2339 A    7594 TIP4 H2   HW0      0.679100        1.0080           
    2340 A    7594 TIP4 BD1  LP0     -1.358200        0.0000           
    2341 A    7595 TIP4 O1   OW0      0.000000       15.9990           
    2342 A    7595 TIP4 H1   HW0      0.679100        1.0080           
    2343 A    7595 TIP4 H2   HW0      0.679100        1.0080           
    2344 A    7595 TIP4 BD1  LP0     -1.358200        0.0000           
    2345 A    7596 TIP4 O1   OW0      0.000000       15.9990           
    2346 A    7596 TIP4 H1   HW0      0.679100        1.0080           
    2347 A    7596 TIP4 H2   HW0      0.679100        1.0080           
    2348 A    7596 TIP4 BD1  LP0     -1.358200        0.0000           
    2349 A    7597 TIP4 O1   OW0      0.000000       15.9990           
    2350 A    7597 TIP4 H1   HW0      0.679100        1.0080           
    2351 A    7597 TIP4 H2   HW0      0.679100        1.0080           
    2352 A    7597 TIP4 BD1  LP0     -1.358200        0.0000           
    2353 A    7598 TIP4 O1   OW0      0.000000       15.9990           
    2354 A    7598 TIP4 H1   HW0      0.679100        1.0080           
    2355 A    7598 TIP4 H2   HW0      0.679100        1.0080           
    2356 A    7598 TIP4 BD1  LP0     -1.358200        0.0000           
    2357 A    7599 TIP4 O1   OW0      0.000000       15.9990           
    2358 A    7599 TIP4 H1   HW0      0.679100        1.0080           
    2359 A    7599 TIP4 H2   HW0      0.679100        1.0080           
    2360 A    7599 TIP4 BD1  LP0     -1.358200        0.0000           
    2361 A    7600 TIP4 O1   OW0      0.000000       15.9990           
    2362 A    7600 TIP4 H1   HW0      0.679100        1.0080           
    2363 A    7600 TIP4 H2   HW0      0.679100        1.0080           
    2364 A    7600 TIP4 BD1  LP0     -1.358200        0.0000           
    2365 A    7601 TIP4 O1   OW0      0.000000       15.9990           
    2366 A    7601 TIP4 H1   HW0      0.679100        1.0080           
    2367 A    7601 TIP4 H2   HW0      0.679100        1.0080           
    2368 A    7601 TIP4 BD1  LP0     -1.358200        0.0000           
    2369 A    7602 TIP4 O1   OW0      0.000000       15.9990           
    2370 A    7602 TIP4 H1   HW0      0.679100        1.0080           
    2371 A    7602 TIP4 H2   HW0      0.679100        1.0080           
    2372 A    7602 TIP4 BD1  LP0     -1.358200        0.0000           
    2373 A    7603 TIP4 O1   OW0      0.000000       15.9990           
    2374 A    7603 TIP4 H1   HW0      0.679100        1.0080           
    2375 A    7603 TIP4 H2   HW0      0.679100        1.0080           
    2376 A    7603 TIP4 BD1  LP0     -1.358200        0.0000           
    2377 A    7604 TIP4 O1   OW0      0.000000       15.9990           
    2378 A    7604 TIP4 H1   HW0      0.679100        1.0080           
    2379 A    7604 TIP4 H2   HW0      0.679100        1.0080           
    2380 A    7604 TIP4 BD1  LP0     -1.358200        0.0000           
    2381 A    7605 TIP4 O1   OW0      0.000000       15.9990           
    2382 A    7605 TIP4 H1   HW0      0.679100        1.0080           
    2383 A    7605 TIP4 H2   HW0      0.679100        1.0080           
    2384 A    7605 TIP4 BD1  LP0     -1.358200        0.0000           
    2385 A    7606 TIP4 O1   OW0      0.000000       15.9990           
    2386 A    7606 TIP4 H1   HW0      0.679100        1.0080           
    2387 A    7606 TIP4 H2   HW0      0.679100        1.0080           
    2388 A    7606 TIP4 BD1  LP0     -1.358200        0.0000           
    2389 A    7607 TIP4 O1   OW0      0.000000       15.9990           
    2390 A    7607 TIP4 H1   HW0      0.679100        1.0080           
    2391 A    7607 TIP4 H2   HW0      0.679100        1.0080           
    2392 A    7607 TIP4 BD1  LP0     -1.358200        0.0000           
    2393 A    7608 TIP4 O1   OW0      0.000000       15.9990           
    2394 A    7608 TIP4 H1   HW0      0.679100        1.0080           
    2395 A    7608 TIP4 H2   HW0      0.679100        1.0080           
    2396 A    7608 TIP4 BD1  LP0     -1.358200        0.0000           
    2397 A    7609 TIP4 O1   OW0      0.000000       15.9990           
    2398 A    7609 TIP4 H1   HW0      0.679100        1.0080           
    2399 A    7609 TIP4 H2   HW0      0.679100        1.0080           
    2400 A    7609 TIP4 BD1  LP0     -1.358200        0.0000           
    2401 A    7610 TIP4 O1   OW0      0.000000       15.9990           
    2402 A    7610 TIP4 H1   HW0      0.679100        1.0080           
    2403 A    7610 TIP4 H2   HW0      0.679100        1.0080           
    2404 A    7610 TIP4 BD1  LP0     -1.358200        0.0000           
    2405 A    7611 TIP4 O1   OW0      0.000000       15.9990           
    2406 A    7611 TIP4 H1   HW0      0.679100        1.0080           
    2407 A    7611 TIP4 H2   HW0      0.679100        1.0080           
    2408 A    7611 TIP4 BD1  LP0     -1.358200        0.0000           
    2409 A    7612 TIP4 O1   OW0      0.000000       15.9990           
    2410 A    7612 TIP4 H1   HW0      0.679100        1.0080           
    2411 A    7612 TIP4 H2   HW0      0.679100        1.0080           
    2412 A    7612 TIP4 BD1  LP0     -1.358200        0.0000           
    2413 A    7613 TIP4 O1   OW0      0.000000       15.9990           
    2414 A    7613 TIP4 H1   HW0      0.679100        1.0080           
    2415 A    7613 TIP4 H2   HW0      0.679100        1.0080           
    2416 A    7613 TIP4 BD1  LP0     -1.358200        0.0000           
    2417 A    7614 TIP4 O1   OW0      0.000000       15.9990           
    2418 A    7614 TIP4 H1   HW0      0.679100        1.0080           
    2419 A    7614 TIP4 H2   HW0      0.679100        1.0080           
    2420 A    7614 TIP4 BD1  LP0     -1.358200        0.0000           
    2421 A    7615 TIP4 O1   OW0      0.000000       15.9990           
    2422 A    7615 TIP4 H1   HW0      0.679100        1.0080           
    2423 A    7615 TIP4 H2   HW0      0.679100        1.0080           
    2424 A    7615 TIP4 BD1  LP0     -1.358200        0.0000           
    2425 A    7616 TIP4 O1   OW0      0.000000       15.9990           
    2426 A    7616 TIP4 H1   HW0      0.679100        1.0080           
    2427 A    7616 TIP4 H2   HW0      0.679100        1.0080           
    2428 A    7616 TIP4 BD1  LP0     -1.358200        0.0000           
    2429 A    7617 TIP4 O1   OW0      0.000000       15.9990           
    2430 A    7617 TIP4 H1   HW0      0.679100        1.0080           
    2431 A    7617 TIP4 H2   HW0      0.679100        1.0080           
    2432 A    7617 TIP4 BD1  LP0     -1.358200        0.0000           
    2433 A    7618 TIP4 O1   OW0      0.000000       15.9990           
    2434 A    7618 TIP4 H1   HW0      0.679100        1.0080           
    2435 A    7618 TIP4 H2   HW0      0.679100        1.0080           
    2436 A    7618 TIP4 BD1  LP0     -1.358200        0.0000           
    2437 A    7619 TIP4 O1   OW0      0.000000       15.9990           
    2438 A    7619 TIP4 H1   HW0      0.679100        1.0080           
    2439 A    7619 TIP4 H2   HW0      0.679100        1.0080           
    2440 A    7619 TIP4 BD1  LP0     -1.358200        0.0000           
    2441 A    7620 TIP4 O1   OW0      0.000000       15.9990           
    2442 A    7620 TIP4 H1   HW0      0.679100        1.0080           
    2443 A    7620 TIP4 H2   HW0      0.679100        1.0080           
    2444 A    7620 TIP4 BD1  LP0     -1.358200        0.0000           
    2445 A    7621 TIP4 O1   OW0      0.000000       15.9990           
    2446 A    7621 TIP4 H1   HW0      0.679100        1.0080           
    2447 A    7621 TIP4 H2   HW0      0.679100        1.0080           
    2448 A    7621 TIP4 BD1  LP0     -1.358200        0.0000           
    2449 A    7622 TIP4 O1   OW0      0.000000       15.9990           
    2450 A    7622 TIP4 H1   HW0      0.679100        1.0080           
    2451 A    7622 TIP4 H2   HW0      0.679100        1.0080           
    2452 A    7622 TIP4 BD1  LP0     -1.358200        0.0000           
    2453 A    7623 TIP4 O1   OW0      0.000000       15.9990           
    2454 A    7623 TIP4 H1   HW0      0.679100        1.0080           
    2455 A    7623 TIP4 H2   HW0      0.679100        1.0080           
    2456 A    7623 TIP4 BD1  LP0     -1.358200        0.0000           
    2457 A    7624 TIP4 O1   OW0      0.000000       15.9990           
    2458 A    7624 TIP4 H1   HW0      0.679100        1.0080           
    2459 A    7624 TIP4 H2   HW0      0.679100        1.0080           
    2460 A    7624 TIP4 BD1  LP0     -1.358200        0.0000           
    2461 A    7625 TIP4 O1   OW0      0.000000       15.9990           
    2462 A    7625 TIP4 H1   HW0      0.679100        1.0080           
    2463 A    7625 TIP4 H2   HW0      0.679100        1.0080           
    2464 A    7625 TIP4 BD1  LP0     -1.358200        0.0000           
    2465 A    7626 TIP4 O1   OW0      0.000000       15.9990           
    2466 A    7626 TIP4 H1   HW0      0.679100        1.0080           
    2467 A    7626 TIP4 H2   HW0      0.679100        1.0080           
    2468 A    7626 TIP4 BD1  LP0     -1.358200        0.0000           
    2469 A    7627 TIP4 O1   OW0      0.000000       15.9990           
    2470 A    7627 TIP4 H1   HW0      0.679100        1.0080           
    2471 A    7627 TIP4 H2   HW0      0.679100        1.0080           
    2472 A    7627 TIP4 BD1  LP0     -1.358200        0.0000           
    2473 A    7628 TIP4 O1   OW0      0.000000       15.9990           
    2474 A    7628 TIP4 H1   HW0      0.679100        1.0080           
    2475 A    7628 TIP4 H2   HW0      0.679100        1.0080           
    2476 A    7628 TIP4 BD1  LP0     -1.358200        0.0000           
    2477 A    7629 TIP4 O1   OW0      0.000000       15.9990           
    2478 A    7629 TIP4 H1   HW0      0.679100        1.0080           
    2479 A    7629 TIP4 H2   HW0      0.679100        1.0080           
    2480 A    7629 TIP4 BD1  LP0     -1.358200        0.0000           
    2481 A    7630 TIP4 O1   OW0      0.000000       15.9990           
    2482 A    7630 TIP4 H1   HW0      0.679100        1.0080           
    2483 A    7630 TIP4 H2   HW0      0.679100        1.0080           
    2484 A    7630 TIP4 BD1  LP0     -1.358200        0.0000           
    2485 A    7631 TIP4 O1   OW0      0.000000       15.9990           
    2486 A    7631 TIP4 H1   HW0      0.679100        1.0080           
    2487 A    7631 TIP4 H2   HW0      0.679100        1.0080           
    2488 A    7631 TIP4 BD1  LP0     -1.358200        0.0000           
    2489 A    7632 TIP4 O1   OW0      0.000000       15.9990           
    2490 A    7632 TIP4 H1   HW0      0.679100        1.0080           
    2491 A    7632 TIP4 H2   HW0      0.679100        1.0080           
    2492 A    7632 TIP4 BD1  LP0     -1.358200        0.0000           
    2493 A    7633 TIP4 O1   OW0      0.000000       15.9990           
    2494 A    7633 TIP4 H1   HW0      0.679100        1.0080           
    2495 A    7633 TIP4 H2   HW0      0.679100        1.0080           
    2496 A    7633 TIP4 BD1  LP0     -1.358200        0.0000           
    2497 A    7634 TIP4 O1   OW0      0.000000       15.9990           
    2498 A    7634 TIP4 H1   HW0      0.679100        1.0080           
    2499 A    7634 TIP4 H2   HW0      0.679100        1.0080           
    2500 A    7634 TIP4 BD1  LP0     -1.358200        0.0000           
    2501 A    7635 TIP4 O1   OW0      0.000000       15.9990           
    2502 A    7635 TIP4 H1   HW0      0.679100        1.0080           
    2503 A    7635 TIP4 H2   HW0      0.679100        1.0080           
    2504 A    7635 TIP4 BD1  LP0     -1.358200        0.0000           
    2505 A    7636 TIP4 O1   OW0      0.000000       15.9990           
    2506 A    7636 TIP4 H1   HW0      0.679100        1.0080           
    2507 A    7636 TIP4 H2   HW0      0.679100        1.0080           
    2508 A    7636 TIP4 BD1  LP0     -1.358200        0.0000           
    2509 A    7637 TIP4 O1   OW0      0.000000       15.9990           
    2510 A    7637 TIP4 H1   HW0      0.679100        1.0080           
    2511 A    7637 TIP4 H2   HW0      0.679100        1.0080           
    2512 A    7637 TIP4 BD1  LP0     -1.358200        0.0000           
    2513 A    7638 TIP4 O1   OW0      0.000000       15.9990           
    2514 A    7638 TIP4 H1   HW0      0.679100        1.0080           
    2515 A    7638 TIP4 H2   HW0      0.679100        1.0080           
    2516 A    7638 TIP4 BD1  LP0     -1.358200        0.0000           
    2517 A    7639 TIP4 O1   OW0      0.000000       15.9990           
    2518 A    7639 TIP4 H1   HW0      0.679100        1.0080           
    2519 A    7639 TIP4 H2   HW0      0.679100        1.0080           
    2520 A    7639 TIP4 BD1  LP0     -1.358200        0.0000           
    2521 A    7640 TIP4 O1   OW0      0.000000       15.9990           
    2522 A    7640 TIP4 H1   HW0      0.679100        1.0080           
    2523 A    7640 TIP4 H2   HW0      0.679100        1.0080           
    2524 A    7640 TIP4 BD1  LP0     -1.358200        0.0000           
    2525 A    7641 TIP4 O1   OW0      0.000000       15.9990           
    2526 A    7641 TIP4 H1   HW0      0.679100        1.0080           
    2527 A    7641 TIP4 H2   HW0      0.679100        1.0080           
    2528 A    7641 TIP4 BD1  LP0     -1.358200        0.0000           
    2529 A    7642 TIP4 O1   OW0      0.000000       15.9990           
    2530 A    7642 TIP4 H1   HW0      0.679100        1.0080           
    2531 A    7642 TIP4 H2   HW0      0.679100        1.0080           
    2532 A    7642 TIP4 BD1  LP0     -1.358200        0.0000           
    2533 A    7643 TIP4 O1   OW0      0.000000       15.9990           
    2534 A    7643 TIP4 H1   HW0      0.679100        1.0080           
    2535 A    7643 TIP4 H2   HW0      0.679100        1.0080           
    2536 A    7643 TIP4 BD1  LP0     -1.358200        0.0000           
    2537 A    7644 TIP4 O1   OW0      0.000000       15.9990           
    2538 A    7644 TIP4 H1   HW0      0.679100        1.0080           
    2539 A    7644 TIP4 H2   HW0      0.679100        1.0080           
    2540 A    7644 TIP4 BD1  LP0     -1.358200        0.0000           
    2541 A    7645 TIP4 O1   OW0      0.000000       15.9990           
    2542 A    7645 TIP4 H1   HW0      0.679100        1.0080           
    2543 A    7645 TIP4 H2   HW0      0.679100        1.0080           
    2544 A    7645 TIP4 BD1  LP0     -1.358200        0.0000           
    2545 A    7646 TIP4 O1   OW0      0.000000       15.9990           
    2546 A    7646 TIP4 H1   HW0      0.679100        1.0080           
    2547 A    7646 TIP4 H2   HW0      0.679100        1.0080           
    2548 A    7646 TIP4 BD1  LP0     -1.358200        0.0000           
    2549 A    7647 TIP4 O1   OW0      0.000000       15.9990           
    2550 A    7647 TIP4 H1   HW0      0.679100        1.0080           
    2551 A    7647 TIP4 H2   HW0      0.679100        1.0080           
    2552 A    7647 TIP4 BD1  LP0     -1.358200        0.0000           
    2553 A    7648 TIP4 O1   OW0      0.000000       15.9990           
    2554 A    7648 TIP4 H1   HW0      0.679100        1.0080           
    2555 A    7648 TIP4 H2   HW0      0.679100        1.0080           
    2556 A    7648 TIP4 BD1  LP0     -1.358200        0.0000           
    2557 A    7649 TIP4 O1   OW0      0.000000       15.9990           
    2558 A    7649 TIP4 H1   HW0      0.679100        1.0080           
    2559 A    7649 TIP4 H2   HW0      0.679100        1.0080           
    2560 A    7649 TIP4 BD1  LP0     -1.358200        0.0000           
    2561 A    7650 TIP4 O1   OW0      0.000000       15.9990           
    2562 A    7650 TIP4 H1   HW0      0.679100        1.0080           
    2563 A    7650 TIP4 H2   HW0      0.679100        1.0080           
    2564 A    7650 TIP4 BD1  LP0     -1.358200        0.0000           
    2565 A    7651 TIP4 O1   OW0      0.000000       15.9990           
    2566 A    7651 TIP4 H1   HW0      0.679100        1.0080           
    2567 A    7651 TIP4 H2   HW0      0.679100        1.0080           
    2568 A    7651 TIP4 BD1  LP0     -1.358200        0.0000           
    2569 A    7652 TIP4 O1   OW0      0.000000       15.9990           
    2570 A    7652 TIP4 H1   HW0      0.679100        1.0080           
    2571 A    7652 TIP4 H2   HW0      0.679100        1.0080           
    2572 A    7652 TIP4 BD1  LP0     -1.358200        0.0000           
    2573 A    7653 TIP4 O1   OW0      0.000000       15.9990           
    2574 A    7653 TIP4 H1   HW0      0.679100        1.0080           
    2575 A    7653 TIP4 H2   HW0      0.679100        1.0080           
    2576 A    7653 TIP4 BD1  LP0     -1.358200        0.0000           
    2577 A    7654 TIP4 O1   OW0      0.000000       15.9990           
    2578 A    7654 TIP4 H1   HW0      0.679100        1.0080           
    2579 A    7654 TIP4 H2   HW0      0.679100        1.0080           
    2580 A    7654 TIP4 BD1  LP0     -1.358200        0.0000           
    2581 A    7655 TIP4 O1   OW0      0.000000       15.9990           
    2582 A    7655 TIP4 H1   HW0      0.679100        1.0080           
    2583 A    7655 TIP4 H2   HW0      0.679100        1.0080           
    2584 A    7655 TIP4 BD1  LP0     -1.358200        0.0000           
    2585 A    7656 TIP4 O1   OW0      0.000000       15.9990           
    2586 A    7656 TIP4 H1   HW0      0.679100        1.0080           
    2587 A    7656 TIP4 H2   HW0      0.679100        1.0080           
    2588 A    7656 TIP4 BD1  LP0     -1.358200        0.0000           
    2589 A    7657 TIP4 O1   OW0      0.000000       15.9990           
    2590 A    7657 TIP4 H1   HW0      0.679100        1.0080           
    2591 A    7657 TIP4 H2   HW0      0.679100        1.0080           
    2592 A    7657 TIP4 BD1  LP0     -1.358200        0.0000           
    2593 A    7658 TIP4 O1   OW0      0.000000       15.9990           
    2594 A    7658 TIP4 H1   HW0      0.679100        1.0080           
    2595 A    7658 TIP4 H2   HW0      0.679100        1.0080           
    2596 A    7658 TIP4 BD1  LP0     -1.358200        0.0000           
    2597 A    7659 TIP4 O1   OW0      0.000000       15.9990           
    2598 A    7659 TIP4 H1   HW0      0.679100        1.0080           
    2599 A    7659 TIP4 H2   HW0      0.679100        1.0080           
    2600 A    7659 TIP4 BD1  LP0     -1.358200        0.0000           
    2601 A    7660 TIP4 O1   OW0      0.000000       15.9990           
    2602 A    7660 TIP4 H1   HW0      0.679100        1.0080           
    2603 A    7660 TIP4 H2   HW0      0.679100        1.0080           
    2604 A    7660 TIP4 BD1  LP0     -1.358200        0.0000           
    2605 A    7661 TIP4 O1   OW0      0.000000       15.9990           
    2606 A    7661 TIP4 H1   HW0      0.679100        1.0080           
    2607 A    7661 TIP4 H2   HW0      0.679100        1.0080           
    2608 A    7661 TIP4 BD1  LP0     -1.358200        0.0000           
    2609 A    7662 TIP4 O1   OW0      0.000000       15.9990           
    2610 A    7662 TIP4 H1   HW0      0.679100        1.0080           
    2611 A    7662 TIP4 H2   HW0      0.679100        1.0080           
    2612 A    7662 TIP4 BD1  LP0     -1.358200        0.0000           
    2613 A    7663 TIP4 O1   OW0      0.000000       15.9990           
    2614 A    7663 TIP4 H1   HW0      0.679100        1.0080           
    2615 A    7663 TIP4 H2   HW0      0.679100        1.0080           
    2616 A    7663 TIP4 BD1  LP0     -1.358200        0.0000           
    2617 A    7664 TIP4 O1   OW0      0.000000       15.9990           
    2618 A    7664 TIP4 H1   HW0      0.679100        1.0080           
    2619 A    7664 TIP4 H2   HW0      0.679100        1.0080           
    2620 A    7664 TIP4 BD1  LP0     -1.358200        0.0000           
    2621 A    7665 TIP4 O1   OW0      0.000000       15.9990           
    2622 A    7665 TIP4 H1   HW0      0.679100        1.0080           
    2623 A    7665 TIP4 H2   HW0      0.679100        1.0080           
    2624 A    7665 TIP4 BD1  LP0     -1.358200        0.0000           
    2625 A    7666 TIP4 O1   OW0      0.000000       15.9990           
    2626 A    7666 TIP4 H1   HW0      0.679100        1.0080           
    2627 A    7666 TIP4 H2   HW0      0.679100        1.0080           
    2628 A    7666 TIP4 BD1  LP0     -1.358200        0.0000           
    2629 A    7667 TIP4 O1   OW0      0.000000       15.9990           
    2630 A    7667 TIP4 H1   HW0      0.679100        1.0080           
    2631 A    7667 TIP4 H2   HW0      0.679100        1.0080           
    2632 A    7667 TIP4 BD1  LP0     -1.358200        0.0000           
    2633 A    7668 TIP4 O1   OW0      0.000000       15.9990           
    2634 A    7668 TIP4 H1   HW0      0.679100        1.0080           
    2635 A    7668 TIP4 H2   HW0      0.679100        1.0080           
    2636 A    7668 TIP4 BD1  LP0     -1.358200        0.0000           
    2637 A    7669 TIP4 O1   OW0      0.000000       15.9990           
    2638 A    7669 TIP4 H1   HW0      0.679100        1.0080           
    2639 A    7669 TIP4 H2   HW0      0.679100        1.0080           
    2640 A    7669 TIP4 BD1  LP0     -1.358200        0.0000           
    2641 A    7670 TIP4 O1   OW0      0.000000       15.9990           
    2642 A    7670 TIP4 H1   HW0      0.679100        1.0080           
    2643 A    7670 TIP4 H2   HW0      0.679100        1.0080           
    2644 A    7670 TIP4 BD1  LP0     -1.358200        0.0000           
    2645 A    7671 TIP4 O1   OW0      0.000000       15.9990           
    2646 A    7671 TIP4 H1   HW0      0.679100        1.0080           
    2647 A    7671 TIP4 H2   HW0      0.679100        1.0080           
    2648 A    7671 TIP4 BD1  LP0     -1.358200        0.0000           
    2649 A    7672 TIP4 O1   OW0      0.000000       15.9990           
    2650 A    7672 TIP4 H1   HW0      0.679100        1.0080           
    2651 A    7672 TIP4 H2   HW0      0.679100        1.0080           
    2652 A    7672 TIP4 BD1  LP0     -1.358200        0.0000           
    2653 A    7673 TIP4 O1   OW0      0.000000       15.9990           
    2654 A    7673 TIP4 H1   HW0      0.679100        1.0080           
    2655 A    7673 TIP4 H2   HW0      0.679100        1.0080           
    2656 A    7673 TIP4 BD1  LP0     -1.358200        0.0000           
    2657 A    7674 TIP4 O1   OW0      0.000000       15.9990           
    2658 A    7674 TIP4 H1   HW0      0.679100        1.0080           
    2659 A    7674 TIP4 H2   HW0      0.679100        1.0080           
    2660 A    7674 TIP4 BD1  LP0     -1.358200        0.0000           
    2661 A    7675 TIP4 O1   OW0      0.000000       15.9990           
    2662 A    7675 TIP4 H1   HW0      0.679100        1.0080           
    2663 A    7675 TIP4 H2   HW0      0.679100        1.0080           
    2664 A    7675 TIP4 BD1  LP0     -1.358200        0.0000           
    2665 A    7676 TIP4 O1   OW0      0.000000       15.9990           
    2666 A    7676 TIP4 H1   HW0      0.679100        1.0080           
    2667 A    7676 TIP4 H2   HW0      0.679100        1.0080           
    2668 A    7676 TIP4 BD1  LP0     -1.358200        0.0000           
    2669 A    7677 TIP4 O1   OW0      0.000000       15.9990           
    2670 A    7677 TIP4 H1   HW0      0.679100        1.0080           
    2671 A    7677 TIP4 H2   HW0      0.679100        1.0080           
    2672 A    7677 TIP4 BD1  LP0     -1.358200        0.0000           
    2673 A    7678 TIP4 O1   OW0      0.000000       15.9990           
    2674 A    7678 TIP4 H1   HW0      0.679100        1.0080           
    2675 A    7678 TIP4 H2   HW0      0.679100        1.0080           
    2676 A    7678 TIP4 BD1  LP0     -1.358200        0.0000           
    2677 A    7679 TIP4 O1   OW0      0.000000       15.9990           
    2678 A    7679 TIP4 H1   HW0      0.679100        1.0080           
    2679 A    7679 TIP4 H2   HW0      0.679100        1.0080           
    2680 A    7679 TIP4 BD1  LP0     -1.358200        0.0000           
    2681 A    7680 TIP4 O1   OW0      0.000000       15.9990           
    2682 A    7680 TIP4 H1   HW0      0.679100        1.0080           
    2683 A    7680 TIP4 H2   HW0      0.679100        1.0080           
    2684 A    7680 TIP4 BD1  LP0     -1.358200        0.0000           
    2685 A    7681 TIP4 O1   OW0      0.000000       15.9990           
    2686 A    7681 TIP4 H1   HW0      0.679100        1.0080           
    2687 A    7681 TIP4 H2   HW0      0.679100        1.0080           
    2688 A    7681 TIP4 BD1  LP0     -1.358200        0.0000           
    2689 A    7682 TIP4 O1   OW0      0.000000       15.9990           
    2690 A    7682 TIP4 H1   HW0      0.679100        1.0080           
    2691 A    7682 TIP4 H2   HW0      0.679100        1.0080           
    2692 A    7682 TIP4 BD1  LP0     -1.358200        0.0000           
    2693 A    7683 TIP4 O1   OW0      0.000000       15.9990           
    2694 A    7683 TIP4 H1   HW0      0.679100        1.0080           
    2695 A    7683 TIP4 H2   HW0      0.679100        1.0080           
    2696 A    7683 TIP4 BD1  LP0     -1.358200        0.0000           
    2697 A    7684 TIP4 O1   OW0      0.000000       15.9990           
    2698 A    7684 TIP4 H1   HW0      0.679100        1.0080           
    2699 A    7684 TIP4 H2   HW0      0.679100        1.0080           
    2700 A    7684 TIP4 BD1  LP0     -1.358200        0.0000           
    2701 A    7685 TIP4 O1   OW0      0.000000       15.9990           
    2702 A    7685 TIP4 H1   HW0      0.679100        1.0080           
    2703 A    7685 TIP4 H2   HW0      0.679100        1.0080           
    2704 A    7685 TIP4 BD1  LP0     -1.358200        0.0000           
    2705 A    7686 TIP4 O1   OW0      0.000000       15.9990           
    2706 A    7686 TIP4 H1   HW0      0.679100        1.0080           
    2707 A    7686 TIP4 H2   HW0      0.679100        1.0080           
    2708 A    7686 TIP4 BD1  LP0     -1.358200        0.0000           
    2709 A    7687 TIP4 O1   OW0      0.000000       15.9990           
    2710 A    7687 TIP4 H1   HW0      0.679100        1.0080           
    2711 A    7687 TIP4 H2   HW0      0.679100        1.0080           
    2712 A    7687 TIP4 BD1  LP0     -1.358200        0.0000           
    2713 A    7688 TIP4 O1   OW0      0.000000       15.9990           
    2714 A    7688 TIP4 H1   HW0      0.679100        1.0080           
    2715 A    7688 TIP4 H2   HW0      0.679100        1.0080           
    2716 A    7688 TIP4 BD1  LP0     -1.358200        0.0000           
    2717 A    7689 TIP4 O1   OW0      0.000000       15.9990           
    2718 A    7689 TIP4 H1   HW0      0.679100        1.0080           
    2719 A    7689 TIP4 H2   HW0      0.679100        1.0080           
    2720 A    7689 TIP4 BD1  LP0     -1.358200        0.0000           
    2721 A    7690 TIP4 O1   OW0      0.000000       15.9990           
    2722 A    7690 TIP4 H1   HW0      0.679100        1.0080           
    2723 A    7690 TIP4 H2   HW0      0.679100        1.0080           
    2724 A    7690 TIP4 BD1  LP0     -1.358200        0.0000           
    2725 A    7691 TIP4 O1   OW0      0.000000       15.9990           
    2726 A    7691 TIP4 H1   HW0      0.679100        1.0080           
    2727 A    7691 TIP4 H2   HW0      0.679100        1.0080           
    2728 A    7691 TIP4 BD1  LP0     -1.358200        0.0000           
    2729 A    7692 TIP4 O1   OW0      0.000000       15.9990           
    2730 A    7692 TIP4 H1   HW0      0.679100        1.0080           
    2731 A    7692 TIP4 H2   HW0      0.679100        1.0080           
    2732 A    7692 TIP4 BD1  LP0     -1.358200        0.0000           
    2733 A    7693 TIP4 O1   OW0      0.000000       15.9990           
    2734 A    7693 TIP4 H1   HW0      0.679100        1.0080           
    2735 A    7693 TIP4 H2   HW0      0.679100        1.0080           
    2736 A    7693 TIP4 BD1  LP0     -1.358200        0.0000           
    2737 A    7694 TIP4 O1   OW0      0.000000       15.9990           
    2738 A    7694 TIP4 H1   HW0      0.679100        1.0080           
    2739 A    7694 TIP4 H2   HW0      0.679100        1.0080           
    2740 A    7694 TIP4 BD1  LP0     -1.358200        0.0000           
    2741 A    7695 TIP4 O1   OW0      0.000000       15.9990           
    2742 A    7695 TIP4 H1   HW0      0.679100        1.0080           
    2743 A    7695 TIP4 H2   HW0      0.679100        1.0080           
    2744 A    7695 TIP4 BD1  LP0     -1.358200        0.0000           
    2745 A    7696 TIP4 O1   OW0      0.000000       15.9990           
    2746 A    7696 TIP4 H1   HW0      0.679100        1.0080           
    2747 A    7696 TIP4 H2   HW0      0.679100        1.0080           
    2748 A    7696 TIP4 BD1  LP0     -1.358200        0.0000           
    2749 A    7697 TIP4 O1   OW0      0.000000       15.9990           
    2750 A    7697 TIP4 H1   HW0      0.679100        1.0080           
    2751 A    7697 TIP4 H2   HW0      0.679100        1.0080           
    2752 A    7697 TIP4 BD1  LP0     -1.358200        0.0000           
    2753 A    7698 TIP4 O1   OW0      0.000000       15.9990           
    2754 A    7698 TIP4 H1   HW0      0.679100        1.0080           
    2755 A    7698 TIP4 H2   HW0      0.679100        1.0080           
    2756 A    7698 TIP4 BD1  LP0     -1.358200        0.0000           
    2757 A    7699 TIP4 O1   OW0      0.000000       15.9990           
    2758 A    7699 TIP4 H1   HW0      0.679100        1.0080           
    2759 A    7699 TIP4 H2   HW0      0.679100        1.0080           
    2760 A    7699 TIP4 BD1  LP0     -1.358200        0.0000           
    2761 A    7700 TIP4 O1   OW0      0.000000       15.9990           
    2762 A    7700 TIP4 H1   HW0      0.679100        1.0080           
    2763 A    7700 TIP4 H2   HW0      0.679100        1.0080           
    2764 A    7700 TIP4 BD1  LP0     -1.358200        0.0000           
    2765 A    7701 TIP4 O1   OW0      0.000000       15.9990           
    2766 A    7701 TIP4 H1   HW0      0.679100        1.0080           
    2767 A    7701 TIP4 H2   HW0      0.679100        1.0080           
    2768 A    7701 TIP4 BD1  LP0     -1.358200        0.0000           
    2769 A    7702 TIP4 O1   OW0      0.000000       15.9990           
    2770 A    7702 TIP4 H1   HW0      0.679100        1.0080           
    2771 A    7702 TIP4 H2   HW0      0.679100        1.0080           
    2772 A    7702 TIP4 BD1  LP0     -1.358200        0.0000           
    2773 A    7703 TIP4 O1   OW0      0.000000       15.9990           
    2774 A    7703 TIP4 H1   HW0      0.679100        1.0080           
    2775 A    7703 TIP4 H2   HW0      0.679100        1.0080           
    2776 A    7703 TIP4 BD1  LP0     -1.358200        0.0000           
    2777 A    7704 TIP4 O1   OW0      0.000000       15.9990           
    2778 A    7704 TIP4 H1   HW0      0.679100        1.0080           
    2779 A    7704 TIP4 H2   HW0      0.679100        1.0080           
    2780 A    7704 TIP4 BD1  LP0     -1.358200        0.0000           
    2781 A    7705 TIP4 O1   OW0      0.000000       15.9990           
    2782 A    7705 TIP4 H1   HW0      0.679100        1.0080           
    2783 A    7705 TIP4 H2   HW0      0.679100        1.0080           
    2784 A    7705 TIP4 BD1  LP0     -1.358200        0.0000           
    2785 A    7706 TIP4 O1   OW0      0.000000       15.9990           
    2786 A    7706 TIP4 H1   HW0      0.679100        1.0080           
    2787 A    7706 TIP4 H2   HW0      0.679100        1.0080           
    2788 A    7706 TIP4 BD1  LP0     -1.358200        0.0000           
    2789 A    7707 TIP4 O1   OW0      0.000000       15.9990           
    2790 A    7707 TIP4 H1   HW0      0.679100        1.0080           
    2791 A    7707 TIP4 H2   HW0      0.679100        1.0080           
    2792 A    7707 TIP4 BD1  LP0     -1.358200        0.0000           
    2793 A    7708 TIP4 O1   OW0      0.000000       15.9990           
    2794 A    7708 TIP4 H1   HW0      0.679100        1.0080           
    2795 A    7708 TIP4 H2   HW0      0.679100        1.0080           
    2796 A    7708 TIP4 BD1  LP0     -1.358200        0.0000           
    2797 A    7709 TIP4 O1   OW0      0.000000       15.9990           
    2798 A    7709 TIP4 H1   HW0      0.679100        1.0080           
    2799 A    7709 TIP4 H2   HW0      0.679100        1.0080           
    2800 A    7709 TIP4 BD1  LP0     -1.358200        0.0000           
    2801 A    7710 TIP4 O1   OW0      0.000000       15.9990           
    2802 A    7710 TIP4 H1   HW0      0.679100        1.0080           
    2803 A    7710 TIP4 H2   HW0      0.679100        1.0080           
    2804 A    7710 TIP4 BD1  LP0     -1.358200        0.0000           
    2805 A    7711 TIP4 O1   OW0      0.000000       15.9990           
    2806 A    7711 TIP4 H1   HW0      0.679100        1.0080           
    2807 A    7711 TIP4 H2   HW0      0.679100        1.0080           
    2808 A    7711 TIP4 BD1  LP0     -1.358200        0.0000           
    2809 A    7712 TIP4 O1   OW0      0.000000       15.9990           
    2810 A    7712 TIP4 H1   HW0      0.679100        1.0080           
    2811 A    7712 TIP4 H2   HW0      0.679100        1.0080           
    2812 A    7712 TIP4 BD1  LP0     -1.358200        0.0000           
    2813 A    7713 TIP4 O1   OW0      0.000000       15.9990           
    2814 A    7713 TIP4 H1   HW0      0.679100        1.0080           
    2815 A    7713 TIP4 H2   HW0      0.679100        1.0080           
    2816 A    7713 TIP4 BD1  LP0     -1.358200        0.0000           
    2817 A    7714 TIP4 O1   OW0      0.000000       15.9990           
    2818 A    7714 TIP4 H1   HW0      0.679100        1.0080           
    2819 A    7714 TIP4 H2   HW0      0.679100        1.0080           
    2820 A    7714 TIP4 BD1  LP0     -1.358200        0.0000           
    2821 A    7715 TIP4 O1   OW0      0.000000       15.9990           
    2822 A    7715 TIP4 H1   HW0      0.679100        1.0080           
    2823 A    7715 TIP4 H2   HW0      0.679100        1.0080           
    2824 A    7715 TIP4 BD1  LP0     -1.358200        0.0000           
    2825 A    7716 TIP4 O1   OW0      0.000000       15.9990           
    2826 A    7716 TIP4 H1   HW0      0.679100        1.0080           
    2827 A    7716 TIP4 H2   HW0      0.679100        1.0080           
    2828 A    7716 TIP4 BD1  LP0     -1.358200        0.0000           
    2829 A    7717 TIP4 O1   OW0      0.000000       15.9990           
    2830 A    7717 TIP4 H1   HW0      0.679100        1.0080           
    2831 A    7717 TIP4 H2   HW0      0.679100        1.0080           
    2832 A    7717 TIP4 BD1  LP0     -1.358200        0.0000           
    2833 A    7718 TIP4 O1   OW0      0.000000       15.9990           
    2834 A    7718 TIP4 H1   HW0      0.679100        1.0080           
    2835 A    7718 TIP4 H2   HW0      0.679100        1.0080           
    2836 A    7718 TIP4 BD1  LP0     -1.358200        0.0000           
    2837 A    7719 TIP4 O1   OW0      0.000000       15.9990           
    2838 A    7719 TIP4 H1   HW0      0.679100        1.0080           
    2839 A    7719 TIP4 H2   HW0      0.679100        1.0080           
    2840 A    7719 TIP4 BD1  LP0     -1.358200        0.0000           
    2841 A    7720 TIP4 O1   OW0      0.000000       15.9990           
    2842 A    7720 TIP4 H1   HW0      0.679100        1.0080           
    2843 A    7720 TIP4 H2   HW0      0.679100        1.0080           
    2844 A    7720 TIP4 BD1  LP0     -1.358200        0.0000           
    2845 A    7721 TIP4 O1   OW0      0.000000       15.9990           
    2846 A    7721 TIP4 H1   HW0      0.679100        1.0080           
    2847 A    7721 TIP4 H2   HW0      0.679100        1.0080           
    2848 A    7721 TIP4 BD1  LP0     -1.358200        0.0000           
    2849 A    7722 TIP4 O1   OW0      0.000000       15.9990           
    2850 A    7722 TIP4 H1   HW0      0.679100        1.0080           
    2851 A    7722 TIP4 H2   HW0      0.679100        1.0080           
    2852 A    7722 TIP4 BD1  LP0     -1.358200        0.0000           
    2853 A    7723 TIP4 O1   OW0      0.000000       15.9990           
    2854 A    7723 TIP4 H1   HW0      0.679100        1.0080           
    2855 A    7723 TIP4 H2   HW0      0.679100        1.0080           
    2856 A    7723 TIP4 BD1  LP0     -1.358200        0.0000           
    2857 A    7724 TIP4 O1   OW0      0.000000       15.9990           
    2858 A    7724 TIP4 H1   HW0      0.679100        1.0080           
    2859 A    7724 TIP4 H2   HW0      0.679100        1.0080           
    2860 A    7724 TIP4 BD1  LP0     -1.358200        0.0000           
    2861 A    7725 TIP4 O1   OW0      0.000000       15.9990           
    2862 A    7725 TIP4 H1   HW0      0.679100        1.0080           
    2863 A    7725 TIP4 H2   HW0      0.679100        1.0080           
    2864 A    7725 TIP4 BD1  LP0     -1.358200        0.0000           
    2865 A    7726 TIP4 O1   OW0      0.000000       15.9990           
    2866 A    7726 TIP4 H1   HW0      0.679100        1.0080           
    2867 A    7726 TIP4 H2   HW0      0.679100        1.0080           
    2868 A    7726 TIP4 BD1  LP0     -1.358200        0.0000           
    2869 A    7727 TIP4 O1   OW0      0.000000       15.9990           
    2870 A    7727 TIP4 H1   HW0      0.679100        1.0080           
    2871 A    7727 TIP4 H2   HW0      0.679100        1.0080           
    2872 A    7727 TIP4 BD1  LP0     -1.358200        0.0000           
    2873 A    7728 TIP4 O1   OW0      0.000000       15.9990           
    2874 A    7728 TIP4 H1   HW0      0.679100        1.0080           
    2875 A    7728 TIP4 H2   HW0      0.679100        1.0080           
    2876 A    7728 TIP4 BD1  LP0     -1.358200        0.0000           
    2877 A    7729 TIP4 O1   OW0      0.000000       15.9990           
    2878 A    7729 TIP4 H1   HW0      0.679100        1.0080           
    2879 A    7729 TIP4 H2   HW0      0.679100        1.0080           
    2880 A    7729 TIP4 BD1  LP0     -1.358200        0.0000           
    2881 A    7730 TIP4 O1   OW0      0.000000       15.9990           
    2882 A    7730 TIP4 H1   HW0      0.679100        1.0080           
    2883 A    7730 TIP4 H2   HW0      0.679100        1.0080           
    2884 A    7730 TIP4 BD1  LP0     -1.358200        0.0000           
    2885 A    7731 TIP4 O1   OW0      0.000000       15.9990           
    2886 A    7731 TIP4 H1   HW0      0.679100        1.0080           
    2887 A    7731 TIP4 H2   HW0      0.679100        1.0080           
    2888 A    7731 TIP4 BD1  LP0     -1.358200        0.0000           
    2889 A    7732 TIP4 O1   OW0      0.000000       15.9990           
    2890 A    7732 TIP4 H1   HW0      0.679100        1.0080           
    2891 A    7732 TIP4 H2   HW0      0.679100        1.0080           
    2892 A    7732 TIP4 BD1  LP0     -1.358200        0.0000           
    2893 A    7733 TIP4 O1   OW0      0.000000       15.9990           
    2894 A    7733 TIP4 H1   HW0      0.679100        1.0080           
    2895 A    7733 TIP4 H2   HW0      0.679100        1.0080           
    2896 A    7733 TIP4 BD1  LP0     -1.358200        0.0000           
    2897 A    7734 TIP4 O1   OW0      0.000000       15.9990           
    2898 A    7734 TIP4 H1   HW0      0.679100        1.0080           
    2899 A    7734 TIP4 H2   HW0      0.679100        1.0080           
    2900 A    7734 TIP4 BD1  LP0     -1.358200        0.0000           
    2901 A    7735 TIP4 O1   OW0      0.000000       15.9990           
    2902 A    7735 TIP4 H1   HW0      0.679100        1.0080           
    2903 A    7735 TIP4 H2   HW0      0.679100        1.0080           
    2904 A    7735 TIP4 BD1  LP0     -1.358200        0.0000           
    2905 A    7736 TIP4 O1   OW0      0.000000       15.9990           
    2906 A    7736 TIP4 H1   HW0      0.679100        1.0080           
    2907 A    7736 TIP4 H2   HW0      0.679100        1.0080           
    2908 A    7736 TIP4 BD1  LP0     -1.358200        0.0000           
    2909 A    7737 TIP4 O1   OW0      0.000000       15.9990           
    2910 A    7737 TIP4 H1   HW0      0.679100        1.0080           
    2911 A    7737 TIP4 H2   HW0      0.679100        1.0080           
    2912 A    7737 TIP4 BD1  LP0     -1.358200        0.0000           
    2913 A    7738 TIP4 O1   OW0      0.000000       15.9990           
    2914 A    7738 TIP4 H1   HW0      0.679100        1.0080           
    2915 A    7738 TIP4 H2   HW0      0.679100        1.0080           
    2916 A    7738 TIP4 BD1  LP0     -1.358200        0.0000           
    2917 A    7739 TIP4 O1   OW0      0.000000       15.9990           
    2918 A    7739 TIP4 H1   HW0      0.679100        1.0080           
    2919 A    7739 TIP4 H2   HW0      0.679100        1.0080           
    2920 A    7739 TIP4 BD1  LP0     -1.358200        0.0000           
    2921 A    7740 TIP4 O1   OW0      0.000000       15.9990           
    2922 A    7740 TIP4 H1   HW0      0.679100        1.0080           
    2923 A    7740 TIP4 H2   HW0      0.679100        1.0080           
    2924 A    7740 TIP4 BD1  LP0     -1.358200        0.0000           
    2925 A    7741 TIP4 O1   OW0      0.000000       15.9990           
    2926 A    7741 TIP4 H1   HW0      0.679100        1.0080           
    2927 A    7741 TIP4 H2   HW0      0.679100        1.0080           
    2928 A    7741 TIP4 BD1  LP0     -1.358200        0.0000           
    2929 A    7742 TIP4 O1   OW0      0.000000       15.9990           
    2930 A    7742 TIP4 H1   HW0      0.679100        1.0080           
    2931 A    7742 TIP4 H2   HW0      0.679100        1.0080           
    2932 A    7742 TIP4 BD1  LP0     -1.358200        0.0000           
    2933 A    7743 TIP4 O1   OW0      0.000000       15.9990           
    2934 A    7743 TIP4 H1   HW0      0.679100        1.0080           
    2935 A    7743 TIP4 H2   HW0      0.679100        1.0080           
    2936 A    7743 TIP4 BD1  LP0     -1.358200        0.0000           
    2937 A    7744 TIP4 O1   OW0      0.000000       15.9990           
    2938 A    7744 TIP4 H1   HW0      0.679100        1.0080           
    2939 A    7744 TIP4 H2   HW0      0.679100        1.0080           
    2940 A    7744 TIP4 BD1  LP0     -1.358200        0.0000           
    2941 A    7745 TIP4 O1   OW0      0.000000       15.9990           
    2942 A    7745 TIP4 H1   HW0      0.679100        1.0080           
    2943 A    7745 TIP4 H2   HW0      0.679100        1.0080           
    2944 A    7745 TIP4 BD1  LP0     -1.358200        0.0000           
    2945 A    7746 TIP4 O1   OW0      0.000000       15.9990           
    2946 A    7746 TIP4 H1   HW0      0.679100        1.0080           
    2947 A    7746 TIP4 H2   HW0      0.679100        1.0080           
    2948 A    7746 TIP4 BD1  LP0     -1.358200        0.0000           
    2949 A    7747 TIP4 O1   OW0      0.000000       15.9990           
    2950 A    7747 TIP4 H1   HW0      0.679100        1.0080           
    2951 A    7747 TIP4 H2   HW0      0.679100        1.0080           
    2952 A    7747 TIP4 BD1  LP0     -1.358200        0.0000           
    2953 A    7748 TIP4 O1   OW0      0.000000       15.9990           
    2954 A    7748 TIP4 H1   HW0      0.679100        1.0080           
    2955 A    7748 TIP4 H2   HW0      0.679100        1.0080           
    2956 A    7748 TIP4 BD1  LP0     -1.358200        0.0000           
    2957 A    7749 TIP4 O1   OW0      0.000000       15.9990           
    2958 A    7749 TIP4 H1   HW0      0.679100        1.0080           
    2959 A    7749 TIP4 H2   HW0      0.679100        1.0080           
    2960 A    7749 TIP4 BD1  LP0     -1.358200        0.0000           
    2961 A    7750 TIP4 O1   OW0      0.000000       15.9990           
    2962 A    7750 TIP4 H1   HW0      0.679100        1.0080           
    2963 A    7750 TIP4 H2   HW0      0.679100        1.0080           
    2964 A    7750 TIP4 BD1  LP0     -1.358200        0.0000           
    2965 A    7751 TIP4 O1   OW0      0.000000       15.9990           
    2966 A    7751 TIP4 H1   HW0      0.679100        1.0080           
    2967 A    7751 TIP4 H2   HW0      0.679100        1.0080           
    2968 A    7751 TIP4 BD1  LP0     -1.358200        0.0000           
    2969 A    7752 TIP4 O1   OW0      0.000000       15.9990           
    2970 A    7752 TIP4 H1   HW0      0.679100        1.0080           
    2971 A    7752 TIP4 H2   HW0      0.679100        1.0080           
    2972 A    7752 TIP4 BD1  LP0     -1.358200        0.0000           
    2973 A    7753 TIP4 O1   OW0      0.000000       15.9990           
    2974 A    7753 TIP4 H1   HW0      0.679100        1.0080           
    2975 A    7753 TIP4 H2   HW0      0.679100        1.0080           
    2976 A    7753 TIP4 BD1  LP0     -1.358200        0.0000           
    2977 A    7754 TIP4 O1   OW0      0.000000       15.9990           
    2978 A    7754 TIP4 H1   HW0      0.679100        1.0080           
    2979 A    7754 TIP4 H2   HW0      0.679100        1.0080           
    2980 A    7754 TIP4 BD1  LP0     -1.358200        0.0000           
    2981 A    7755 TIP4 O1   OW0      0.000000       15.9990           
    2982 A    7755 TIP4 H1   HW0      0.679100        1.0080           
    2983 A    7755 TIP4 H2   HW0      0.679100        1.0080           
    2984 A    7755 TIP4 BD1  LP0     -1.358200        0.0000           
    2985 A    7756 TIP4 O1   OW0      0.000000       15.9990           
    2986 A    7756 TIP4 H1   HW0      0.679100        1.0080           
    2987 A    7756 TIP4 H2   HW0      0.679100        1.0080           
    2988 A    7756 TIP4 BD1  LP0     -1.358200        0.0000           
    2989 A    7757 TIP4 O1   OW0      0.000000       15.9990           
    2990 A    7757 TIP4 H1   HW0      0.679100        1.0080           
    2991 A    7757 TIP4 H2   HW0      0.679100        1.0080           
    2992 A    7757 TIP4 BD1  LP0     -1.358200        0.0000           
    2993 A    7758 TIP4 O1   OW0      0.000000       15.9990           
    2994 A    7758 TIP4 H1   HW0      0.679100        1.0080           
    2995 A    7758 TIP4 H2   HW0      0.679100        1.0080           
    2996 A    7758 TIP4 BD1  LP0     -1.358200        0.0000           
    2997 A    7759 TIP4 O1   OW0      0.000000       15.9990           
    2998 A    7759 TIP4 H1   HW0      0.679100        1.0080           
    2999 A    7759 TIP4 H2   HW0      0.679100        1.0080           
    3000 A    7759 TIP4 BD1  LP0     -1.358200        0.0000           
    3001 A    7760 TIP4 O1   OW0      0.000000       15.9990           
    3002 A    7760 TIP4 H1   HW0      0.679100        1.0080           
    3003 A    7760 TIP4 H2   HW0      0.679100        1.0080           
    3004 A    7760 TIP4 BD1  LP0     -1.358200        0.0000           
    3005 A    7761 TIP4 O1   OW0      0.000000       15.9990           
    3006 A    7761 TIP4 H1   HW0      0.679100        1.0080           
    3007 A    7761 TIP4 H2   HW0      0.679100        1.0080           
    3008 A    7761 TIP4 BD1  LP0     -1.358200        0.0000           
    3009 A    7762 TIP4 O1   OW0      0.000000       15.9990           
    3010 A    7762 TIP4 H1   HW0      0.679100        1.0080           
    3011 A    7762 TIP4 H2   HW0      0.679100        1.0080           
    3012 A    7762 TIP4 BD1  LP0     -1.358200        0.0000           
    3013 A    7763 TIP4 O1   OW0      0.000000       15.9990           
    3014 A    7763 TIP4 H1   HW0      0.679100        1.0080           
    3015 A    7763 TIP4 H2   HW0      0.679100        1.0080           
    3016 A    7763 TIP4 BD1  LP0     -1.358200        0.0000           
    3017 A    7764 TIP4 O1   OW0      0.000000       15.9990           
    3018 A    7764 TIP4 H1   HW0      0.679100        1.0080           
    3019 A    7764 TIP4 H2   HW0      0.679100        1.0080           
    3020 A    7764 TIP4 BD1  LP0     -1.358200        0.0000           
    3021 A    7765 TIP4 O1   OW0      0.000000       15.9990           
    3022 A    7765 TIP4 H1   HW0      0.679100        1.0080           
    3023 A    7765 TIP4 H2   HW0      0.679100        1.0080           
    3024 A    7765 TIP4 BD1  LP0     -1.358200        0.0000           
    3025 A    7766 TIP4 O1   OW0      0.000000       15.9990           
    3026 A    7766 TIP4 H1   HW0      0.679100        1.0080           
    3027 A    7766 TIP4 H2   HW0      0.679100        1.0080           
    3028 A    7766 TIP4 BD1  LP0     -1.358200        0.0000           
    3029 A    7767 TIP4 O1   OW0      0.000000       15.9990           
    3030 A    7767 TIP4 H1   HW0      0.679100        1.0080           
    3031 A    7767 TIP4 H2   HW0      0.679100        1.0080           
    3032 A    7767 TIP4 BD1  LP0     -1.358200        0.0000           
    3033 A    7768 TIP4 O1   OW0      0.000000       15.9990           
    3034 A    7768 TIP4 H1   HW0      0.679100        1.0080           
    3035 A    7768 TIP4 H2   HW0      0.679100        1.0080           
    3036 A    7768 TIP4 BD1  LP0     -1.358200        0.0000           
    3037 A    7769 TIP4 O1   OW0      0.000000       15.9990           
    3038 A    7769 TIP4 H1   HW0      0.679100        1.0080           
    3039 A    7769 TIP4 H2   HW0      0.679100        1.0080           
    3040 A    7769 TIP4 BD1  LP0     -1.358200        0.0000           
    3041 A    7770 TIP4 O1   OW0      0.000000       15.9990           
    3042 A    7770 TIP4 H1   HW0      0.679100        1.0080           
    3043 A    7770 TIP4 H2   HW0      0.679100        1.0080           
    3044 A    7770 TIP4 BD1  LP0     -1.358200        0.0000           
    3045 A    7771 TIP4 O1   OW0      0.000000       15.9990           
    3046 A    7771 TIP4 H1   HW0      0.679100        1.0080           
    3047 A    7771 TIP4 H2   HW0      0.679100        1.0080           
    3048 A    7771 TIP4 BD1  LP0     -1.358200        0.0000           
    3049 A    7772 TIP4 O1   OW0      0.000000       15.9990           
    3050 A    7772 TIP4 H1   HW0      0.679100        1.0080           
    3051 A    7772 TIP4 H2   HW0      0.679100        1.0080           
    3052 A    7772 TIP4 BD1  LP0     -1.358200        0.0000           
    3053 A    7773 TIP4 O1   OW0      0.000000       15.9990           
    3054 A    7773 TIP4 H1   HW0      0.679100        1.0080           
    3055 A    7773 TIP4 H2   HW0      0.679100        1.0080           
    3056 A    7773 TIP4 BD1  LP0     -1.358200        0.0000           
    3057 A    7774 TIP4 O1   OW0      0.000000       15.9990           
    3058 A    7774 TIP4 H1   HW0      0.679100        1.0080           
    3059 A    7774 TIP4 H2   HW0      0.679100        1.0080           
    3060 A    7774 TIP4 BD1  LP0     -1.358200        0.0000           
    3061 A    7775 TIP4 O1   OW0      0.000000       15.9990           
    3062 A    7775 TIP4 H1   HW0      0.679100        1.0080           
    3063 A    7775 TIP4 H2   HW0      0.679100        1.0080           
    3064 A    7775 TIP4 BD1  LP0     -1.358200        0.0000           
    3065 A    7776 TIP4 O1   OW0      0.000000       15.9990           
    3066 A    7776 TIP4 H1   HW0      0.679100        1.0080           
    3067 A    7776 TIP4 H2   HW0      0.679100        1.0080           
    3068 A    7776 TIP4 BD1  LP0     -1.358200        0.0000           
    3069 A    7777 TIP4 O1   OW0      0.000000       15.9990           
    3070 A    7777 TIP4 H1   HW0      0.679100        1.0080           
    3071 A    7777 TIP4 H2   HW0      0.679100        1.0080           
    3072 A    7777 TIP4 BD1  LP0     -1.358200        0.0000           
    3073 A    7778 TIP4 O1   OW0      0.000000       15.9990           
    3074 A    7778 TIP4 H1   HW0      0.679100        1.0080           
    3075 A    7778 TIP4 H2   HW0      0.679100        1.0080           
    3076 A    7778 TIP4 BD1  LP0     -1.358200        0.0000           
    3077 A    7779 TIP4 O1   OW0      0.000000       15.9990           
    3078 A    7779 TIP4 H1   HW0      0.679100        1.0080           
    3079 A    7779 TIP4 H2   HW0      0.679100        1.0080           
    3080 A    7779 TIP4 BD1  LP0     -1.358200        0.0000           
    3081 A    7780 TIP4 O1   OW0      0.000000       15.9990           
    3082 A    7780 TIP4 H1   HW0      0.679100        1.0080           
    3083 A    7780 TIP4 H2   HW0      0.679100        1.0080           
    3084 A    7780 TIP4 BD1  LP0     -1.358200        0.0000           
    3085 A    7781 TIP4 O1   OW0      0.000000       15.9990           
    3086 A    7781 TIP4 H1   HW0      0.679100        1.0080           
    3087 A    7781 TIP4 H2   HW0      0.679100        1.0080           
    3088 A    7781 TIP4 BD1  LP0     -1.358200        0.0000           
    3089 A    7782 TIP4 O1   OW0      0.000000       15.9990           
    3090 A    7782 TIP4 H1   HW0      0.679100        1.0080           
    3091 A    7782 TIP4 H2   HW0      0.679100        1.0080           
    3092 A    7782 TIP4 BD1  LP0     -1.358200        0.0000           
    3093 A    7783 TIP4 O1   OW0      0.000000       15.9990           
    3094 A    7783 TIP4 H1   HW0      0.679100        1.0080           
    3095 A    7783 TIP4 H2   HW0      0.679100        1.0080           
    3096 A    7783 TIP4 BD1  LP0     -1.358200        0.0000           
    3097 A    7784 TIP4 O1   OW0      0.000000       15.9990           
    3098 A    7784 TIP4 H1   HW0      0.679100        1.0080           
    3099 A    7784 TIP4 H2   HW0      0.679100        1.0080           
    3100 A    7784 TIP4 BD1  LP0     -1.358200        0.0000           
    3101 A    7785 TIP4 O1   OW0      0.000000       15.9990           
    3102 A    7785 TIP4 H1   HW0      0.679100        1.0080           
    3103 A    7785 TIP4 H2   HW0      0.679100        1.0080           
    3104 A    7785 TIP4 BD1  LP0     -1.358200        0.0000           
    3105 A    7786 TIP4 O1   OW0      0.000000       15.9990           
    3106 A    7786 TIP4 H1   HW0      0.679100        1.0080           
    3107 A    7786 TIP4 H2   HW0      0.679100        1.0080           
    3108 A    7786 TIP4 BD1  LP0     -1.358200        0.0000           
    3109 A    7787 TIP4 O1   OW0      0.000000       15.9990           
    3110 A    7787 TIP4 H1   HW0      0.679100        1.0080           
    3111 A    7787 TIP4 H2   HW0      0.679100        1.0080           
    3112 A    7787 TIP4 BD1  LP0     -1.358200        0.0000           
    3113 A    7788 TIP4 O1   OW0      0.000000       15.9990           
    3114 A    7788 TIP4 H1   HW0      0.679100        1.0080           
    3115 A    7788 TIP4 H2   HW0      0.679100        1.0080           
    3116 A    7788 TIP4 BD1  LP0     -1.358200        0.0000           
    3117 A    7789 TIP4 O1   OW0      0.000000       15.9990           
    3118 A    7789 TIP4 H1   HW0      0.679100        1.0080           
    3119 A    7789 TIP4 H2   HW0      0.679100        1.0080           
    3120 A    7789 TIP4 BD1  LP0     -1.358200        0.0000           
    3121 A    7790 TIP4 O1   OW0      0.000000       15.9990           
    3122 A    7790 TIP4 H1   HW0      0.679100        1.0080           
    3123 A    7790 TIP4 H2   HW0      0.679100        1.0080           
    3124 A    7790 TIP4 BD1  LP0     -1.358200        0.0000           
    3125 A    7791 TIP4 O1   OW0      0.000000       15.9990           
    3126 A    7791 TIP4 H1   HW0      0.679100        1.0080           
    3127 A    7791 TIP4 H2   HW0      0.679100        1.0080           
    3128 A    7791 TIP4 BD1  LP0     -1.358200        0.0000           
    3129 A    7792 TIP4 O1   OW0      0.000000       15.9990           
    3130 A    7792 TIP4 H1   HW0      0.679100        1.0080           
    3131 A    7792 TIP4 H2   HW0      0.679100        1.0080           
    3132 A    7792 TIP4 BD1  LP0     -1.358200        0.0000           
    3133 A    7793 TIP4 O1   OW0      0.000000       15.9990           
    3134 A    7793 TIP4 H1   HW0      0.679100        1.0080           
    3135 A    7793 TIP4 H2   HW0      0.679100        1.0080           
    3136 A    7793 TIP4 BD1  LP0     -1.358200        0.0000           
    3137 A    7794 TIP4 O1   OW0      0.000000       15.9990           
    3138 A    7794 TIP4 H1   HW0      0.679100        1.0080           
    3139 A    7794 TIP4 H2   HW0      0.679100        1.0080           
    3140 A    7794 TIP4 BD1  LP0     -1.358200        0.0000           
    3141 A    7795 TIP4 O1   OW0      0.000000       15.9990           
    3142 A    7795 TIP4 H1   HW0      0.679100        1.0080           
    3143 A    7795 TIP4 H2   HW0      0.679100        1.0080           
    3144 A    7795 TIP4 BD1  LP0     -1.358200        0.0000           
    3145 A    7796 TIP4 O1   OW0      0.000000       15.9990           
    3146 A    7796 TIP4 H1   HW0      0.679100        1.0080           
    3147 A    7796 TIP4 H2   HW0      0.679100        1.0080           
    3148 A    7796 TIP4 BD1  LP0     -1.358200        0.0000           
    3149 A    7797 TIP4 O1   OW0      0.000000       15.9990           
    3150 A    7797 TIP4 H1   HW0      0.679100        1.0080           
    3151 A    7797 TIP4 H2   HW0      0.679100        1.0080           
    3152 A    7797 TIP4 BD1  LP0     -1.358200        0.0000           
    3153 A    7798 TIP4 O1   OW0      0.000000       15.9990           
    3154 A    7798 TIP4 H1   HW0      0.679100        1.0080           
    3155 A    7798 TIP4 H2   HW0      0.679100        1.0080           
    3156 A    7798 TIP4 BD1  LP0     -1.358200        0.0000           
    3157 A    7799 TIP4 O1   OW0      0.000000       15.9990           
    3158 A    7799 TIP4 H1   HW0      0.679100        1.0080           
    3159 A    7799 TIP4 H2   HW0      0.679100        1.0080           
    3160 A    7799 TIP4 BD1  LP0     -1.358200        0.0000           
    3161 A    7800 TIP4 O1   OW0      0.000000       15.9990           
    3162 A    7800 TIP4 H1   HW0      0.679100        1.0080           
    3163 A    7800 TIP4 H2   HW0      0.679100        1.0080           
    3164 A    7800 TIP4 BD1  LP0     -1.358200        0.0000           
    3165 A    7801 TIP4 O1   OW0      0.000000       15.9990           
    3166 A    7801 TIP4 H1   HW0      0.679100        1.0080           
    3167 A    7801 TIP4 H2   HW0      0.679100        1.0080           
    3168 A    7801 TIP4 BD1  LP0     -1.358200        0.0000           
    3169 A    7802 TIP4 O1   OW0      0.000000       15.9990           
    3170 A    7802 TIP4 H1   HW0      0.679100        1.0080           
    3171 A    7802 TIP4 H2   HW0      0.679100        1.0080           
    3172 A    7802 TIP4 BD1  LP0     -1.358200        0.0000           
    3173 A    7803 TIP4 O1   OW0      0.000000       15.9990           
    3174 A    7803 TIP4 H1   HW0      0.679100        1.0080           
    3175 A    7803 TIP4 H2   HW0      0.679100        1.0080           
    3176 A    7803 TIP4 BD1  LP0     -1.358200        0.0000           
    3177 A    7804 TIP4 O1   OW0      0.000000       15.9990           
    3178 A    7804 TIP4 H1   HW0      0.679100        1.0080           
    3179 A    7804 TIP4 H2   HW0      0.679100        1.0080           
    3180 A    7804 TIP4 BD1  LP0     -1.358200        0.0000           
    3181 A    7805 TIP4 O1   OW0      0.000000       15.9990           
    3182 A    7805 TIP4 H1   HW0      0.679100        1.0080           
    3183 A    7805 TIP4 H2   HW0      0.679100        1.0080           
    3184 A    7805 TIP4 BD1  LP0     -1.358200        0.0000           
    3185 A    7806 TIP4 O1   OW0      0.000000       15.9990           
    3186 A    7806 TIP4 H1   HW0      0.679100        1.0080           
    3187 A    7806 TIP4 H2   HW0      0.679100        1.0080           
    3188 A    7806 TIP4 BD1  LP0     -1.358200        0.0000           
    3189 A    7807 TIP4 O1   OW0      0.000000       15.9990           
    3190 A    7807 TIP4 H1   HW0      0.679100        1.0080           
    3191 A    7807 TIP4 H2   HW0      0.679100        1.0080           
    3192 A    7807 TIP4 BD1  LP0     -1.358200        0.0000           
    3193 A    7808 TIP4 O1   OW0      0.000000       15.9990           
    3194 A    7808 TIP4 H1   HW0      0.679100        1.0080           
    3195 A    7808 TIP4 H2   HW0      0.679100        1.0080           
    3196 A    7808 TIP4 BD1  LP0     -1.358200        0.0000           
    3197 A    7809 TIP4 O1   OW0      0.000000       15.9990           
    3198 A    7809 TIP4 H1   HW0      0.679100        1.0080           
    3199 A    7809 TIP4 H2   HW0      0.679100        1.0080           
    3200 A    7809 TIP4 BD1  LP0     -1.358200        0.0000           
    3201 A    7810 TIP4 O1   OW0      0.000000       15.9990           
    3202 A    7810 TIP4 H1   HW0      0.679100        1.0080           
    3203 A    7810 TIP4 H2   HW0      0.679100        1.0080           
    3204 A    7810 TIP4 BD1  LP0     -1.358200        0.0000           
    3205 A    7811 TIP4 O1   OW0      0.000000       15.9990           
    3206 A    7811 TIP4 H1   HW0      0.679100        1.0080           
    3207 A    7811 TIP4 H2   HW0      0.679100        1.0080           
    3208 A    7811 TIP4 BD1  LP0     -1.358200        0.0000           
    3209 A    7812 TIP4 O1   OW0      0.000000       15.9990           
    3210 A    7812 TIP4 H1   HW0      0.679100        1.0080           
    3211 A    7812 TIP4 H2   HW0      0.679100        1.0080           
    3212 A    7812 TIP4 BD1  LP0     -1.358200        0.0000           
    3213 A    7813 TIP4 O1   OW0      0.000000       15.9990           
    3214 A    7813 TIP4 H1   HW0      0.679100        1.0080           
    3215 A    7813 TIP4 H2   HW0      0.679100        1.0080           
    3216 A    7813 TIP4 BD1  LP0     -1.358200        0.0000           
    3217 A    7814 TIP4 O1   OW0      0.000000       15.9990           
    3218 A    7814 TIP4 H1   HW0      0.679100        1.0080           
    3219 A    7814 TIP4 H2   HW0      0.679100        1.0080           
    3220 A    7814 TIP4 BD1  LP0     -1.358200        0.0000           
    3221 A    7815 TIP4 O1   OW0      0.000000       15.9990           
    3222 A    7815 TIP4 H1   HW0      0.679100        1.0080           
    3223 A    7815 TIP4 H2   HW0      0.679100        1.0080           
    3224 A    7815 TIP4 BD1  LP0     -1.358200        0.0000           
    3225 A    7816 TIP4 O1   OW0      0.000000       15.9990           
    3226 A    7816 TIP4 H1   HW0      0.679100        1.0080           
    3227 A    7816 TIP4 H2   HW0      0.679100        1.0080           
    3228 A    7816 TIP4 BD1  LP0     -1.358200        0.0000           
    3229 A    7817 TIP4 O1   OW0      0.000000       15.9990           
    3230 A    7817 TIP4 H1   HW0      0.679100        1.0080           
    3231 A    7817 TIP4 H2   HW0      0.679100        1.0080           
    3232 A    7817 TIP4 BD1  LP0     -1.358200        0.0000           
    3233 A    7818 TIP4 O1   OW0      0.000000       15.9990           
    3234 A    7818 TIP4 H1   HW0      0.679100        1.0080           
    3235 A    7818 TIP4 H2   HW0      0.679100        1.0080           
    3236 A    7818 TIP4 BD1  LP0     -1.358200        0.0000           
    3237 A    7819 TIP4 O1   OW0      0.000000       15.9990           
    3238 A    7819 TIP4 H1   HW0      0.679100        1.0080           
    3239 A    7819 TIP4 H2   HW0      0.679100        1.0080           
    3240 A    7819 TIP4 BD1  LP0     -1.358200        0.0000           
    3241 A    7820 TIP4 O1   OW0      0.000000       15.9990           
    3242 A    7820 TIP4 H1   HW0      0.679100        1.0080           
    3243 A    7820 TIP4 H2   HW0      0.679100        1.0080           
    3244 A    7820 TIP4 BD1  LP0     -1.358200        0.0000           
    3245 A    7821 TIP4 O1   OW0      0.000000       15.9990           
    3246 A    7821 TIP4 H1   HW0      0.679100        1.0080           
    3247 A    7821 TIP4 H2   HW0      0.679100        1.0080           
    3248 A    7821 TIP4 BD1  LP0     -1.358200        0.0000           
    3249 A    7822 TIP4 O1   OW0      0.000000       15.9990           
    3250 A    7822 TIP4 H1   HW0      0.679100        1.0080           
    3251 A    7822 TIP4 H2   HW0      0.679100        1.0080           
    3252 A    7822 TIP4 BD1  LP0     -1.358200        0.0000           
    3253 A    7823 TIP4 O1   OW0      0.000000       15.9990           
    3254 A    7823 TIP4 H1   HW0      0.679100        1.0080           
    3255 A    7823 TIP4 H2   HW0      0.679100        1.0080           
    3256 A    7823 TIP4 BD1  LP0     -1.358200        0.0000           
    3257 A    7824 TIP4 O1   OW0      0.000000       15.9990           
    3258 A    7824 TIP4 H1   HW0      0.679100        1.0080           
    3259 A    7824 TIP4 H2   HW0      0.679100        1.0080           
    3260 A    7824 TIP4 BD1  LP0     -1.358200        0.0000           
    3261 A    7825 TIP4 O1   OW0      0.000000       15.9990           
    3262 A    7825 TIP4 H1   HW0      0.679100        1.0080           
    3263 A    7825 TIP4 H2   HW0      0.679100        1.0080           
    3264 A    7825 TIP4 BD1  LP0     -1.358200        0.0000           
    3265 A    7826 TIP4 O1   OW0      0.000000       15.9990           
    3266 A    7826 TIP4 H1   HW0      0.679100        1.0080           
    3267 A    7826 TIP4 H2   HW0      0.679100        1.0080           
    3268 A    7826 TIP4 BD1  LP0     -1.358200        0.0000           
    3269 A    7827 TIP4 O1   OW0      0.000000       15.9990           
    3270 A    7827 TIP4 H1   HW0      0.679100        1.0080           
    3271 A    7827 TIP4 H2   HW0      0.679100        1.0080           
    3272 A    7827 TIP4 BD1  LP0     -1.358200        0.0000           
    3273 A    7828 TIP4 O1   OW0      0.000000       15.9990           
    3274 A    7828 TIP4 H1   HW0      0.679100        1.0080           
    3275 A    7828 TIP4 H2   HW0      0.679100        1.0080           
    3276 A    7828 TIP4 BD1  LP0     -1.358200        0.0000           
    3277 A    7829 TIP4 O1   OW0      0.000000       15.9990           
    3278 A    7829 TIP4 H1   HW0      0.679100        1.0080           
    3279 A    7829 TIP4 H2   HW0      0.679100        1.0080           
    3280 A    7829 TIP4 BD1  LP0     -1.358200        0.0000           
    3281 A    7830 TIP4 O1   OW0      0.000000       15.9990           
    3282 A    7830 TIP4 H1   HW0      0.679100        1.0080           
    3283 A    7830 TIP4 H2   HW0      0.679100        1.0080           
    3284 A    7830 TIP4 BD1  LP0     -1.358200        0.0000           
    3285 A    7831 TIP4 O1   OW0      0.000000       15.9990           
    3286 A    7831 TIP4 H1   HW0      0.679100        1.0080           
    3287 A    7831 TIP4 H2   HW0      0.679100        1.0080           
    3288 A    7831 TIP4 BD1  LP0     -1.358200        0.0000           
    3289 A    7832 TIP4 O1   OW0      0.000000       15.9990           
    3290 A    7832 TIP4 H1   HW0      0.679100        1.0080           
    3291 A    7832 TIP4 H2   HW0      0.679100        1.0080           
    3292 A    7832 TIP4 BD1  LP0     -1.358200        0.0000           
    3293 A    7833 TIP4 O1   OW0      0.000000       15.9990           
    3294 A    7833 TIP4 H1   HW0      0.679100        1.0080           
    3295 A    7833 TIP4 H2   HW0      0.679100        1.0080           
    3296 A    7833 TIP4 BD1  LP0     -1.358200        0.0000           
    3297 A    7834 TIP4 O1   OW0      0.000000       15.9990           
    3298 A    7834 TIP4 H1   HW0      0.679100        1.0080           
    3299 A    7834 TIP4 H2   HW0      0.679100        1.0080           
    3300 A    7834 TIP4 BD1  LP0     -1.358200        0.0000           
    3301 A    7835 TIP4 O1   OW0      0.000000       15.9990           
    3302 A    7835 TIP4 H1   HW0      0.679100        1.0080           
    3303 A    7835 TIP4 H2   HW0      0.679100        1.0080           
    3304 A    7835 TIP4 BD1  LP0     -1.358200        0.0000           
    3305 A    7836 TIP4 O1   OW0      0.000000       15.9990           
    3306 A    7836 TIP4 H1   HW0      0.679100        1.0080           
    3307 A    7836 TIP4 H2   HW0      0.679100        1.0080           
    3308 A    7836 TIP4 BD1  LP0     -1.358200        0.0000           
    3309 A    7837 TIP4 O1   OW0      0.000000       15.9990           
    3310 A    7837 TIP4 H1   HW0      0.679100        1.0080           
    3311 A    7837 TIP4 H2   HW0      0.679100        1.0080           
    3312 A    7837 TIP4 BD1  LP0     -1.358200        0.0000           
    3313 A    7838 TIP4 O1   OW0      0.000000       15.9990           
    3314 A    7838 TIP4 H1   HW0      0.679100        1.0080           
    3315 A    7838 TIP4 H2   HW0      0.679100        1.0080           
    3316 A    7838 TIP4 BD1  LP0     -1.358200        0.0000           
    3317 A    7839 TIP4 O1   OW0      0.000000       15.9990           
    3318 A    7839 TIP4 H1   HW0      0.679100        1.0080           
    3319 A    7839 TIP4 H2   HW0      0.679100        1.0080           
    3320 A    7839 TIP4 BD1  LP0     -1.358200        0.0000           
    3321 A    7840 TIP4 O1   OW0      0.000000       15.9990           
    3322 A    7840 TIP4 H1   HW0      0.679100        1.0080           
    3323 A    7840 TIP4 H2   HW0      0.679100        1.0080           
    3324 A    7840 TIP4 BD1  LP0     -1.358200        0.0000           
    3325 A    7841 TIP4 O1   OW0      0.000000       15.9990           
    3326 A    7841 TIP4 H1   HW0      0.679100        1.0080           
    3327 A    7841 TIP4 H2   HW0      0.679100        1.0080           
    3328 A    7841 TIP4 BD1  LP0     -1.358200        0.0000           
    3329 A    7842 TIP4 O1   OW0      0.000000       15.9990           
    3330 A    7842 TIP4 H1   HW0      0.679100        1.0080           
    3331 A    7842 TIP4 H2   HW0      0.679100        1.0080           
    3332 A    7842 TIP4 BD1  LP0     -1.358200        0.0000           
    3333 A    7843 TIP4 O1   OW0      0.000000       15.9990           
    3334 A    7843 TIP4 H1   HW0      0.679100        1.0080           
    3335 A    7843 TIP4 H2   HW0      0.679100        1.0080           
    3336 A    7843 TIP4 BD1  LP0     -1.358200        0.0000           
    3337 A    7844 TIP4 O1   OW0      0.000000       15.9990           
    3338 A    7844 TIP4 H1   HW0      0.679100        1.0080           
    3339 A    7844 TIP4 H2   HW0      0.679100        1.0080           
    3340 A    7844 TIP4 BD1  LP0     -1.358200        0.0000           
    3341 A    7845 TIP4 O1   OW0      0.000000       15.9990           
    3342 A    7845 TIP4 H1   HW0      0.679100        1.0080           
    3343 A    7845 TIP4 H2   HW0      0.679100        1.0080           
    3344 A    7845 TIP4 BD1  LP0     -1.358200        0.0000           
    3345 A    7846 TIP4 O1   OW0      0.000000       15.9990           
    3346 A    7846 TIP4 H1   HW0      0.679100        1.0080           
    3347 A    7846 TIP4 H2   HW0      0.679100        1.0080           
    3348 A    7846 TIP4 BD1  LP0     -1.358200        0.0000           
    3349 A    7847 TIP4 O1   OW0      0.000000       15.9990           
    3350 A    7847 TIP4 H1   HW0      0.679100        1.0080           
    3351 A    7847 TIP4 H2   HW0      0.679100        1.0080           
    3352 A    7847 TIP4 BD1  LP0     -1.358200        0.0000           
    3353 A    7848 TIP4 O1   OW0      0.000000       15.9990           
    3354 A    7848 TIP4 H1   HW0      0.679100        1.0080           
    3355 A    7848 TIP4 H2   HW0      0.679100        1.0080           
    3356 A    7848 TIP4 BD1  LP0     -1.358200        0.0000           
    3357 A    7849 TIP4 O1   OW0      0.000000       15.9990           
    3358 A    7849 TIP4 H1   HW0      0.679100        1.0080           
    3359 A    7849 TIP4 H2   HW0      0.679100        1.0080           
    3360 A    7849 TIP4 BD1  LP0     -1.358200        0.0000           
    3361 A    7850 TIP4 O1   OW0      0.000000       15.9990           
    3362 A    7850 TIP4 H1   HW0      0.679100        1.0080           
    3363 A    7850 TIP4 H2   HW0      0.679100        1.0080           
    3364 A    7850 TIP4 BD1  LP0     -1.358200        0.0000           
    3365 A    7851 TIP4 O1   OW0      0.000000       15.9990           
    3366 A    7851 TIP4 H1   HW0      0.679100        1.0080           
    3367 A    7851 TIP4 H2   HW0      0.679100        1.0080           
    3368 A    7851 TIP4 BD1  LP0     -1.358200        0.0000           
    3369 A    7852 TIP4 O1   OW0      0.000000       15.9990           
    3370 A    7852 TIP4 H1   HW0      0.679100        1.0080           
    3371 A    7852 TIP4 H2   HW0      0.679100        1.0080           
    3372 A    7852 TIP4 BD1  LP0     -1.358200        0.0000           
    3373 A    7853 TIP4 O1   OW0      0.000000       15.9990           
    3374 A    7853 TIP4 H1   HW0      0.679100        1.0080           
    3375 A    7853 TIP4 H2   HW0      0.679100        1.0080           
    3376 A    7853 TIP4 BD1  LP0     -1.358200        0.0000           
    3377 A    7854 TIP4 O1   OW0      0.000000       15.9990           
    3378 A    7854 TIP4 H1   HW0      0.679100        1.0080           
    3379 A    7854 TIP4 H2   HW0      0.679100        1.0080           
    3380 A    7854 TIP4 BD1  LP0     -1.358200        0.0000           
    3381 A    7855 TIP4 O1   OW0      0.000000       15.9990           
    3382 A    7855 TIP4 H1   HW0      0.679100        1.0080           
    3383 A    7855 TIP4 H2   HW0      0.679100        1.0080           
    3384 A    7855 TIP4 BD1  LP0     -1.358200        0.0000           
    3385 A    7856 TIP4 O1   OW0      0.000000       15.9990           
    3386 A    7856 TIP4 H1   HW0      0.679100        1.0080           
    3387 A    7856 TIP4 H2   HW0      0.679100        1.0080           
    3388 A    7856 TIP4 BD1  LP0     -1.358200        0.0000           
    3389 A    7857 TIP4 O1   OW0      0.000000       15.9990           
    3390 A    7857 TIP4 H1   HW0      0.679100        1.0080           
    3391 A    7857 TIP4 H2   HW0      0.679100        1.0080           
    3392 A    7857 TIP4 BD1  LP0     -1.358200        0.0000           
    3393 A    7858 TIP4 O1   OW0      0.000000       15.9990           
    3394 A    7858 TIP4 H1   HW0      0.679100        1.0080           
    3395 A    7858 TIP4 H2   HW0      0.679100        1.0080           
    3396 A    7858 TIP4 BD1  LP0     -1.358200        0.0000           
    3397 A    7859 TIP4 O1   OW0      0.000000       15.9990           
    3398 A    7859 TIP4 H1   HW0      0.679100        1.0080           
    3399 A    7859 TIP4 H2   HW0      0.679100        1.0080           
    3400 A    7859 TIP4 BD1  LP0     -1.358200        0.0000           
    3401 A    7860 TIP4 O1   OW0      0.000000       15.9990           
    3402 A    7860 TIP4 H1   HW0      0.679100        1.0080           
    3403 A    7860 TIP4 H2   HW0      0.679100        1.0080           
    3404 A    7860 TIP4 BD1  LP0     -1.358200        0.0000           
    3405 A    7861 TIP4 O1   OW0      0.000000       15.9990           
    3406 A    7861 TIP4 H1   HW0      0.679100        1.0080           
    3407 A    7861 TIP4 H2   HW0      0.679100        1.0080           
    3408 A    7861 TIP4 BD1  LP0     -1.358200        0.0000           
    3409 A    7862 TIP4 O1   OW0      0.000000       15.9990           
    3410 A    7862 TIP4 H1   HW0      0.679100        1.0080           
    3411 A    7862 TIP4 H2   HW0      0.679100        1.0080           
    3412 A    7862 TIP4 BD1  LP0     -1.358200        0.0000           
    3413 A    7863 TIP4 O1   OW0      0.000000       15.9990           
    3414 A    7863 TIP4 H1   HW0      0.679100        1.0080           
    3415 A    7863 TIP4 H2   HW0      0.679100        1.0080           
    3416 A    7863 TIP4 BD1  LP0     -1.358200        0.0000           
    3417 A    7864 TIP4 O1   OW0      0.000000       15.9990           
    3418 A    7864 TIP4 H1   HW0      0.679100        1.0080           
    3419 A    7864 TIP4 H2   HW0      0.679100        1.0080           
    3420 A    7864 TIP4 BD1  LP0     -1.358200        0.0000           
    3421 A    7865 TIP4 O1   OW0      0.000000       15.9990           
    3422 A    7865 TIP4 H1   HW0      0.679100        1.0080           
    3423 A    7865 TIP4 H2   HW0      0.679100        1.0080           
    3424 A    7865 TIP4 BD1  LP0     -1.358200        0.0000           
    3425 A    7866 TIP4 O1   OW0      0.000000       15.9990           
    3426 A    7866 TIP4 H1   HW0      0.679100        1.0080           
    3427 A    7866 TIP4 H2   HW0      0.679100        1.0080           
    3428 A    7866 TIP4 BD1  LP0     -1.358200        0.0000           
    3429 A    7867 TIP4 O1   OW0      0.000000       15.9990           
    3430 A    7867 TIP4 H1   HW0      0.679100        1.0080           
    3431 A    7867 TIP4 H2   HW0      0.679100        1.0080           
    3432 A    7867 TIP4 BD1  LP0     -1.358200        0.0000           
    3433 A    7868 TIP4 O1   OW0      0.000000       15.9990           
    3434 A    7868 TIP4 H1   HW0      0.679100        1.0080           
    3435 A    7868 TIP4 H2   HW0      0.679100        1.0080           
    3436 A    7868 TIP4 BD1  LP0     -1.358200        0.0000           
    3437 A    7869 TIP4 O1   OW0      0.000000       15.9990           
    3438 A    7869 TIP4 H1   HW0      0.679100        1.0080           
    3439 A    7869 TIP4 H2   HW0      0.679100        1.0080           
    3440 A    7869 TIP4 BD1  LP0     -1.358200        0.0000           
    3441 A    7870 TIP4 O1   OW0      0.000000       15.9990           
    3442 A    7870 TIP4 H1   HW0      0.679100        1.0080           
    3443 A    7870 TIP4 H2   HW0      0.679100        1.0080           
    3444 A    7870 TIP4 BD1  LP0     -1.358200        0.0000           
    3445 A    7871 TIP4 O1   OW0      0.000000       15.9990           
    3446 A    7871 TIP4 H1   HW0      0.679100        1.0080           
    3447 A    7871 TIP4 H2   HW0      0.679100        1.0080           
    3448 A    7871 TIP4 BD1  LP0     -1.358200        0.0000           
    3449 A    7872 TIP4 O1   OW0      0.000000       15.9990           
    3450 A    7872 TIP4 H1   HW0      0.679100        1.0080           
    3451 A    7872 TIP4 H2   HW0      0.679100        1.0080           
    3452 A    7872 TIP4 BD1  LP0     -1.358200        0.0000           
    3453 A    7873 TIP4 O1   OW0      0.000000       15.9990           
    3454 A    7873 TIP4 H1   HW0      0.679100        1.0080           
    3455 A    7873 TIP4 H2   HW0      0.679100        1.0080           
    3456 A    7873 TIP4 BD1  LP0     -1.358200        0.0000           
    3457 A    7874 TIP4 O1   OW0      0.000000       15.9990           
    3458 A    7874 TIP4 H1   HW0      0.679100        1.0080           
    3459 A    7874 TIP4 H2   HW0      0.679100        1.0080           
    3460 A    7874 TIP4 BD1  LP0     -1.358200        0.0000           
    3461 A    7875 TIP4 O1   OW0      0.000000       15.9990           
    3462 A    7875 TIP4 H1   HW0      0.679100        1.0080           
    3463 A    7875 TIP4 H2   HW0      0.679100        1.0080           
    3464 A    7875 TIP4 BD1  LP0     -1.358200        0.0000           
    3465 A    7876 TIP4 O1   OW0      0.000000       15.9990           
    3466 A    7876 TIP4 H1   HW0      0.679100        1.0080           
    3467 A    7876 TIP4 H2   HW0      0.679100        1.0080           
    3468 A    7876 TIP4 BD1  LP0     -1.358200        0.0000           
    3469 A    7877 TIP4 O1   OW0      0.000000       15.9990           
    3470 A    7877 TIP4 H1   HW0      0.679100        1.0080           
    3471 A    7877 TIP4 H2   HW0      0.679100        1.0080           
    3472 A    7877 TIP4 BD1  LP0     -1.358200        0.0000           
    3473 A    7878 TIP4 O1   OW0      0.000000       15.9990           
    3474 A    7878 TIP4 H1   HW0      0.679100        1.0080           
    3475 A    7878 TIP4 H2   HW0      0.679100        1.0080           
    3476 A    7878 TIP4 BD1  LP0     -1.358200        0.0000           
    3477 A    7879 TIP4 O1   OW0      0.000000       15.9990           
    3478 A    7879 TIP4 H1   HW0      0.679100        1.0080           
    3479 A    7879 TIP4 H2   HW0      0.679100        1.0080           
    3480 A    7879 TIP4 BD1  LP0     -1.358200        0.0000           
    3481 A    7880 TIP4 O1   OW0      0.000000       15.9990           
    3482 A    7880 TIP4 H1   HW0      0.679100        1.0080           
    3483 A    7880 TIP4 H2   HW0      0.679100        1.0080           
    3484 A    7880 TIP4 BD1  LP0     -1.358200        0.0000           
    3485 A    7881 TIP4 O1   OW0      0.000000       15.9990           
    3486 A    7881 TIP4 H1   HW0      0.679100        1.0080           
    3487 A    7881 TIP4 H2   HW0      0.679100        1.0080           
    3488 A    7881 TIP4 BD1  LP0     -1.358200        0.0000           
    3489 A    7882 TIP4 O1   OW0      0.000000       15.9990           
    3490 A    7882 TIP4 H1   HW0      0.679100        1.0080           
    3491 A    7882 TIP4 H2   HW0      0.679100        1.0080           
    3492 A    7882 TIP4 BD1  LP0     -1.358200        0.0000           
    3493 A    7883 TIP4 O1   OW0      0.000000       15.9990           
    3494 A    7883 TIP4 H1   HW0      0.679100        1.0080           
    3495 A    7883 TIP4 H2   HW0      0.679100        1.0080           
    3496 A    7883 TIP4 BD1  LP0     -1.358200        0.0000           
    3497 A    7884 TIP4 O1   OW0      0.000000       15.9990           
    3498 A    7884 TIP4 H1   HW0      0.679100        1.0080           
    3499 A    7884 TIP4 H2   HW0      0.679100        1.0080           
    3500 A    7884 TIP4 BD1  LP0     -1.358200        0.0000           
    3501 A    7885 TIP4 O1   OW0      0.000000       15.9990           
    3502 A    7885 TIP4 H1   HW0      0.679100        1.0080           
    3503 A    7885 TIP4 H2   HW0      0.679100        1.0080           
    3504 A    7885 TIP4 BD1  LP0     -1.358200        0.0000           
    3505 A    7886 TIP4 O1   OW0      0.000000       15.9990           
    3506 A    7886 TIP4 H1   HW0      0.679100        1.0080           
    3507 A    7886 TIP4 H2   HW0      0.679100        1.0080           
    3508 A    7886 TIP4 BD1  LP0     -1.358200        0.0000           
    3509 A    7887 TIP4 O1   OW0      0.000000       15.9990           
    3510 A    7887 TIP4 H1   HW0      0.679100        1.0080           
    3511 A    7887 TIP4 H2   HW0      0.679100        1.0080           
    3512 A    7887 TIP4 BD1  LP0     -1.358200        0.0000           
    3513 A    7888 TIP4 O1   OW0      0.000000       15.9990           
    3514 A    7888 TIP4 H1   HW0      0.679100        1.0080           
    3515 A    7888 TIP4 H2   HW0      0.679100        1.0080           
    3516 A    7888 TIP4 BD1  LP0     -1.358200        0.0000           
    3517 A    7889 TIP4 O1   OW0      0.000000       15.9990           
    3518 A    7889 TIP4 H1   HW0      0.679100        1.0080           
    3519 A    7889 TIP4 H2   HW0      0.679100        1.0080           
    3520 A    7889 TIP4 BD1  LP0     -1.358200        0.0000           
    3521 A    7890 TIP4 O1   OW0      0.000000       15.9990           
    3522 A    7890 TIP4 H1   HW0      0.679100        1.0080           
    3523 A    7890 TIP4 H2   HW0      0.679100        1.0080           
    3524 A    7890 TIP4 BD1  LP0     -1.358200        0.0000           
    3525 A    7891 TIP4 O1   OW0      0.000000       15.9990           
    3526 A    7891 TIP4 H1   HW0      0.679100        1.0080           
    3527 A    7891 TIP4 H2   HW0      0.679100        1.0080           
    3528 A    7891 TIP4 BD1  LP0     -1.358200        0.0000           
    3529 A    7892 TIP4 O1   OW0      0.000000       15.9990           
    3530 A    7892 TIP4 H1   HW0      0.679100        1.0080           
    3531 A    7892 TIP4 H2   HW0      0.679100        1.0080           
    3532 A    7892 TIP4 BD1  LP0     -1.358200        0.0000           
    3533 A    7893 TIP4 O1   OW0      0.000000       15.9990           
    3534 A    7893 TIP4 H1   HW0      0.679100        1.0080           
    3535 A    7893 TIP4 H2   HW0      0.679100        1.0080           
    3536 A    7893 TIP4 BD1  LP0     -1.358200        0.0000           
    3537 A    7894 TIP4 O1   OW0      0.000000       15.9990           
    3538 A    7894 TIP4 H1   HW0      0.679100        1.0080           
    3539 A    7894 TIP4 H2   HW0      0.679100        1.0080           
    3540 A    7894 TIP4 BD1  LP0     -1.358200        0.0000           
    3541 A    7895 TIP4 O1   OW0      0.000000       15.9990           
    3542 A    7895 TIP4 H1   HW0      0.679100        1.0080           
    3543 A    7895 TIP4 H2   HW0      0.679100        1.0080           
    3544 A    7895 TIP4 BD1  LP0     -1.358200        0.0000           
    3545 A    7896 TIP4 O1   OW0      0.000000       15.9990           
    3546 A    7896 TIP4 H1   HW0      0.679100        1.0080           
    3547 A    7896 TIP4 H2   HW0      0.679100        1.0080           
    3548 A    7896 TIP4 BD1  LP0     -1.358200        0.0000           
    3549 A    7897 TIP4 O1   OW0      0.000000       15.9990           
    3550 A    7897 TIP4 H1   HW0      0.679100        1.0080           
    3551 A    7897 TIP4 H2   HW0      0.679100        1.0080           
    3552 A    7897 TIP4 BD1  LP0     -1.358200        0.0000           
    3553 A    7898 TIP4 O1   OW0      0.000000       15.9990           
    3554 A    7898 TIP4 H1   HW0      0.679100        1.0080           
    3555 A    7898 TIP4 H2   HW0      0.679100        1.0080           
    3556 A    7898 TIP4 BD1  LP0     -1.358200        0.0000           
    3557 A    7899 TIP4 O1   OW0      0.000000       15.9990           
    3558 A    7899 TIP4 H1   HW0      0.679100        1.0080           
    3559 A    7899 TIP4 H2   HW0      0.679100        1.0080           
    3560 A    7899 TIP4 BD1  LP0     -1.358200        0.0000           
    3561 A    7900 TIP4 O1   OW0      0.000000       15.9990           
    3562 A    7900 TIP4 H1   HW0      0.679100        1.0080           
    3563 A    7900 TIP4 H2   HW0      0.679100        1.0080           
    3564 A    7900 TIP4 BD1  LP0     -1.358200        0.0000           
    3565 A    7901 TIP4 O1   OW0      0.000000       15.9990           
    3566 A    7901 TIP4 H1   HW0      0.679100        1.0080           
    3567 A    7901 TIP4 H2   HW0      0.679100        1.0080           
    3568 A    7901 TIP4 BD1  LP0     -1.358200        0.0000           
    3569 A    7902 TIP4 O1   OW0      0.000000       15.9990           
    3570 A    7902 TIP4 H1   HW0      0.679100        1.0080           
    3571 A    7902 TIP4 H2   HW0      0.679100        1.0080           
    3572 A    7902 TIP4 BD1  LP0     -1.358200        0.0000           
    3573 A    7903 TIP4 O1   OW0      0.000000       15.9990           
    3574 A    7903 TIP4 H1   HW0      0.679100        1.0080           
    3575 A    7903 TIP4 H2   HW0      0.679100        1.0080           
    3576 A    7903 TIP4 BD1  LP0     -1.358200        0.0000           
    3577 A    7904 TIP4 O1   OW0      0.000000       15.9990           
    3578 A    7904 TIP4 H1   HW0      0.679100        1.0080           
    3579 A    7904 TIP4 H2   HW0      0.679100        1.0080           
    3580 A    7904 TIP4 BD1  LP0     -1.358200        0.0000           
    3581 A    7905 TIP4 O1   OW0      0.000000       15.9990           
    3582 A    7905 TIP4 H1   HW0      0.679100        1.0080           
    3583 A    7905 TIP4 H2   HW0      0.679100        1.0080           
    3584 A    7905 TIP4 BD1  LP0     -1.358200        0.0000           
    3585 A    7906 TIP4 O1   OW0      0.000000       15.9990           
    3586 A    7906 TIP4 H1   HW0      0.679100        1.0080           
    3587 A    7906 TIP4 H2   HW0      0.679100        1.0080           
    3588 A    7906 TIP4 BD1  LP0     -1.358200        0.0000           
    3589 A    7907 TIP4 O1   OW0      0.000000       15.9990           
    3590 A    7907 TIP4 H1   HW0      0.679100        1.0080           
    3591 A    7907 TIP4 H2   HW0      0.679100        1.0080           
    3592 A    7907 TIP4 BD1  LP0     -1.358200        0.0000           
    3593 A    7908 TIP4 O1   OW0      0.000000       15.9990           
    3594 A    7908 TIP4 H1   HW0      0.679100        1.0080           
    3595 A    7908 TIP4 H2   HW0      0.679100        1.0080           
    3596 A    7908 TIP4 BD1  LP0     -1.358200        0.0000           
    3597 A    7909 TIP4 O1   OW0      0.000000       15.9990           
    3598 A    7909 TIP4 H1   HW0      0.679100        1.0080           
    3599 A    7909 TIP4 H2   HW0      0.679100        1.0080           
    3600 A    7909 TIP4 BD1  LP0     -1.358200        0.0000           
    3601 A    7910 TIP4 O1   OW0      0.000000       15.9990           
    3602 A    7910 TIP4 H1   HW0      0.679100        1.0080           
    3603 A    7910 TIP4 H2   HW0      0.679100        1.0080           
    3604 A    7910 TIP4 BD1  LP0     -1.358200        0.0000           
    3605 A    7911 TIP4 O1   OW0      0.000000       15.9990           
    3606 A    7911 TIP4 H1   HW0      0.679100        1.0080           
    3607 A    7911 TIP4 H2   HW0      0.679100        1.0080           
    3608 A    7911 TIP4 BD1  LP0     -1.358200        0.0000           
    3609 A    7912 TIP4 O1   OW0      0.000000       15.9990           
    3610 A    7912 TIP4 H1   HW0      0.679100        1.0080           
    3611 A    7912 TIP4 H2   HW0      0.679100        1.0080           
    3612 A    7912 TIP4 BD1  LP0     -1.358200        0.0000           
    3613 A    7913 TIP4 O1   OW0      0.000000       15.9990           
    3614 A    7913 TIP4 H1   HW0      0.679100        1.0080           
    3615 A    7913 TIP4 H2   HW0      0.679100        1.0080           
    3616 A    7913 TIP4 BD1  LP0     -1.358200        0.0000           
    3617 A    7914 TIP4 O1   OW0      0.000000       15.9990           
    3618 A    7914 TIP4 H1   HW0      0.679100        1.0080           
    3619 A    7914 TIP4 H2   HW0      0.679100        1.0080           
    3620 A    7914 TIP4 BD1  LP0     -1.358200        0.0000           
    3621 A    7915 TIP4 O1   OW0      0.000000       15.9990           
    3622 A    7915 TIP4 H1   HW0      0.679100        1.0080           
    3623 A    7915 TIP4 H2   HW0      0.679100        1.0080           
    3624 A    7915 TIP4 BD1  LP0     -1.358200        0.0000           
    3625 A    7916 TIP4 O1   OW0      0.000000       15.9990           
    3626 A    7916 TIP4 H1   HW0      0.679100        1.0080           
    3627 A    7916 TIP4 H2   HW0      0.679100        1.0080           
    3628 A    7916 TIP4 BD1  LP0     -1.358200        0.0000           
    3629 A    7917 TIP4 O1   OW0      0.000000       15.9990           
    3630 A    7917 TIP4 H1   HW0      0.679100        1.0080           
    3631 A    7917 TIP4 H2   HW0      0.679100        1.0080           
    3632 A    7917 TIP4 BD1  LP0     -1.358200        0.0000           
    3633 A    7918 TIP4 O1   OW0      0.000000       15.9990           
    3634 A    7918 TIP4 H1   HW0      0.679100        1.0080           
    3635 A    7918 TIP4 H2   HW0      0.679100        1.0080           
    3636 A    7918 TIP4 BD1  LP0     -1.358200        0.0000           
    3637 A    7919 TIP4 O1   OW0      0.000000       15.9990           
    3638 A    7919 TIP4 H1   HW0      0.679100        1.0080           
    3639 A    7919 TIP4 H2   HW0      0.679100        1.0080           
    3640 A    7919 TIP4 BD1  LP0     -1.358200        0.0000           
    3641 A    7920 TIP4 O1   OW0      0.000000       15.9990           
    3642 A    7920 TIP4 H1   HW0      0.679100        1.0080           
    3643 A    7920 TIP4 H2   HW0      0.679100        1.0080           
    3644 A    7920 TIP4 BD1  LP0     -1.358200        0.0000           
    3645 A    7921 TIP4 O1   OW0      0.000000       15.9990           
    3646 A    7921 TIP4 H1   HW0      0.679100        1.0080           
    3647 A    7921 TIP4 H2   HW0      0.679100        1.0080           
    3648 A    7921 TIP4 BD1  LP0     -1.358200        0.0000           
    3649 A    7922 TIP4 O1   OW0      0.000000       15.9990           
    3650 A    7922 TIP4 H1   HW0      0.679100        1.0080           
    3651 A    7922 TIP4 H2   HW0      0.679100        1.0080           
    3652 A    7922 TIP4 BD1  LP0     -1.358200        0.0000           
    3653 A    7923 TIP4 O1   OW0      0.000000       15.9990           
    3654 A    7923 TIP4 H1   HW0      0.679100        1.0080           
    3655 A    7923 TIP4 H2   HW0      0.679100        1.0080           
    3656 A    7923 TIP4 BD1  LP0     -1.358200        0.0000           
    3657 A    7924 TIP4 O1   OW0      0.000000       15.9990           
    3658 A    7924 TIP4 H1   HW0      0.679100        1.0080           
    3659 A    7924 TIP4 H2   HW0      0.679100        1.0080           
    3660 A    7924 TIP4 BD1  LP0     -1.358200        0.0000           
    3661 A    7925 TIP4 O1   OW0      0.000000       15.9990           
    3662 A    7925 TIP4 H1   HW0      0.679100        1.0080           
    3663 A    7925 TIP4 H2   HW0      0.679100        1.0080           
    3664 A    7925 TIP4 BD1  LP0     -1.358200        0.0000           
    3665 A    7926 TIP4 O1   OW0      0.000000       15.9990           
    3666 A    7926 TIP4 H1   HW0      0.679100        1.0080           
    3667 A    7926 TIP4 H2   HW0      0.679100        1.0080           
    3668 A    7926 TIP4 BD1  LP0     -1.358200        0.0000           
    3669 A    7927 TIP4 O1   OW0      0.000000       15.9990           
    3670 A    7927 TIP4 H1   HW0      0.679100        1.0080           
    3671 A    7927 TIP4 H2   HW0      0.679100        1.0080           
    3672 A    7927 TIP4 BD1  LP0     -1.358200        0.0000           
    3673 A    7928 TIP4 O1   OW0      0.000000       15.9990           
    3674 A    7928 TIP4 H1   HW0      0.679100        1.0080           
    3675 A    7928 TIP4 H2   HW0      0.679100        1.0080           
    3676 A    7928 TIP4 BD1  LP0     -1.358200        0.0000           
    3677 A    7929 TIP4 O1   OW0      0.000000       15.9990           
    3678 A    7929 TIP4 H1   HW0      0.679100        1.0080           
    3679 A    7929 TIP4 H2   HW0      0.679100        1.0080           
    3680 A    7929 TIP4 BD1  LP0     -1.358200        0.0000           
    3681 A    7930 TIP4 O1   OW0      0.000000       15.9990           
    3682 A    7930 TIP4 H1   HW0      0.679100        1.0080           
    3683 A    7930 TIP4 H2   HW0      0.679100        1.0080           
    3684 A    7930 TIP4 BD1  LP0     -1.358200        0.0000           
    3685 A    7931 TIP4 O1   OW0      0.000000       15.9990           
    3686 A    7931 TIP4 H1   HW0      0.679100        1.0080           
    3687 A    7931 TIP4 H2   HW0      0.679100        1.0080           
    3688 A    7931 TIP4 BD1  LP0     -1.358200        0.0000           
    3689 A    7932 TIP4 O1   OW0      0.000000       15.9990           
    3690 A    7932 TIP4 H1   HW0      0.679100        1.0080           
    3691 A    7932 TIP4 H2   HW0      0.679100        1.0080           
    3692 A    7932 TIP4 BD1  LP0     -1.358200        0.0000           
    3693 A    7933 TIP4 O1   OW0      0.000000       15.9990           
    3694 A    7933 TIP4 H1   HW0      0.679100        1.0080           
    3695 A    7933 TIP4 H2   HW0      0.679100        1.0080           
    3696 A    7933 TIP4 BD1  LP0     -1.358200        0.0000           
    3697 A    7934 TIP4 O1   OW0      0.000000       15.9990           
    3698 A    7934 TIP4 H1   HW0      0.679100        1.0080           
    3699 A    7934 TIP4 H2   HW0      0.679100        1.0080           
    3700 A    7934 TIP4 BD1  LP0     -1.358200        0.0000           
    3701 A    7935 TIP4 O1   OW0      0.000000       15.9990           
    3702 A    7935 TIP4 H1   HW0      0.679100        1.0080           
    3703 A    7935 TIP4 H2   HW0      0.679100        1.0080           
    3704 A    7935 TIP4 BD1  LP0     -1.358200        0.0000           
    3705 A    7936 TIP4 O1   OW0      0.000000       15.9990           
    3706 A    7936 TIP4 H1   HW0      0.679100        1.0080           
    3707 A    7936 TIP4 H2   HW0      0.679100        1.0080           
    3708 A    7936 TIP4 BD1  LP0     -1.358200        0.0000           
    3709 A    7937 TIP4 O1   OW0      0.000000       15.9990           
    3710 A    7937 TIP4 H1   HW0      0.679100        1.0080           
    3711 A    7937 TIP4 H2   HW0      0.679100        1.0080           
    3712 A    7937 TIP4 BD1  LP0     -1.358200        0.0000           
    3713 A    7938 TIP4 O1   OW0      0.000000       15.9990           
    3714 A    7938 TIP4 H1   HW0      0.679100        1.0080           
    3715 A    7938 TIP4 H2   HW0      0.679100        1.0080           
    3716 A    7938 TIP4 BD1  LP0     -1.358200        0.0000           
    3717 A    7939 TIP4 O1   OW0      0.000000       15.9990           
    3718 A    7939 TIP4 H1   HW0      0.679100        1.0080           
    3719 A    7939 TIP4 H2   HW0      0.679100        1.0080           
    3720 A    7939 TIP4 BD1  LP0     -1.358200        0.0000           
    3721 A    7940 TIP4 O1   OW0      0.000000       15.9990           
    3722 A    7940 TIP4 H1   HW0      0.679100        1.0080           
    3723 A    7940 TIP4 H2   HW0      0.679100        1.0080           
    3724 A    7940 TIP4 BD1  LP0     -1.358200        0.0000           
    3725 A    7941 TIP4 O1   OW0      0.000000       15.9990           
    3726 A    7941 TIP4 H1   HW0      0.679100        1.0080           
    3727 A    7941 TIP4 H2   HW0      0.679100        1.0080           
    3728 A    7941 TIP4 BD1  LP0     -1.358200        0.0000           
    3729 A    7942 TIP4 O1   OW0      0.000000       15.9990           
    3730 A    7942 TIP4 H1   HW0      0.679100        1.0080           
    3731 A    7942 TIP4 H2   HW0      0.679100        1.0080           
    3732 A    7942 TIP4 BD1  LP0     -1.358200        0.0000           
    3733 A    7943 TIP4 O1   OW0      0.000000       15.9990           
    3734 A    7943 TIP4 H1   HW0      0.679100        1.0080           
    3735 A    7943 TIP4 H2   HW0      0.679100        1.0080           
    3736 A    7943 TIP4 BD1  LP0     -1.358200        0.0000           
    3737 A    7944 TIP4 O1   OW0      0.000000       15.9990           
    3738 A    7944 TIP4 H1   HW0      0.679100        1.0080           
    3739 A    7944 TIP4 H2   HW0      0.679100        1.0080           
    3740 A    7944 TIP4 BD1  LP0     -1.358200        0.0000           
    3741 A    7945 TIP4 O1   OW0      0.000000       15.9990           
    3742 A    7945 TIP4 H1   HW0      0.679100        1.0080           
    3743 A    7945 TIP4 H2   HW0      0.679100        1.0080           
    3744 A    7945 TIP4 BD1  LP0     -1.358200        0.0000           
    3745 A    7946 TIP4 O1   OW0      0.000000       15.9990           
    3746 A    7946 TIP4 H1   HW0      0.679100        1.0080           
    3747 A    7946 TIP4 H2   HW0      0.679100        1.0080           
    3748 A    7946 TIP4 BD1  LP0     -1.358200        0.0000           
    3749 A    7947 TIP4 O1   OW0      0.000000       15.9990           
    3750 A    7947 TIP4 H1   HW0      0.679100        1.0080           
    3751 A    7947 TIP4 H2   HW0      0.679100        1.0080           
    3752 A    7947 TIP4 BD1  LP0     -1.358200        0.0000           
    3753 A    7948 TIP4 O1   OW0      0.000000       15.9990           
    3754 A    7948 TIP4 H1   HW0      0.679100        1.0080           
    3755 A    7948 TIP4 H2   HW0      0.679100        1.0080           
    3756 A    7948 TIP4 BD1  LP0     -1.358200        0.0000           
    3757 A    7949 TIP4 O1   OW0      0.000000       15.9990           
    3758 A    7949 TIP4 H1   HW0      0.679100        1.0080           
    3759 A    7949 TIP4 H2   HW0      0.679100        1.0080           
    3760 A    7949 TIP4 BD1  LP0     -1.358200        0.0000           
    3761 A    7950 TIP4 O1   OW0      0.000000       15.9990           
    3762 A    7950 TIP4 H1   HW0      0.679100        1.0080           
    3763 A    7950 TIP4 H2   HW0      0.679100        1.0080           
    3764 A    7950 TIP4 BD1  LP0     -1.358200        0.0000           
    3765 A    7951 TIP4 O1   OW0      0.000000       15.9990           
    3766 A    7951 TIP4 H1   HW0      0.679100        1.0080           
    3767 A    7951 TIP4 H2   HW0      0.679100        1.0080           
    3768 A    7951 TIP4 BD1  LP0     -1.358200        0.0000           
    3769 A    7952 TIP4 O1   OW0      0.000000       15.9990           
    3770 A    7952 TIP4 H1   HW0      0.679100        1.0080           
    3771 A    7952 TIP4 H2   HW0      0.679100        1.0080           
    3772 A    7952 TIP4 BD1  LP0     -1.358200        0.0000           
    3773 A    7953 TIP4 O1   OW0      0.000000       15.9990           
    3774 A    7953 TIP4 H1   HW0      0.679100        1.0080           
    3775 A    7953 TIP4 H2   HW0      0.679100        1.0080           
    3776 A    7953 TIP4 BD1  LP0     -1.358200        0.0000           
    3777 A    7954 TIP4 O1   OW0      0.000000       15.9990           
    3778 A    7954 TIP4 H1   HW0      0.679100        1.0080           
    3779 A    7954 TIP4 H2   HW0      0.679100        1.0080           
    3780 A    7954 TIP4 BD1  LP0     -1.358200        0.0000           
    3781 A    7955 TIP4 O1   OW0      0.000000       15.9990           
    3782 A    7955 TIP4 H1   HW0      0.679100        1.0080           
    3783 A    7955 TIP4 H2   HW0      0.679100        1.0080           
    3784 A    7955 TIP4 BD1  LP0     -1.358200        0.0000           
    3785 A    7956 TIP4 O1   OW0      0.000000       15.9990           
    3786 A    7956 TIP4 H1   HW0      0.679100        1.0080           
    3787 A    7956 TIP4 H2   HW0      0.679100        1.0080           
    3788 A    7956 TIP4 BD1  LP0     -1.358200        0.0000           
    3789 A    7957 TIP4 O1   OW0      0.000000       15.9990           
    3790 A    7957 TIP4 H1   HW0      0.679100        1.0080           
    3791 A    7957 TIP4 H2   HW0      0.679100        1.0080           
    3792 A    7957 TIP4 BD1  LP0     -1.358200        0.0000           
    3793 A    7958 TIP4 O1   OW0      0.000000       15.9990           
    3794 A    7958 TIP4 H1   HW0      0.679100        1.0080           
    3795 A    7958 TIP4 H2   HW0      0.679100        1.0080           
    3796 A    7958 TIP4 BD1  LP0     -1.358200        0.0000           
    3797 A    7959 TIP4 O1   OW0      0.000000       15.9990           
    3798 A    7959 TIP4 H1   HW0      0.679100        1.0080           
    3799 A    7959 TIP4 H2   HW0      0.679100        1.0080           
    3800 A    7959 TIP4 BD1  LP0     -1.358200        0.0000           
    3801 A    7960 TIP4 O1   OW0      0.000000       15.9990           
    3802 A    7960 TIP4 H1   HW0      0.679100        1.0080           
    3803 A    7960 TIP4 H2   HW0      0.679100        1.0080           
    3804 A    7960 TIP4 BD1  LP0     -1.358200        0.0000           
    3805 A    7961 TIP4 O1   OW0      0.000000       15.9990           
    3806 A    7961 TIP4 H1   HW0      0.679100        1.0080           
    3807 A    7961 TIP4 H2   HW0      0.679100        1.0080           
    3808 A    7961 TIP4 BD1  LP0     -1.358200        0.0000           
    3809 A    7962 TIP4 O1   OW0      0.000000       15.9990           
    3810 A    7962 TIP4 H1   HW0      0.679100        1.0080           
    3811 A    7962 TIP4 H2   HW0      0.679100        1.0080           
    3812 A    7962 TIP4 BD1  LP0     -1.358200        0.0000           
    3813 A    7963 TIP4 O1   OW0      0.000000       15.9990           
    3814 A    7963 TIP4 H1   HW0      0.679100        1.0080           
    3815 A    7963 TIP4 H2   HW0      0.679100        1.0080           
    3816 A    7963 TIP4 BD1  LP0     -1.358200        0.0000           
    3817 A    7964 TIP4 O1   OW0      0.000000       15.9990           
    3818 A    7964 TIP4 H1   HW0      0.679100        1.0080           
    3819 A    7964 TIP4 H2   HW0      0.679100        1.0080           
    3820 A    7964 TIP4 BD1  LP0     -1.358200        0.0000           
    3821 A    7965 TIP4 O1   OW0      0.000000       15.9990           
    3822 A    7965 TIP4 H1   HW0      0.679100        1.0080           
    3823 A    7965 TIP4 H2   HW0      0.679100        1.0080           
    3824 A    7965 TIP4 BD1  LP0     -1.358200        0.0000           
    3825 A    7966 TIP4 O1   OW0      0.000000       15.9990           
    3826 A    7966 TIP4 H1   HW0      0.679100        1.0080           
    3827 A    7966 TIP4 H2   HW0      0.679100        1.0080           
    3828 A    7966 TIP4 BD1  LP0     -1.358200        0.0000           
    3829 A    7967 TIP4 O1   OW0      0.000000       15.9990           
    3830 A    7967 TIP4 H1   HW0      0.679100        1.0080           
    3831 A    7967 TIP4 H2   HW0      0.679100        1.0080           
    3832 A    7967 TIP4 BD1  LP0     -1.358200        0.0000           
    3833 A    7968 TIP4 O1   OW0      0.000000       15.9990           
    3834 A    7968 TIP4 H1   HW0      0.679100        1.0080           
    3835 A    7968 TIP4 H2   HW0      0.679100        1.0080           
    3836 A    7968 TIP4 BD1  LP0     -1.358200        0.0000           
    3837 A    7969 TIP4 O1   OW0      0.000000       15.9990           
    3838 A    7969 TIP4 H1   HW0      0.679100        1.0080           
    3839 A    7969 TIP4 H2   HW0      0.679100        1.0080           
    3840 A    7969 TIP4 BD1  LP0     -1.358200        0.0000           
    3841 A    7970 TIP4 O1   OW0      0.000000       15.9990           
    3842 A    7970 TIP4 H1   HW0      0.679100        1.0080           
    3843 A    7970 TIP4 H2   HW0      0.679100        1.0080           
    3844 A    7970 TIP4 BD1  LP0     -1.358200        0.0000           
    3845 A    7971 TIP4 O1   OW0      0.000000       15.9990           
    3846 A    7971 TIP4 H1   HW0      0.679100        1.0080           
    3847 A    7971 TIP4 H2   HW0      0.679100        1.0080           
    3848 A    7971 TIP4 BD1  LP0     -1.358200        0.0000           
    3849 A    7972 TIP4 O1   OW0      0.000000       15.9990           
    3850 A    7972 TIP4 H1   HW0      0.679100        1.0080           
    3851 A    7972 TIP4 H2   HW0      0.679100        1.0080           
    3852 A    7972 TIP4 BD1  LP0     -1.358200        0.0000           
    3853 A    7973 TIP4 O1   OW0      0.000000       15.9990           
    3854 A    7973 TIP4 H1   HW0      0.679100        1.0080           
    3855 A    7973 TIP4 H2   HW0      0.679100        1.0080           
    3856 A    7973 TIP4 BD1  LP0     -1.358200        0.0000           
    3857 A    7974 TIP4 O1   OW0      0.000000       15.9990           
    3858 A    7974 TIP4 H1   HW0      0.679100        1.0080           
    3859 A    7974 TIP4 H2   HW0      0.679100        1.0080           
    3860 A    7974 TIP4 BD1  LP0     -1.358200        0.0000           
    3861 A    7975 TIP4 O1   OW0      0.000000       15.9990           
    3862 A    7975 TIP4 H1   HW0      0.679100        1.0080           
    3863 A    7975 TIP4 H2   HW0      0.679100        1.0080           
    3864 A    7975 TIP4 BD1  LP0     -1.358200        0.0000           
    3865 A    7976 TIP4 O1   OW0      0.000000       15.9990           
    3866 A    7976 TIP4 H1   HW0      0.679100        1.0080           
    3867 A    7976 TIP4 H2   HW0      0.679100        1.0080           
    3868 A    7976 TIP4 BD1  LP0     -1.358200        0.0000           
    3869 A    7977 TIP4 O1   OW0      0.000000       15.9990           
    3870 A    7977 TIP4 H1   HW0      0.679100        1.0080           
    3871 A    7977 TIP4 H2   HW0      0.679100        1.0080           
    3872 A    7977 TIP4 BD1  LP0     -1.358200        0.0000           
    3873 A    7978 TIP4 O1   OW0      0.000000       15.9990           
    3874 A    7978 TIP4 H1   HW0      0.679100        1.0080           
    3875 A    7978 TIP4 H2   HW0      0.679100        1.0080           
    3876 A    7978 TIP4 BD1  LP0     -1.358200        0.0000           
    3877 A    7979 TIP4 O1   OW0      0.000000       15.9990           
    3878 A    7979 TIP4 H1   HW0      0.679100        1.0080           
    3879 A    7979 TIP4 H2   HW0      0.679100        1.0080           
    3880 A    7979 TIP4 BD1  LP0     -1.358200        0.0000           
    3881 A    7980 TIP4 O1   OW0      0.000000       15.9990           
    3882 A    7980 TIP4 H1   HW0      0.679100        1.0080           
    3883 A    7980 TIP4 H2   HW0      0.679100        1.0080           
    3884 A    7980 TIP4 BD1  LP0     -1.358200        0.0000           
    3885 A    7981 TIP4 O1   OW0      0.000000       15.9990           
    3886 A    7981 TIP4 H1   HW0      0.679100        1.0080           
    3887 A    7981 TIP4 H2   HW0      0.679100        1.0080           
    3888 A    7981 TIP4 BD1  LP0     -1.358200        0.0000           
    3889 A    7982 TIP4 O1   OW0      0.000000       15.9990           
    3890 A    7982 TIP4 H1   HW0      0.679100        1.0080           
    3891 A    7982 TIP4 H2   HW0      0.679100        1.0080           
    3892 A    7982 TIP4 BD1  LP0     -1.358200        0.0000           
    3893 A    7983 TIP4 O1   OW0      0.000000       15.9990           
    3894 A    7983 TIP4 H1   HW0      0.679100        1.0080           
    3895 A    7983 TIP4 H2   HW0      0.679100        1.0080           
    3896 A    7983 TIP4 BD1  LP0     -1.358200        0.0000           
    3897 A    7984 TIP4 O1   OW0      0.000000       15.9990           
    3898 A    7984 TIP4 H1   HW0      0.679100        1.0080           
    3899 A    7984 TIP4 H2   HW0      0.679100        1.0080           
    3900 A    7984 TIP4 BD1  LP0     -1.358200        0.0000           
    3901 A    7985 TIP4 O1   OW0      0.000000       15.9990           
    3902 A    7985 TIP4 H1   HW0      0.679100        1.0080           
    3903 A    7985 TIP4 H2   HW0      0.679100        1.0080           
    3904 A    7985 TIP4 BD1  LP0     -1.358200        0.0000           
    3905 A    7986 TIP4 O1   OW0      0.000000       15.9990           
    3906 A    7986 TIP4 H1   HW0      0.679100        1.0080           
    3907 A    7986 TIP4 H2   HW0      0.679100        1.0080           
    3908 A    7986 TIP4 BD1  LP0     -1.358200        0.0000           
    3909 A    7987 TIP4 O1   OW0      0.000000       15.9990           
    3910 A    7987 TIP4 H1   HW0      0.679100        1.0080           
    3911 A    7987 TIP4 H2   HW0      0.679100        1.0080           
    3912 A    7987 TIP4 BD1  LP0     -1.358200        0.0000           
    3913 A    7988 TIP4 O1   OW0      0.000000       15.9990           
    3914 A    7988 TIP4 H1   HW0      0.679100        1.0080           
    3915 A    7988 TIP4 H2   HW0      0.679100        1.0080           
    3916 A    7988 TIP4 BD1  LP0     -1.358200        0.0000           
    3917 A    7989 TIP4 O1   OW0      0.000000       15.9990           
    3918 A    7989 TIP4 H1   HW0      0.679100        1.0080           
    3919 A    7989 TIP4 H2   HW0      0.679100        1.0080           
    3920 A    7989 TIP4 BD1  LP0     -1.358200        0.0000           
    3921 A    7990 TIP4 O1   OW0      0.000000       15.9990           
    3922 A    7990 TIP4 H1   HW0      0.679100        1.0080           
    3923 A    7990 TIP4 H2   HW0      0.679100        1.0080           
    3924 A    7990 TIP4 BD1  LP0     -1.358200        0.0000           
    3925 A    7991 TIP4 O1   OW0      0.000000       15.9990           
    3926 A    7991 TIP4 H1   HW0      0.679100        1.0080           
    3927 A    7991 TIP4 H2   HW0      0.679100        1.0080           
    3928 A    7991 TIP4 BD1  LP0     -1.358200        0.0000           
    3929 A    7992 TIP4 O1   OW0      0.000000       15.9990           
    3930 A    7992 TIP4 H1   HW0      0.679100        1.0080           
    3931 A    7992 TIP4 H2   HW0      0.679100        1.0080           
    3932 A    7992 TIP4 BD1  LP0     -1.358200        0.0000           
    3933 A    7993 TIP4 O1   OW0      0.000000       15.9990           
    3934 A    7993 TIP4 H1   HW0      0.679100        1.0080           
    3935 A    7993 TIP4 H2   HW0      0.679100        1.0080           
    3936 A    7993 TIP4 BD1  LP0     -1.358200        0.0000           
    3937 A    7994 TIP4 O1   OW0      0.000000       15.9990           
    3938 A    7994 TIP4 H1   HW0      0.679100        1.0080           
    3939 A    7994 TIP4 H2   HW0      0.679100        1.0080           
    3940 A    7994 TIP4 BD1  LP0     -1.358200        0.0000           
    3941 A    7995 TIP4 O1   OW0      0.000000       15.9990           
    3942 A    7995 TIP4 H1   HW0      0.679100        1.0080           
    3943 A    7995 TIP4 H2   HW0      0.679100        1.0080           
    3944 A    7995 TIP4 BD1  LP0     -1.358200        0.0000           
    3945 A    7996 TIP4 O1   OW0      0.000000       15.9990           
    3946 A    7996 TIP4 H1   HW0      0.679100        1.0080           
    3947 A    7996 TIP4 H2   HW0      0.679100        1.0080           
    3948 A    7996 TIP4 BD1  LP0     -1.358200        0.0000           
    3949 A    7997 TIP4 O1   OW0      0.000000       15.9990           
    3950 A    7997 TIP4 H1   HW0      0.679100        1.0080           
    3951 A    7997 TIP4 H2   HW0      0.679100        1.0080           
    3952 A    7997 TIP4 BD1  LP0     -1.358200        0.0000           
    3953 A    7998 TIP4 O1   OW0      0.000000       15.9990           
    3954 A    7998 TIP4 H1   HW0      0.679100        1.0080           
    3955 A    7998 TIP4 H2   HW0      0.679100        1.0080           
    3956 A    7998 TIP4 BD1  LP0     -1.358200        0.0000           
    3957 A    7999 TIP4 O1   OW0      0.000000       15.9990           
    3958 A    7999 TIP4 H1   HW0      0.679100        1.0080           
    3959 A    7999 TIP4 H2   HW0      0.679100        1.0080           
    3960 A    7999 TIP4 BD1  LP0     -1.358200        0.0000           
    3961 A    8000 TIP4 O1   OW0      0.000000       15.9990           
    3962 A    8000 TIP4 H1   HW0      0.679100        1.0080           
    3963 A    8000 TIP4 H2   HW0      0.679100        1.0080           
    3964 A    8000 TIP4 BD1  LP0     -1.358200        0.0000           
    3965 A    8001 TIP4 O1   OW0      0.000000       15.9990           
    3966 A    8001 TIP4 H1   HW0      0.679100        1.0080           
    3967 A    8001 TIP4 H2   HW0      0.679100        1.0080           
    3968 A    8001 TIP4 BD1  LP0     -1.358200        0.0000           
    3969 A    8002 TIP4 O1   OW0      0.000000       15.9990           
    3970 A    8002 TIP4 H1   HW0      0.679100        1.0080           
    3971 A    8002 TIP4 H2   HW0      0.679100        1.0080           
    3972 A    8002 TIP4 BD1  LP0     -1.358200        0.0000           
    3973 A    8003 TIP4 O1   OW0      0.000000       15.9990           
    3974 A    8003 TIP4 H1   HW0      0.679100        1.0080           
    3975 A    8003 TIP4 H2   HW0      0.679100        1.0080           
    3976 A    8003 TIP4 BD1  LP0     -1.358200        0.0000           
    3977 A    8004 TIP4 O1   OW0      0.000000       15.9990           
    3978 A    8004 TIP4 H1   HW0      0.679100        1.0080           
    3979 A    8004 TIP4 H2   HW0      0.679100        1.0080           
    3980 A    8004 TIP4 BD1  LP0     -1.358200        0.0000           
    3981 A    8005 TIP4 O1   OW0      0.000000       15.9990           
    3982 A    8005 TIP4 H1   HW0      0.679100        1.0080           
    3983 A    8005 TIP4 H2   HW0      0.679100        1.0080           
    3984 A    8005 TIP4 BD1  LP0     -1.358200        0.0000           
    3985 A    8006 TIP4 O1   OW0      0.000000       15.9990           
    3986 A    8006 TIP4 H1   HW0      0.679100        1.0080           
    3987 A    8006 TIP4 H2   HW0      0.679100        1.0080           
    3988 A    8006 TIP4 BD1  LP0     -1.358200        0.0000           
    3989 A    8007 TIP4 O1   OW0      0.000000       15.9990           
    3990 A    8007 TIP4 H1   HW0      0.679100        1.0080           
    3991 A    8007 TIP4 H2   HW0      0.679100        1.0080           
    3992 A    8007 TIP4 BD1  LP0     -1.358200        0.0000           
    3993 A    8008 TIP4 O1   OW0      0.000000       15.9990           
    3994 A    8008 TIP4 H1   HW0      0.679100        1.0080           
    3995 A    8008 TIP4 H2   HW0      0.679100        1.0080           
    3996 A    8008 TIP4 BD1  LP0     -1.358200        0.0000           
    3997 A    8009 TIP4 O1   OW0      0.000000       15.9990           
    3998 A    8009 TIP4 H1   HW0      0.679100        1.0080           
    3999 A    8009 TIP4 H2   HW0      0.679100        1.0080           
    4000 A    8009 TIP4 BD1  LP0     -1.358200        0.0000           
    4001 A    8010 TIP4 O1   OW0      0.000000       15.9990           
    4002 A    8010 TIP4 H1   HW0      0.679100        1.0080           
    4003 A    8010 TIP4 H2   HW0      0.679100        1.0080           
    4004 A    8010 TIP4 BD1  LP0     -1.358200        0.0000           
    4005 A    8011 TIP4 O1   OW0      0.000000       15.9990           
    4006 A    8011 TIP4 H1   HW0      0.679100        1.0080           
    4007 A    8011 TIP4 H2   HW0      0.679100        1.0080           
    4008 A    8011 TIP4 BD1  LP0     -1.358200        0.0000           
    4009 A    8012 TIP4 O1   OW0      0.000000       15.9990           
    4010 A    8012 TIP4 H1   HW0      0.679100        1.0080           
    4011 A    8012 TIP4 H2   HW0      0.679100        1.0080           
    4012 A    8012 TIP4 BD1  LP0     -1.358200        0.0000           
    4013 A    8013 TIP4 O1   OW0      0.000000       15.9990           
    4014 A    8013 TIP4 H1   HW0      0.679100        1.0080           
    4015 A    8013 TIP4 H2   HW0      0.679100        1.0080           
    4016 A    8013 TIP4 BD1  LP0     -1.358200        0.0000           
    4017 A    8014 TIP4 O1   OW0      0.000000       15.9990           
    4018 A    8014 TIP4 H1   HW0      0.679100        1.0080           
    4019 A    8014 TIP4 H2   HW0      0.679100        1.0080           
    4020 A    8014 TIP4 BD1  LP0     -1.358200        0.0000           
    4021 A    8015 TIP4 O1   OW0      0.000000       15.9990           
    4022 A    8015 TIP4 H1   HW0      0.679100        1.0080           
    4023 A    8015 TIP4 H2   HW0      0.679100        1.0080           
    4024 A    8015 TIP4 BD1  LP0     -1.358200        0.0000           
    4025 A    8016 TIP4 O1   OW0      0.000000       15.9990           
    4026 A    8016 TIP4 H1   HW0      0.679100        1.0080           
    4027 A    8016 TIP4 H2   HW0      0.679100        1.0080           
    4028 A    8016 TIP4 BD1  LP0     -1.358200        0.0000           
    4029 A    8017 TIP4 O1   OW0      0.000000       15.9990           
    4030 A    8017 TIP4 H1   HW0      0.679100        1.0080           
    4031 A    8017 TIP4 H2   HW0      0.679100        1.0080           
    4032 A    8017 TIP4 BD1  LP0     -1.358200        0.0000           
    4033 A    8018 TIP4 O1   OW0      0.000000       15.9990           
    4034 A    8018 TIP4 H1   HW0      0.679100        1.0080           
    4035 A    8018 TIP4 H2   HW0      0.679100        1.0080           
    4036 A    8018 TIP4 BD1  LP0     -1.358200        0.0000           
    4037 A    8019 TIP4 O1   OW0      0.000000       15.9990           
    4038 A    8019 TIP4 H1   HW0      0.679100        1.0080           
    4039 A    8019 TIP4 H2   HW0      0.679100        1.0080           
    4040 A    8019 TIP4 BD1  LP0     -1.358200        0.0000           
    4041 A    8020 TIP4 O1   OW0      0.000000       15.9990           
    4042 A    8020 TIP4 H1   HW0      0.679100        1.0080           
    4043 A    8020 TIP4 H2   HW0      0.679100        1.0080           
    4044 A    8020 TIP4 BD1  LP0     -1.358200        0.0000           
    4045 A    8021 TIP4 O1   OW0      0.000000       15.9990           
    4046 A    8021 TIP4 H1   HW0      0.679100        1.0080           
    4047 A    8021 TIP4 H2   HW0      0.679100        1.0080           
    4048 A    8021 TIP4 BD1  LP0     -1.358200        0.0000           
    4049 A    8022 TIP4 O1   OW0      0.000000       15.9990           
    4050 A    8022 TIP4 H1   HW0      0.679100        1.0080           
    4051 A    8022 TIP4 H2   HW0      0.679100        1.0080           
    4052 A    8022 TIP4 BD1  LP0     -1.358200        0.0000           
    4053 A    8023 TIP4 O1   OW0      0.000000       15.9990           
    4054 A    8023 TIP4 H1   HW0      0.679100        1.0080           
    4055 A    8023 TIP4 H2   HW0      0.679100        1.0080           
    4056 A    8023 TIP4 BD1  LP0     -1.358200        0.0000           
    4057 A    8024 TIP4 O1   OW0      0.000000       15.9990           
    4058 A    8024 TIP4 H1   HW0      0.679100        1.0080           
    4059 A    8024 TIP4 H2   HW0      0.679100        1.0080           
    4060 A    8024 TIP4 BD1  LP0     -1.358200        0.0000           
    4061 A    8025 TIP4 O1   OW0      0.000000       15.9990           
    4062 A    8025 TIP4 H1   HW0      0.679100        1.0080           
    4063 A    8025 TIP4 H2   HW0      0.679100        1.0080           
    4064 A    8025 TIP4 BD1  LP0     -1.358200        0.0000           
    4065 A    8026 TIP4 O1   OW0      0.000000       15.9990           
    4066 A    8026 TIP4 H1   HW0      0.679100        1.0080           
    4067 A    8026 TIP4 H2   HW0      0.679100        1.0080           
    4068 A    8026 TIP4 BD1  LP0     -1.358200        0.0000           
    4069 A    8027 TIP4 O1   OW0      0.000000       15.9990           
    4070 A    8027 TIP4 H1   HW0      0.679100        1.0080           
    4071 A    8027 TIP4 H2   HW0      0.679100        1.0080           
    4072 A    8027 TIP4 BD1  LP0     -1.358200        0.0000           
    4073 A    8028 TIP4 O1   OW0      0.000000       15.9990           
    4074 A    8028 TIP4 H1   HW0      0.679100        1.0080           
    4075 A    8028 TIP4 H2   HW0      0.679100        1.0080           
    4076 A    8028 TIP4 BD1  LP0     -1.358200        0.0000           
    4077 A    8029 TIP4 O1   OW0      0.000000       15.9990           
    4078 A    8029 TIP4 H1   HW0      0.679100        1.0080           
    4079 A    8029 TIP4 H2   HW0      0.679100        1.0080           
    4080 A    8029 TIP4 BD1  LP0     -1.358200        0.0000           
    4081 A    8030 TIP4 O1   OW0      0.000000       15.9990           
    4082 A    8030 TIP4 H1   HW0      0.679100        1.0080           
    4083 A    8030 TIP4 H2   HW0      0.679100        1.0080           
    4084 A    8030 TIP4 BD1  LP0     -1.358200        0.0000           
    4085 A    8031 TIP4 O1   OW0      0.000000       15.9990           
    4086 A    8031 TIP4 H1   HW0      0.679100        1.0080           
    4087 A    8031 TIP4 H2   HW0      0.679100        1.0080           
    4088 A    8031 TIP4 BD1  LP0     -1.358200        0.0000           
    4089 A    8032 TIP4 O1   OW0      0.000000       15.9990           
    4090 A    8032 TIP4 H1   HW0      0.679100        1.0080           
    4091 A    8032 TIP4 H2   HW0      0.679100        1.0080           
    4092 A    8032 TIP4 BD1  LP0     -1.358200        0.0000           
    4093 A    8033 TIP4 O1   OW0      0.000000       15.9990           
    4094 A    8033 TIP4 H1   HW0      0.679100        1.0080           
    4095 A    8033 TIP4 H2   HW0      0.679100        1.0080           
    4096 A    8033 TIP4 BD1  LP0     -1.358200        0.0000           
    4097 A    8034 TIP4 O1   OW0      0.000000       15.9990           
    4098 A    8034 TIP4 H1   HW0      0.679100        1.0080           
    4099 A    8034 TIP4 H2   HW0      0.679100        1.0080           
    4100 A    8034 TIP4 BD1  LP0     -1.358200        0.0000           
    4101 A    8035 TIP4 O1   OW0      0.000000       15.9990           
    4102 A    8035 TIP4 H1   HW0      0.679100        1.0080           
    4103 A    8035 TIP4 H2   HW0      0.679100        1.0080           
    4104 A    8035 TIP4 BD1  LP0     -1.358200        0.0000           
    4105 A    8036 TIP4 O1   OW0      0.000000       15.9990           
    4106 A    8036 TIP4 H1   HW0      0.679100        1.0080           
    4107 A    8036 TIP4 H2   HW0      0.679100        1.0080           
    4108 A    8036 TIP4 BD1  LP0     -1.358200        0.0000           
    4109 A    8037 TIP4 O1   OW0      0.000000       15.9990           
    4110 A    8037 TIP4 H1   HW0      0.679100        1.0080           
    4111 A    8037 TIP4 H2   HW0      0.679100        1.0080           
    4112 A    8037 TIP4 BD1  LP0     -1.358200        0.0000           
    4113 A    8038 TIP4 O1   OW0      0.000000       15.9990           
    4114 A    8038 TIP4 H1   HW0      0.679100        1.0080           
    4115 A    8038 TIP4 H2   HW0      0.679100        1.0080           
    4116 A    8038 TIP4 BD1  LP0     -1.358200        0.0000           
    4117 A    8039 TIP4 O1   OW0      0.000000       15.9990           
    4118 A    8039 TIP4 H1   HW0      0.679100        1.0080           
    4119 A    8039 TIP4 H2   HW0      0.679100        1.0080           
    4120 A    8039 TIP4 BD1  LP0     -1.358200        0.0000           
    4121 A    8040 TIP4 O1   OW0      0.000000       15.9990           
    4122 A    8040 TIP4 H1   HW0      0.679100        1.0080           
    4123 A    8040 TIP4 H2   HW0      0.679100        1.0080           
    4124 A    8040 TIP4 BD1  LP0     -1.358200        0.0000           
    4125 A    8041 TIP4 O1   OW0      0.000000       15.9990           
    4126 A    8041 TIP4 H1   HW0      0.679100        1.0080           
    4127 A    8041 TIP4 H2   HW0      0.679100        1.0080           
    4128 A    8041 TIP4 BD1  LP0     -1.358200        0.0000           
    4129 A    8042 TIP4 O1   OW0      0.000000       15.9990           
    4130 A    8042 TIP4 H1   HW0      0.679100        1.0080           
    4131 A    8042 TIP4 H2   HW0      0.679100        1.0080           
    4132 A    8042 TIP4 BD1  LP0     -1.358200        0.0000           
    4133 A    8043 TIP4 O1   OW0      0.000000       15.9990           
    4134 A    8043 TIP4 H1   HW0      0.679100        1.0080           
    4135 A    8043 TIP4 H2   HW0      0.679100        1.0080           
    4136 A    8043 TIP4 BD1  LP0     -1.358200        0.0000           
    4137 A    8044 TIP4 O1   OW0      0.000000       15.9990           
    4138 A    8044 TIP4 H1   HW0      0.679100        1.0080           
    4139 A    8044 TIP4 H2   HW0      0.679100        1.0080           
    4140 A    8044 TIP4 BD1  LP0     -1.358200        0.0000           
    4141 A    8045 TIP4 O1   OW0      0.000000       15.9990           
    4142 A    8045 TIP4 H1   HW0      0.679100        1.0080           
    4143 A    8045 TIP4 H2   HW0      0.679100        1.0080           
    4144 A    8045 TIP4 BD1  LP0     -1.358200        0.0000           
    4145 A    8046 TIP4 O1   OW0      0.000000       15.9990           
    4146 A    8046 TIP4 H1   HW0      0.679100        1.0080           
    4147 A    8046 TIP4 H2   HW0      0.679100        1.0080           
    4148 A    8046 TIP4 BD1  LP0     -1.358200        0.0000           
    4149 A    8047 TIP4 O1   OW0      0.000000       15.9990           
    4150 A    8047 TIP4 H1   HW0      0.679100        1.0080           
    4151 A    8047 TIP4 H2   HW0      0.679100        1.0080           
    4152 A    8047 TIP4 BD1  LP0     -1.358200        0.0000           
    4153 A    8048 TIP4 O1   OW0      0.000000       15.9990           
    4154 A    8048 TIP4 H1   HW0      0.679100        1.0080           
    4155 A    8048 TIP4 H2   HW0      0.679100        1.0080           
    4156 A    8048 TIP4 BD1  LP0     -1.358200        0.0000           
    4157 A    8049 TIP4 O1   OW0      0.000000       15.9990           
    4158 A    8049 TIP4 H1   HW0      0.679100        1.0080           
    4159 A    8049 TIP4 H2   HW0      0.679100        1.0080           
    4160 A    8049 TIP4 BD1  LP0     -1.358200        0.0000           
    4161 A    8050 TIP4 O1   OW0      0.000000       15.9990           
    4162 A    8050 TIP4 H1   HW0      0.679100        1.0080           
    4163 A    8050 TIP4 H2   HW0      0.679100        1.0080           
    4164 A    8050 TIP4 BD1  LP0     -1.358200        0.0000           
    4165 A    8051 TIP4 O1   OW0      0.000000       15.9990           
    4166 A    8051 TIP4 H1   HW0      0.679100        1.0080           
    4167 A    8051 TIP4 H2   HW0      0.679100        1.0080           
    4168 A    8051 TIP4 BD1  LP0     -1.358200        0.0000           
    4169 A    8052 TIP4 O1   OW0      0.000000       15.9990           
    4170 A    8052 TIP4 H1   HW0      0.679100        1.0080           
    4171 A    8052 TIP4 H2   HW0      0.679100        1.0080           
    4172 A    8052 TIP4 BD1  LP0     -1.358200        0.0000           
    4173 A    8053 TIP4 O1   OW0      0.000000       15.9990           
    4174 A    8053 TIP4 H1   HW0      0.679100        1.0080           
    4175 A    8053 TIP4 H2   HW0      0.679100        1.0080           
    4176 A    8053 TIP4 BD1  LP0     -1.358200        0.0000           
    4177 A    8054 TIP4 O1   OW0      0.000000       15.9990           
    4178 A    8054 TIP4 H1   HW0      0.679100        1.0080           
    4179 A    8054 TIP4 H2   HW0      0.679100        1.0080           
    4180 A    8054 TIP4 BD1  LP0     -1.358200        0.0000           
    4181 A    8055 TIP4 O1   OW0      0.000000       15.9990           
    4182 A    8055 TIP4 H1   HW0      0.679100        1.0080           
    4183 A    8055 TIP4 H2   HW0      0.679100        1.0080           
    4184 A    8055 TIP4 BD1  LP0     -1.358200        0.0000           
    4185 A    8056 TIP4 O1   OW0      0.000000       15.9990           
    4186 A    8056 TIP4 H1   HW0      0.679100        1.0080           
    4187 A    8056 TIP4 H2   HW0      0.679100        1.0080           
    4188 A    8056 TIP4 BD1  LP0     -1.358200        0.0000           
    4189 A    8057 TIP4 O1   OW0      0.000000       15.9990           
    4190 A    8057 TIP4 H1   HW0      0.679100        1.0080           
    4191 A    8057 TIP4 H2   HW0      0.679100        1.0080           
    4192 A    8057 TIP4 BD1  LP0     -1.358200        0.0000           
    4193 A    8058 TIP4 O1   OW0      0.000000       15.9990           
    4194 A    8058 TIP4 H1   HW0      0.679100        1.0080           
    4195 A    8058 TIP4 H2   HW0      0.679100        1.0080           
    4196 A    8058 TIP4 BD1  LP0     -1.358200        0.0000           
    4197 A    8059 TIP4 O1   OW0      0.000000       15.9990           
    4198 A    8059 TIP4 H1   HW0      0.679100        1.0080           
    4199 A    8059 TIP4 H2   HW0      0.679100        1.0080           
    4200 A    8059 TIP4 BD1  LP0     -1.358200        0.0000           
    4201 A    8060 TIP4 O1   OW0      0.000000       15.9990           
    4202 A    8060 TIP4 H1   HW0      0.679100        1.0080           
    4203 A    8060 TIP4 H2   HW0      0.679100        1.0080           
    4204 A    8060 TIP4 BD1  LP0     -1.358200        0.0000           
    4205 A    8061 TIP4 O1   OW0      0.000000       15.9990           
    4206 A    8061 TIP4 H1   HW0      0.679100        1.0080           
    4207 A    8061 TIP4 H2   HW0      0.679100        1.0080           
    4208 A    8061 TIP4 BD1  LP0     -1.358200        0.0000           
    4209 A    8062 TIP4 O1   OW0      0.000000       15.9990           
    4210 A    8062 TIP4 H1   HW0      0.679100        1.0080           
    4211 A    8062 TIP4 H2   HW0      0.679100        1.0080           
    4212 A    8062 TIP4 BD1  LP0     -1.358200        0.0000           
    4213 A    8063 TIP4 O1   OW0      0.000000       15.9990           
    4214 A    8063 TIP4 H1   HW0      0.679100        1.0080           
    4215 A    8063 TIP4 H2   HW0      0.679100        1.0080           
    4216 A    8063 TIP4 BD1  LP0     -1.358200        0.0000           
    4217 A    8064 TIP4 O1   OW0      0.000000       15.9990           
    4218 A    8064 TIP4 H1   HW0      0.679100        1.0080           
    4219 A    8064 TIP4 H2   HW0      0.679100        1.0080           
    4220 A    8064 TIP4 BD1  LP0     -1.358200        0.0000           
    4221 A    8065 TIP4 O1   OW0      0.000000       15.9990           
    4222 A    8065 TIP4 H1   HW0      0.679100        1.0080           
    4223 A    8065 TIP4 H2   HW0      0.679100        1.0080           
    4224 A    8065 TIP4 BD1  LP0     -1.358200        0.0000           
    4225 A    8066 TIP4 O1   OW0      0.000000       15.9990           
    4226 A    8066 TIP4 H1   HW0      0.679100        1.0080           
    4227 A    8066 TIP4 H2   HW0      0.679100        1.0080           
    4228 A    8066 TIP4 BD1  LP0     -1.358200        0.0000           
    4229 A    8067 TIP4 O1   OW0      0.000000       15.9990           
    4230 A    8067 TIP4 H1   HW0      0.679100        1.0080           
    4231 A    8067 TIP4 H2   HW0      0.679100        1.0080           
    4232 A    8067 TIP4 BD1  LP0     -1.358200        0.0000           
    4233 A    8068 TIP4 O1   OW0      0.000000       15.9990           
    4234 A    8068 TIP4 H1   HW0      0.679100        1.0080           
    4235 A    8068 TIP4 H2   HW0      0.679100        1.0080           
    4236 A    8068 TIP4 BD1  LP0     -1.358200        0.0000           
    4237 A    8069 TIP4 O1   OW0      0.000000       15.9990           
    4238 A    8069 TIP4 H1   HW0      0.679100        1.0080           
    4239 A    8069 TIP4 H2   HW0      0.679100        1.0080           
    4240 A    8069 TIP4 BD1  LP0     -1.358200        0.0000           
    4241 A    8070 TIP4 O1   OW0      0.000000       15.9990           
    4242 A    8070 TIP4 H1   HW0      0.679100        1.0080           
    4243 A    8070 TIP4 H2   HW0      0.679100        1.0080           
    4244 A    8070 TIP4 BD1  LP0     -1.358200        0.0000           
    4245 A    8071 TIP4 O1   OW0      0.000000       15.9990           
    4246 A    8071 TIP4 H1   HW0      0.679100        1.0080           
    4247 A    8071 TIP4 H2   HW0      0.679100        1.0080           
    4248 A    8071 TIP4 BD1  LP0     -1.358200        0.0000           
    4249 A    8072 TIP4 O1   OW0      0.000000       15.9990           
    4250 A    8072 TIP4 H1   HW0      0.679100        1.0080           
    4251 A    8072 TIP4 H2   HW0      0.679100        1.0080           
    4252 A    8072 TIP4 BD1  LP0     -1.358200        0.0000           
    4253 A    8073 TIP4 O1   OW0      0.000000       15.9990           
    4254 A    8073 TIP4 H1   HW0      0.679100        1.0080           
    4255 A    8073 TIP4 H2   HW0      0.679100        1.0080           
    4256 A    8073 TIP4 BD1  LP0     -1.358200        0.0000           
    4257 A    8074 TIP4 O1   OW0      0.000000       15.9990           
    4258 A    8074 TIP4 H1   HW0      0.679100        1.0080           
    4259 A    8074 TIP4 H2   HW0      0.679100        1.0080           
    4260 A    8074 TIP4 BD1  LP0     -1.358200        0.0000           
    4261 A    8075 TIP4 O1   OW0      0.000000       15.9990           
    4262 A    8075 TIP4 H1   HW0      0.679100        1.0080           
    4263 A    8075 TIP4 H2   HW0      0.679100        1.0080           
    4264 A    8075 TIP4 BD1  LP0     -1.358200        0.0000           
    4265 A    8076 TIP4 O1   OW0      0.000000       15.9990           
    4266 A    8076 TIP4 H1   HW0      0.679100        1.0080           
    4267 A    8076 TIP4 H2   HW0      0.679100        1.0080           
    4268 A    8076 TIP4 BD1  LP0     -1.358200        0.0000           
    4269 A    8077 TIP4 O1   OW0      0.000000       15.9990           
    4270 A    8077 TIP4 H1   HW0      0.679100        1.0080           
    4271 A    8077 TIP4 H2   HW0      0.679100        1.0080           
    4272 A    8077 TIP4 BD1  LP0     -1.358200        0.0000           
    4273 A    8078 TIP4 O1   OW0      0.000000       15.9990           
    4274 A    8078 TIP4 H1   HW0      0.679100        1.0080           
    4275 A    8078 TIP4 H2   HW0      0.679100        1.0080           
    4276 A    8078 TIP4 BD1  LP0     -1.358200        0.0000           
    4277 A    8079 TIP4 O1   OW0      0.000000       15.9990           
    4278 A    8079 TIP4 H1   HW0      0.679100        1.0080           
    4279 A    8079 TIP4 H2   HW0      0.679100        1.0080           
    4280 A    8079 TIP4 BD1  LP0     -1.358200        0.0000           
    4281 A    8080 TIP4 O1   OW0      0.000000       15.9990           
    4282 A    8080 TIP4 H1   HW0      0.679100        1.0080           
    4283 A    8080 TIP4 H2   HW0      0.679100        1.0080           
    4284 A    8080 TIP4 BD1  LP0     -1.358200        0.0000           
    4285 A    8081 TIP4 O1   OW0      0.000000       15.9990           
    4286 A    8081 TIP4 H1   HW0      0.679100        1.0080           
    4287 A    8081 TIP4 H2   HW0      0.679100        1.0080           
    4288 A    8081 TIP4 BD1  LP0     -1.358200        0.0000           
    4289 A    8082 TIP4 O1   OW0      0.000000       15.9990           
    4290 A    8082 TIP4 H1   HW0      0.679100        1.0080           
    4291 A    8082 TIP4 H2   HW0      0.679100        1.0080           
    4292 A    8082 TIP4 BD1  LP0     -1.358200        0.0000           
    4293 A    8083 TIP4 O1   OW0      0.000000       15.9990           
    4294 A    8083 TIP4 H1   HW0      0.679100        1.0080           
    4295 A    8083 TIP4 H2   HW0      0.679100        1.0080           
    4296 A    8083 TIP4 BD1  LP0     -1.358200        0.0000           
    4297 A    8084 TIP4 O1   OW0      0.000000       15.9990           
    4298 A    8084 TIP4 H1   HW0      0.679100        1.0080           
    4299 A    8084 TIP4 H2   HW0      0.679100        1.0080           
    4300 A    8084 TIP4 BD1  LP0     -1.358200        0.0000           
    4301 A    8085 TIP4 O1   OW0      0.000000       15.9990           
    4302 A    8085 TIP4 H1   HW0      0.679100        1.0080           
    4303 A    8085 TIP4 H2   HW0      0.679100        1.0080           
    4304 A    8085 TIP4 BD1  LP0     -1.358200        0.0000           
    4305 A    8086 TIP4 O1   OW0      0.000000       15.9990           
    4306 A    8086 TIP4 H1   HW0      0.679100        1.0080           
    4307 A    8086 TIP4 H2   HW0      0.679100        1.0080           
    4308 A    8086 TIP4 BD1  LP0     -1.358200        0.0000           
    4309 A    8087 TIP4 O1   OW0      0.000000       15.9990           
    4310 A    8087 TIP4 H1   HW0      0.679100        1.0080           
    4311 A    8087 TIP4 H2   HW0      0.679100        1.0080           
    4312 A    8087 TIP4 BD1  LP0     -1.358200        0.0000           
    4313 A    8088 TIP4 O1   OW0      0.000000       15.9990           
    4314 A    8088 TIP4 H1   HW0      0.679100        1.0080           
    4315 A    8088 TIP4 H2   HW0      0.679100        1.0080           
    4316 A    8088 TIP4 BD1  LP0     -1.358200        0.0000           
    4317 A    8089 TIP4 O1   OW0      0.000000       15.9990           
    4318 A    8089 TIP4 H1   HW0      0.679100        1.0080           
    4319 A    8089 TIP4 H2   HW0      0.679100        1.0080           
    4320 A    8089 TIP4 BD1  LP0     -1.358200        0.0000           
    4321 A    8090 TIP4 O1   OW0      0.000000       15.9990           
    4322 A    8090 TIP4 H1   HW0      0.679100        1.0080           
    4323 A    8090 TIP4 H2   HW0      0.679100        1.0080           
    4324 A    8090 TIP4 BD1  LP0     -1.358200        0.0000           
    4325 A    8091 TIP4 O1   OW0      0.000000       15.9990           
    4326 A    8091 TIP4 H1   HW0      0.679100        1.0080           
    4327 A    8091 TIP4 H2   HW0      0.679100        1.0080           
    4328 A    8091 TIP4 BD1  LP0     -1.358200        0.0000           
    4329 A    8092 TIP4 O1   OW0      0.000000       15.9990           
    4330 A    8092 TIP4 H1   HW0      0.679100        1.0080           
    4331 A    8092 TIP4 H2   HW0      0.679100        1.0080           
    4332 A    8092 TIP4 BD1  LP0     -1.358200        0.0000           
    4333 A    8093 TIP4 O1   OW0      0.000000       15.9990           
    4334 A    8093 TIP4 H1   HW0      0.679100        1.0080           
    4335 A    8093 TIP4 H2   HW0      0.679100        1.0080           
    4336 A    8093 TIP4 BD1  LP0     -1.358200        0.0000           
    4337 A    8094 TIP4 O1   OW0      0.000000       15.9990           
    4338 A    8094 TIP4 H1   HW0      0.679100        1.0080           
    4339 A    8094 TIP4 H2   HW0      0.679100        1.0080           
    4340 A    8094 TIP4 BD1  LP0     -1.358200        0.0000           
    4341 A    8095 TIP4 O1   OW0      0.000000       15.9990           
    4342 A    8095 TIP4 H1   HW0      0.679100        1.0080           
    4343 A    8095 TIP4 H2   HW0      0.679100        1.0080           
    4344 A    8095 TIP4 BD1  LP0     -1.358200        0.0000           
    4345 A    8096 TIP4 O1   OW0      0.000000       15.9990           
    4346 A    8096 TIP4 H1   HW0      0.679100        1.0080           
    4347 A    8096 TIP4 H2   HW0      0.679100        1.0080           
    4348 A    8096 TIP4 BD1  LP0     -1.358200        0.0000           
    4349 A    8097 TIP4 O1   OW0      0.000000       15.9990           
    4350 A    8097 TIP4 H1   HW0      0.679100        1.0080           
    4351 A    8097 TIP4 H2   HW0      0.679100        1.0080           
    4352 A    8097 TIP4 BD1  LP0     -1.358200        0.0000           
    4353 A    8098 TIP4 O1   OW0      0.000000       15.9990           
    4354 A    8098 TIP4 H1   HW0      0.679100        1.0080           
    4355 A    8098 TIP4 H2   HW0      0.679100        1.0080           
    4356 A    8098 TIP4 BD1  LP0     -1.358200        0.0000           
    4357 A    8099 TIP4 O1   OW0      0.000000       15.9990           
    4358 A    8099 TIP4 H1   HW0      0.679100        1.0080           
    4359 A    8099 TIP4 H2   HW0      0.679100        1.0080           
    4360 A    8099 TIP4 BD1  LP0     -1.358200        0.0000           
    4361 A    8100 TIP4 O1   OW0      0.000000       15.9990           
    4362 A    8100 TIP4 H1   HW0      0.679100        1.0080           
    4363 A    8100 TIP4 H2   HW0      0.679100        1.0080           
    4364 A    8100 TIP4 BD1  LP0     -1.358200        0.0000           
    4365 A    8101 TIP4 O1   OW0      0.000000       15.9990           
    4366 A    8101 TIP4 H1   HW0      0.679100        1.0080           
    4367 A    8101 TIP4 H2   HW0      0.679100        1.0080           
    4368 A    8101 TIP4 BD1  LP0     -1.358200        0.0000           
    4369 A    8102 TIP4 O1   OW0      0.000000       15.9990           
    4370 A    8102 TIP4 H1   HW0      0.679100        1.0080           
    4371 A    8102 TIP4 H2   HW0      0.679100        1.0080           
    4372 A    8102 TIP4 BD1  LP0     -1.358200        0.0000           
    4373 A    8103 TIP4 O1   OW0      0.000000       15.9990           
    4374 A    8103 TIP4 H1   HW0      0.679100        1.0080           
    4375 A    8103 TIP4 H2   HW0      0.679100        1.0080           
    4376 A    8103 TIP4 BD1  LP0     -1.358200        0.0000           
    4377 A    8104 TIP4 O1   OW0      0.000000       15.9990           
    4378 A    8104 TIP4 H1   HW0      0.679100        1.0080           
    4379 A    8104 TIP4 H2   HW0      0.679100        1.0080           
    4380 A    8104 TIP4 BD1  LP0     -1.358200        0.0000           
    4381 A    8105 TIP4 O1   OW0      0.000000       15.9990           
    4382 A    8105 TIP4 H1   HW0      0.679100        1.0080           
    4383 A    8105 TIP4 H2   HW0      0.679100        1.0080           
    4384 A    8105 TIP4 BD1  LP0     -1.358200        0.0000           
    4385 A    8106 TIP4 O1   OW0      0.000000       15.9990           
    4386 A    8106 TIP4 H1   HW0      0.679100        1.0080           
    4387 A    8106 TIP4 H2   HW0      0.679100        1.0080           
    4388 A    8106 TIP4 BD1  LP0     -1.358200        0.0000           
    4389 A    8107 TIP4 O1   OW0      0.000000       15.9990           
    4390 A    8107 TIP4 H1   HW0      0.679100        1.0080           
    4391 A    8107 TIP4 H2   HW0      0.679100        1.0080           
    4392 A    8107 TIP4 BD1  LP0     -1.358200        0.0000           
    4393 A    8108 TIP4 O1   OW0      0.000000       15.9990           
    4394 A    8108 TIP4 H1   HW0      0.679100        1.0080           
    4395 A    8108 TIP4 H2   HW0      0.679100        1.0080           
    4396 A    8108 TIP4 BD1  LP0     -1.358200        0.0000           
    4397 A    8109 TIP4 O1   OW0      0.000000       15.9990           
    4398 A    8109 TIP4 H1   HW0      0.679100        1.0080           
    4399 A    8109 TIP4 H2   HW0      0.679100        1.0080           
    4400 A    8109 TIP4 BD1  LP0     -1.358200        0.0000           
    4401 A    8110 TIP4 O1   OW0      0.000000       15.9990           
    4402 A    8110 TIP4 H1   HW0      0.679100        1.0080           
    4403 A    8110 TIP4 H2   HW0      0.679100        1.0080           
    4404 A    8110 TIP4 BD1  LP0     -1.358200        0.0000           
    4405 A    8111 TIP4 O1   OW0      0.000000       15.9990           
    4406 A    8111 TIP4 H1   HW0      0.679100        1.0080           
    4407 A    8111 TIP4 H2   HW0      0.679100        1.0080           
    4408 A    8111 TIP4 BD1  LP0     -1.358200        0.0000           
    4409 A    8112 TIP4 O1   OW0      0.000000       15.9990           
    4410 A    8112 TIP4 H1   HW0      0.679100        1.0080           
    4411 A    8112 TIP4 H2   HW0      0.679100        1.0080           
    4412 A    8112 TIP4 BD1  LP0     -1.358200        0.0000           
    4413 A    8113 TIP4 O1   OW0      0.000000       15.9990           
    4414 A    8113 TIP4 H1   HW0      0.679100        1.0080           
    4415 A    8113 TIP4 H2   HW0      0.679100        1.0080           
    4416 A    8113 TIP4 BD1  LP0     -1.358200        0.0000           
    4417 A    8114 TIP4 O1   OW0      0.000000       15.9990           
    4418 A    8114 TIP4 H1   HW0      0.679100        1.0080           
    4419 A    8114 TIP4 H2   HW0      0.679100        1.0080           
    4420 A    8114 TIP4 BD1  LP0     -1.358200        0.0000           
    4421 A    8115 TIP4 O1   OW0      0.000000       15.9990           
    4422 A    8115 TIP4 H1   HW0      0.679100        1.0080           
    4423 A    8115 TIP4 H2   HW0      0.679100        1.0080           
    4424 A    8115 TIP4 BD1  LP0     -1.358200        0.0000           
    4425 A    8116 TIP4 O1   OW0      0.000000       15.9990           
    4426 A    8116 TIP4 H1   HW0      0.679100        1.0080           
    4427 A    8116 TIP4 H2   HW0      0.679100        1.0080           
    4428 A    8116 TIP4 BD1  LP0     -1.358200        0.0000           
    4429 A    8117 TIP4 O1   OW0      0.000000       15.9990           
    4430 A    8117 TIP4 H1   HW0      0.679100        1.0080           
    4431 A    8117 TIP4 H2   HW0      0.679100        1.0080           
    4432 A    8117 TIP4 BD1  LP0     -1.358200        0.0000           
    4433 A    8118 TIP4 O1   OW0      0.000000       15.9990           
    4434 A    8118 TIP4 H1   HW0      0.679100        1.0080           
    4435 A    8118 TIP4 H2   HW0      0.679100        1.0080           
    4436 A    8118 TIP4 BD1  LP0     -1.358200        0.0000           
    4437 A    8119 TIP4 O1   OW0      0.000000       15.9990           
    4438 A    8119 TIP4 H1   HW0      0.679100        1.0080           
    4439 A    8119 TIP4 H2   HW0      0.679100        1.0080           
    4440 A    8119 TIP4 BD1  LP0     -1.358200        0.0000           
    4441 A    8120 TIP4 O1   OW0      0.000000       15.9990           
    4442 A    8120 TIP4 H1   HW0      0.679100        1.0080           
    4443 A    8120 TIP4 H2   HW0      0.679100        1.0080           
    4444 A    8120 TIP4 BD1  LP0     -1.358200        0.0000           
    4445 A    8121 TIP4 O1   OW0      0.000000       15.9990           
    4446 A    8121 TIP4 H1   HW0      0.679100        1.0080           
    4447 A    8121 TIP4 H2   HW0      0.679100        1.0080           
    4448 A    8121 TIP4 BD1  LP0     -1.358200        0.0000           
    4449 A    8122 TIP4 O1   OW0      0.000000       15.9990           
    4450 A    8122 TIP4 H1   HW0      0.679100        1.0080           
    4451 A    8122 TIP4 H2   HW0      0.679100        1.0080           
    4452 A    8122 TIP4 BD1  LP0     -1.358200        0.0000           
    4453 A    8123 TIP4 O1   OW0      0.000000       15.9990           
    4454 A    8123 TIP4 H1   HW0      0.679100        1.0080           
    4455 A    8123 TIP4 H2   HW0      0.679100        1.0080           
    4456 A    8123 TIP4 BD1  LP0     -1.358200        0.0000           
    4457 A    8124 TIP4 O1   OW0      0.000000       15.9990           
    4458 A    8124 TIP4 H1   HW0      0.679100        1.0080           
    4459 A    8124 TIP4 H2   HW0      0.679100        1.0080           
    4460 A    8124 TIP4 BD1  LP0     -1.358200        0.0000           
    4461 A    8125 TIP4 O1   OW0      0.000000       15.9990           
    4462 A    8125 TIP4 H1   HW0      0.679100        1.0080           
    4463 A    8125 TIP4 H2   HW0      0.679100        1.0080           
    4464 A    8125 TIP4 BD1  LP0     -1.358200        0.0000           
    4465 A    8126 TIP4 O1   OW0      0.000000       15.9990           
    4466 A    8126 TIP4 H1   HW0      0.679100        1.0080           
    4467 A    8126 TIP4 H2   HW0      0.679100        1.0080           
    4468 A    8126 TIP4 BD1  LP0     -1.358200        0.0000           
    4469 A    8127 TIP4 O1   OW0      0.000000       15.9990           
    4470 A    8127 TIP4 H1   HW0      0.679100        1.0080           
    4471 A    8127 TIP4 H2   HW0      0.679100        1.0080           
    4472 A    8127 TIP4 BD1  LP0     -1.358200        0.0000           
    4473 A    8128 TIP4 O1   OW0      0.000000       15.9990           
    4474 A    8128 TIP4 H1   HW0      0.679100        1.0080           
    4475 A    8128 TIP4 H2   HW0      0.679100        1.0080           
    4476 A    8128 TIP4 BD1  LP0     -1.358200        0.0000           
    4477 A    8129 TIP4 O1   OW0      0.000000       15.9990           
    4478 A    8129 TIP4 H1   HW0      0.679100        1.0080           
    4479 A    8129 TIP4 H2   HW0      0.679100        1.0080           
    4480 A    8129 TIP4 BD1  LP0     -1.358200        0.0000           
    4481 A    8130 TIP4 O1   OW0      0.000000       15.9990           
    4482 A    8130 TIP4 H1   HW0      0.679100        1.0080           
    4483 A    8130 TIP4 H2   HW0      0.679100        1.0080           
    4484 A    8130 TIP4 BD1  LP0     -1.358200        0.0000           
    4485 A    8131 TIP4 O1   OW0      0.000000       15.9990           
    4486 A    8131 TIP4 H1   HW0      0.679100        1.0080           
    4487 A    8131 TIP4 H2   HW0      0.679100        1.0080           
    4488 A    8131 TIP4 BD1  LP0     -1.358200        0.0000           
    4489 A    8132 TIP4 O1   OW0      0.000000       15.9990           
    4490 A    8132 TIP4 H1   HW0      0.679100        1.0080           
    4491 A    8132 TIP4 H2   HW0      0.679100        1.0080           
    4492 A    8132 TIP4 BD1  LP0     -1.358200        0.0000           
    4493 A    8133 TIP4 O1   OW0      0.000000       15.9990           
    4494 A    8133 TIP4 H1   HW0      0.679100        1.0080           
    4495 A    8133 TIP4 H2   HW0      0.679100        1.0080           
    4496 A    8133 TIP4 BD1  LP0     -1.358200        0.0000           
    4497 A    8134 TIP4 O1   OW0      0.000000       15.9990           
    4498 A    8134 TIP4 H1   HW0      0.679100        1.0080           
    4499 A    8134 TIP4 H2   HW0      0.679100        1.0080           
    4500 A    8134 TIP4 BD1  LP0     -1.358200        0.0000           
    4501 A    8135 TIP4 O1   OW0      0.000000       15.9990           
    4502 A    8135 TIP4 H1   HW0      0.679100        1.0080           
    4503 A    8135 TIP4 H2   HW0      0.679100        1.0080           
    4504 A    8135 TIP4 BD1  LP0     -1.358200        0.0000           
    4505 A    8136 TIP4 O1   OW0      0.000000       15.9990           
    4506 A    8136 TIP4 H1   HW0      0.679100        1.0080           
    4507 A    8136 TIP4 H2   HW0      0.679100        1.0080           
    4508 A    8136 TIP4 BD1  LP0     -1.358200        0.0000           
    4509 A    8137 TIP4 O1   OW0      0.000000       15.9990           
    4510 A    8137 TIP4 H1   HW0      0.679100        1.0080           
    4511 A    8137 TIP4 H2   HW0      0.679100        1.0080           
    4512 A    8137 TIP4 BD1  LP0     -1.358200        0.0000           
    4513 A    8138 TIP4 O1   OW0      0.000000       15.9990           
    4514 A    8138 TIP4 H1   HW0      0.679100        1.0080           
    4515 A    8138 TIP4 H2   HW0      0.679100        1.0080           
    4516 A    8138 TIP4 BD1  LP0     -1.358200        0.0000           
    4517 A    8139 TIP4 O1   OW0      0.000000       15.9990           
    4518 A    8139 TIP4 H1   HW0      0.679100        1.0080           
    4519 A    8139 TIP4 H2   HW0      0.679100        1.0080           
    4520 A    8139 TIP4 BD1  LP0     -1.358200        0.0000           
    4521 A    8140 TIP4 O1   OW0      0.000000       15.9990           
    4522 A    8140 TIP4 H1   HW0      0.679100        1.0080           
    4523 A    8140 TIP4 H2   HW0      0.679100        1.0080           
    4524 A    8140 TIP4 BD1  LP0     -1.358200        0.0000           
    4525 A    8141 TIP4 O1   OW0      0.000000       15.9990           
    4526 A    8141 TIP4 H1   HW0      0.679100        1.0080           
    4527 A    8141 TIP4 H2   HW0      0.679100        1.0080           
    4528 A    8141 TIP4 BD1  LP0     -1.358200        0.0000           
    4529 A    8142 TIP4 O1   OW0      0.000000       15.9990           
    4530 A    8142 TIP4 H1   HW0      0.679100        1.0080           
    4531 A    8142 TIP4 H2   HW0      0.679100        1.0080           
    4532 A    8142 TIP4 BD1  LP0     -1.358200        0.0000           
    4533 A    8143 TIP4 O1   OW0      0.000000       15.9990           
    4534 A    8143 TIP4 H1   HW0      0.679100        1.0080           
    4535 A    8143 TIP4 H2   HW0      0.679100        1.0080           
    4536 A    8143 TIP4 BD1  LP0     -1.358200        0.0000           
    4537 A    8144 TIP4 O1   OW0      0.000000       15.9990           
    4538 A    8144 TIP4 H1   HW0      0.679100        1.0080           
    4539 A    8144 TIP4 H2   HW0      0.679100        1.0080           
    4540 A    8144 TIP4 BD1  LP0     -1.358200        0.0000           
    4541 A    8145 TIP4 O1   OW0      0.000000       15.9990           
    4542 A    8145 TIP4 H1   HW0      0.679100        1.0080           
    4543 A    8145 TIP4 H2   HW0      0.679100        1.0080           
    4544 A    8145 TIP4 BD1  LP0     -1.358200        0.0000           
    4545 A    8146 TIP4 O1   OW0      0.000000       15.9990           
    4546 A    8146 TIP4 H1   HW0      0.679100        1.0080           
    4547 A    8146 TIP4 H2   HW0      0.679100        1.0080           
    4548 A    8146 TIP4 BD1  LP0     -1.358200        0.0000           
    4549 A    8147 TIP4 O1   OW0      0.000000       15.9990           
    4550 A    8147 TIP4 H1   HW0      0.679100        1.0080           
    4551 A    8147 TIP4 H2   HW0      0.679100        1.0080           
    4552 A    8147 TIP4 BD1  LP0     -1.358200        0.0000           
    4553 A    8148 TIP4 O1   OW0      0.000000       15.9990           
    4554 A    8148 TIP4 H1   HW0      0.679100        1.0080           
    4555 A    8148 TIP4 H2   HW0      0.679100        1.0080           
    4556 A    8148 TIP4 BD1  LP0     -1.358200        0.0000           
    4557 A    8149 TIP4 O1   OW0      0.000000       15.9990           
    4558 A    8149 TIP4 H1   HW0      0.679100        1.0080           
    4559 A    8149 TIP4 H2   HW0      0.679100        1.0080           
    4560 A    8149 TIP4 BD1  LP0     -1.358200        0.0000           
    4561 A    8150 TIP4 O1   OW0      0.000000       15.9990           
    4562 A    8150 TIP4 H1   HW0      0.679100        1.0080           
    4563 A    8150 TIP4 H2   HW0      0.679100        1.0080           
    4564 A    8150 TIP4 BD1  LP0     -1.358200        0.0000           
    4565 A    8151 TIP4 O1   OW0      0.000000       15.9990           
    4566 A    8151 TIP4 H1   HW0      0.679100        1.0080           
    4567 A    8151 TIP4 H2   HW0      0.679100        1.0080           
    4568 A    8151 TIP4 BD1  LP0     -1.358200        0.0000           
    4569 A    8152 TIP4 O1   OW0      0.000000       15.9990           
    4570 A    8152 TIP4 H1   HW0      0.679100        1.0080           
    4571 A    8152 TIP4 H2   HW0      0.679100        1.0080           
    4572 A    8152 TIP4 BD1  LP0     -1.358200        0.0000           
    4573 A    8153 TIP4 O1   OW0      0.000000       15.9990           
    4574 A    8153 TIP4 H1   HW0      0.679100        1.0080           
    4575 A    8153 TIP4 H2   HW0      0.679100        1.0080           
    4576 A    8153 TIP4 BD1  LP0     -1.358200        0.0000           
    4577 A    8154 TIP4 O1   OW0      0.000000       15.9990           
    4578 A    8154 TIP4 H1   HW0      0.679100        1.0080           
    4579 A    8154 TIP4 H2   HW0      0.679100        1.0080           
    4580 A    8154 TIP4 BD1  LP0     -1.358200        0.0000           
    4581 A    8155 TIP4 O1   OW0      0.000000       15.9990           
    4582 A    8155 TIP4 H1   HW0      0.679100        1.0080           
    4583 A    8155 TIP4 H2   HW0      0.679100        1.0080           
    4584 A    8155 TIP4 BD1  LP0     -1.358200        0.0000           
    4585 A    8156 TIP4 O1   OW0      0.000000       15.9990           
    4586 A    8156 TIP4 H1   HW0      0.679100        1.0080           
    4587 A    8156 TIP4 H2   HW0      0.679100        1.0080           
    4588 A    8156 TIP4 BD1  LP0     -1.358200        0.0000           
    4589 A    8157 TIP4 O1   OW0      0.000000       15.9990           
    4590 A    8157 TIP4 H1   HW0      0.679100        1.0080           
    4591 A    8157 TIP4 H2   HW0      0.679100        1.0080           
    4592 A    8157 TIP4 BD1  LP0     -1.358200        0.0000           
    4593 A    8158 TIP4 O1   OW0      0.000000       15.9990           
    4594 A    8158 TIP4 H1   HW0      0.679100        1.0080           
    4595 A    8158 TIP4 H2   HW0      0.679100        1.0080           
    4596 A    8158 TIP4 BD1  LP0     -1.358200        0.0000           
    4597 A    8159 TIP4 O1   OW0      0.000000       15.9990           
    4598 A    8159 TIP4 H1   HW0      0.679100        1.0080           
    4599 A    8159 TIP4 H2   HW0      0.679100        1.0080           
    4600 A    8159 TIP4 BD1  LP0     -1.358200        0.0000           
    4601 A    8160 TIP4 O1   OW0      0.000000       15.9990           
    4602 A    8160 TIP4 H1   HW0      0.679100        1.0080           
    4603 A    8160 TIP4 H2   HW0      0.679100        1.0080           
    4604 A    8160 TIP4 BD1  LP0     -1.358200        0.0000           
    4605 A    8161 TIP4 O1   OW0      0.000000       15.9990           
    4606 A    8161 TIP4 H1   HW0      0.679100        1.0080           
    4607 A    8161 TIP4 H2   HW0      0.679100        1.0080           
    4608 A    8161 TIP4 BD1  LP0     -1.358200        0.0000           
    4609 A    8162 TIP4 O1   OW0      0.000000       15.9990           
    4610 A    8162 TIP4 H1   HW0      0.679100        1.0080           
    4611 A    8162 TIP4 H2   HW0      0.679100        1.0080           
    4612 A    8162 TIP4 BD1  LP0     -1.358200        0.0000           
    4613 A    8163 TIP4 O1   OW0      0.000000       15.9990           
    4614 A    8163 TIP4 H1   HW0      0.679100        1.0080           
    4615 A    8163 TIP4 H2   HW0      0.679100        1.0080           
    4616 A    8163 TIP4 BD1  LP0     -1.358200        0.0000           
    4617 A    8164 TIP4 O1   OW0      0.000000       15.9990           
    4618 A    8164 TIP4 H1   HW0      0.679100        1.0080           
    4619 A    8164 TIP4 H2   HW0      0.679100        1.0080           
    4620 A    8164 TIP4 BD1  LP0     -1.358200        0.0000           
    4621 A    8165 TIP4 O1   OW0      0.000000       15.9990           
    4622 A    8165 TIP4 H1   HW0      0.679100        1.0080           
    4623 A    8165 TIP4 H2   HW0      0.679100        1.0080           
    4624 A    8165 TIP4 BD1  LP0     -1.358200        0.0000           
    4625 A    8166 TIP4 O1   OW0      0.000000       15.9990           
    4626 A    8166 TIP4 H1   HW0      0.679100        1.0080           
    4627 A    8166 TIP4 H2   HW0      0.679100        1.0080           
    4628 A    8166 TIP4 BD1  LP0     -1.358200        0.0000           
    4629 A    8167 TIP4 O1   OW0      0.000000       15.9990           
    4630 A    8167 TIP4 H1   HW0      0.679100        1.0080           
    4631 A    8167 TIP4 H2   HW0      0.679100        1.0080           
    4632 A    8167 TIP4 BD1  LP0     -1.358200        0.0000           
    4633 A    8168 TIP4 O1   OW0      0.000000       15.9990           
    4634 A    8168 TIP4 H1   HW0      0.679100        1.0080           
    4635 A    8168 TIP4 H2   HW0      0.679100        1.0080           
    4636 A    8168 TIP4 BD1  LP0     -1.358200        0.0000           
    4637 A    8169 TIP4 O1   OW0      0.000000       15.9990           
    4638 A    8169 TIP4 H1   HW0      0.679100        1.0080           
    4639 A    8169 TIP4 H2   HW0      0.679100        1.0080           
    4640 A    8169 TIP4 BD1  LP0     -1.358200        0.0000           
    4641 A    8170 TIP4 O1   OW0      0.000000       15.9990           
    4642 A    8170 TIP4 H1   HW0      0.679100        1.0080           
    4643 A    8170 TIP4 H2   HW0      0.679100        1.0080           
    4644 A    8170 TIP4 BD1  LP0     -1.358200        0.0000           
    4645 A    8171 TIP4 O1   OW0      0.000000       15.9990           
    4646 A    8171 TIP4 H1   HW0      0.679100        1.0080           
    4647 A    8171 TIP4 H2   HW0      0.679100        1.0080           
    4648 A    8171 TIP4 BD1  LP0     -1.358200        0.0000           
    4649 A    8172 TIP4 O1   OW0      0.000000       15.9990           
    4650 A    8172 TIP4 H1   HW0      0.679100        1.0080           
    4651 A    8172 TIP4 H2   HW0      0.679100        1.0080           
    4652 A    8172 TIP4 BD1  LP0     -1.358200        0.0000           
    4653 A    8173 TIP4 O1   OW0      0.000000       15.9990           
    4654 A    8173 TIP4 H1   HW0      0.679100        1.0080           
    4655 A    8173 TIP4 H2   HW0      0.679100        1.0080           
    4656 A    8173 TIP4 BD1  LP0     -1.358200        0.0000           
    4657 A    8174 TIP4 O1   OW0      0.000000       15.9990           
    4658 A    8174 TIP4 H1   HW0      0.679100        1.0080           
    4659 A    8174 TIP4 H2   HW0      0.679100        1.0080           
    4660 A    8174 TIP4 BD1  LP0     -1.358200        0.0000           
    4661 A    8175 TIP4 O1   OW0      0.000000       15.9990           
    4662 A    8175 TIP4 H1   HW0      0.679100        1.0080           
    4663 A    8175 TIP4 H2   HW0      0.679100        1.0080           
    4664 A    8175 TIP4 BD1  LP0     -1.358200        0.0000           
    4665 A    8176 TIP4 O1   OW0      0.000000       15.9990           
    4666 A    8176 TIP4 H1   HW0      0.679100        1.0080           
    4667 A    8176 TIP4 H2   HW0      0.679100        1.0080           
    4668 A    8176 TIP4 BD1  LP0     -1.358200        0.0000           
    4669 A    8177 TIP4 O1   OW0      0.000000       15.9990           
    4670 A    8177 TIP4 H1   HW0      0.679100        1.0080           
    4671 A    8177 TIP4 H2   HW0      0.679100        1.0080           
    4672 A    8177 TIP4 BD1  LP0     -1.358200        0.0000           
    4673 A    8178 TIP4 O1   OW0      0.000000       15.9990           
    4674 A    8178 TIP4 H1   HW0      0.679100        1.0080           
    4675 A    8178 TIP4 H2   HW0      0.679100        1.0080           
    4676 A    8178 TIP4 BD1  LP0     -1.358200        0.0000           
    4677 A    8179 TIP4 O1   OW0      0.000000       15.9990           
    4678 A    8179 TIP4 H1   HW0      0.679100        1.0080           
    4679 A    8179 TIP4 H2   HW0      0.679100        1.0080           
    4680 A    8179 TIP4 BD1  LP0     -1.358200        0.0000           
    4681 A    8180 TIP4 O1   OW0      0.000000       15.9990           
    4682 A    8180 TIP4 H1   HW0      0.679100        1.0080           
    4683 A    8180 TIP4 H2   HW0      0.679100        1.0080           
    4684 A    8180 TIP4 BD1  LP0     -1.358200        0.0000           
    4685 A    8181 TIP4 O1   OW0      0.000000       15.9990           
    4686 A    8181 TIP4 H1   HW0      0.679100        1.0080           
    4687 A    8181 TIP4 H2   HW0      0.679100        1.0080           
    4688 A    8181 TIP4 BD1  LP0     -1.358200        0.0000           
    4689 A    8182 TIP4 O1   OW0      0.000000       15.9990           
    4690 A    8182 TIP4 H1   HW0      0.679100        1.0080           
    4691 A    8182 TIP4 H2   HW0      0.679100        1.0080           
    4692 A    8182 TIP4 BD1  LP0     -1.358200        0.0000           
    4693 A    8183 TIP4 O1   OW0      0.000000       15.9990           
    4694 A    8183 TIP4 H1   HW0      0.679100        1.0080           
    4695 A    8183 TIP4 H2   HW0      0.679100        1.0080           
    4696 A    8183 TIP4 BD1  LP0     -1.358200        0.0000           
    4697 A    8184 TIP4 O1   OW0      0.000000       15.9990           
    4698 A    8184 TIP4 H1   HW0      0.679100        1.0080           
    4699 A    8184 TIP4 H2   HW0      0.679100        1.0080           
    4700 A    8184 TIP4 BD1  LP0     -1.358200        0.0000           
    4701 A    8185 TIP4 O1   OW0      0.000000       15.9990           
    4702 A    8185 TIP4 H1   HW0      0.679100        1.0080           
    4703 A    8185 TIP4 H2   HW0      0.679100        1.0080           
    4704 A    8185 TIP4 BD1  LP0     -1.358200        0.0000           
    4705 A    8186 TIP4 O1   OW0      0.000000       15.9990           
    4706 A    8186 TIP4 H1   HW0      0.679100        1.0080           
    4707 A    8186 TIP4 H2   HW0      0.679100        1.0080           
    4708 A    8186 TIP4 BD1  LP0     -1.358200        0.0000           
    4709 A    8187 TIP4 O1   OW0      0.000000       15.9990           
    4710 A    8187 TIP4 H1   HW0      0.679100        1.0080           
    4711 A    8187 TIP4 H2   HW0      0.679100        1.0080           
    4712 A    8187 TIP4 BD1  LP0     -1.358200        0.0000           
    4713 A    8188 TIP4 O1   OW0      0.000000       15.9990           
    4714 A    8188 TIP4 H1   HW0      0.679100        1.0080           
    4715 A    8188 TIP4 H2   HW0      0.679100        1.0080           
    4716 A    8188 TIP4 BD1  LP0     -1.358200        0.0000           
    4717 A    8189 TIP4 O1   OW0      0.000000       15.9990           
    4718 A    8189 TIP4 H1   HW0      0.679100        1.0080           
    4719 A    8189 TIP4 H2   HW0      0.679100        1.0080           
    4720 A    8189 TIP4 BD1  LP0     -1.358200        0.0000           
    4721 A    8190 TIP4 O1   OW0      0.000000       15.9990           
    4722 A    8190 TIP4 H1   HW0      0.679100        1.0080           
    4723 A    8190 TIP4 H2   HW0      0.679100        1.0080           
    4724 A    8190 TIP4 BD1  LP0     -1.358200        0.0000           
    4725 A    8191 TIP4 O1   OW0      0.000000       15.9990           
    4726 A    8191 TIP4 H1   HW0      0.679100        1.0080           
    4727 A    8191 TIP4 H2   HW0      0.679100        1.0080           
    4728 A    8191 TIP4 BD1  LP0     -1.358200        0.0000           
    4729 A    8192 TIP4 O1   OW0      0.000000       15.9990           
    4730 A    8192 TIP4 H1   HW0      0.679100        1.0080           
    4731 A    8192 TIP4 H2   HW0      0.679100        1.0080           
    4732 A    8192 TIP4 BD1  LP0     -1.358200        0.0000           
    4733 A    8193 TIP4 O1   OW0      0.000000       15.9990           
    4734 A    8193 TIP4 H1   HW0      0.679100        1.0080           
    4735 A    8193 TIP4 H2   HW0      0.679100        1.0080           
    4736 A    8193 TIP4 BD1  LP0     -1.358200        0.0000           
    4737 A    8194 TIP4 O1   OW0      0.000000       15.9990           
    4738 A    8194 TIP4 H1   HW0      0.679100        1.0080           
    4739 A    8194 TIP4 H2   HW0      0.679100        1.0080           
    4740 A    8194 TIP4 BD1  LP0     -1.358200        0.0000           
    4741 A    8195 TIP4 O1   OW0      0.000000       15.9990           
    4742 A    8195 TIP4 H1   HW0      0.679100        1.0080           
    4743 A    8195 TIP4 H2   HW0      0.679100        1.0080           
    4744 A    8195 TIP4 BD1  LP0     -1.358200        0.0000           
    4745 A    8196 TIP4 O1   OW0      0.000000       15.9990           
    4746 A    8196 TIP4 H1   HW0      0.679100        1.0080           
    4747 A    8196 TIP4 H2   HW0      0.679100        1.0080           
    4748 A    8196 TIP4 BD1  LP0     -1.358200        0.0000           
    4749 A    8197 TIP4 O1   OW0      0.000000       15.9990           
    4750 A    8197 TIP4 H1   HW0      0.679100        1.0080           
    4751 A    8197 TIP4 H2   HW0      0.679100        1.0080           
    4752 A    8197 TIP4 BD1  LP0     -1.358200        0.0000           
    4753 A    8198 TIP4 O1   OW0      0.000000       15.9990           
    4754 A    8198 TIP4 H1   HW0      0.679100        1.0080           
    4755 A    8198 TIP4 H2   HW0      0.679100        1.0080           
    4756 A    8198 TIP4 BD1  LP0     -1.358200        0.0000           
    4757 A    8199 TIP4 O1   OW0      0.000000       15.9990           
    4758 A    8199 TIP4 H1   HW0      0.679100        1.0080           
    4759 A    8199 TIP4 H2   HW0      0.679100        1.0080           
    4760 A    8199 TIP4 BD1  LP0     -1.358200        0.0000           
    4761 A    8200 TIP4 O1   OW0      0.000000       15.9990           
    4762 A    8200 TIP4 H1   HW0      0.679100        1.0080           
    4763 A    8200 TIP4 H2   HW0      0.679100        1.0080           
    4764 A    8200 TIP4 BD1  LP0     -1.358200        0.0000           
    4765 A    8201 TIP4 O1   OW0      0.000000       15.9990           
    4766 A    8201 TIP4 H1   HW0      0.679100        1.0080           
    4767 A    8201 TIP4 H2   HW0      0.679100        1.0080           
    4768 A    8201 TIP4 BD1  LP0     -1.358200        0.0000           
    4769 A    8202 TIP4 O1   OW0      0.000000       15.9990           
    4770 A    8202 TIP4 H1   HW0      0.679100        1.0080           
    4771 A    8202 TIP4 H2   HW0      0.679100        1.0080           
    4772 A    8202 TIP4 BD1  LP0     -1.358200        0.0000           
    4773 A    8203 TIP4 O1   OW0      0.000000       15.9990           
    4774 A    8203 TIP4 H1   HW0      0.679100        1.0080           
    4775 A    8203 TIP4 H2   HW0      0.679100        1.0080           
    4776 A    8203 TIP4 BD1  LP0     -1.358200        0.0000           
    4777 A    8204 TIP4 O1   OW0      0.000000       15.9990           
    4778 A    8204 TIP4 H1   HW0      0.679100        1.0080           
    4779 A    8204 TIP4 H2   HW0      0.679100        1.0080           
    4780 A    8204 TIP4 BD1  LP0     -1.358200        0.0000           
    4781 A    8205 TIP4 O1   OW0      0.000000       15.9990           
    4782 A    8205 TIP4 H1   HW0      0.679100        1.0080           
    4783 A    8205 TIP4 H2   HW0      0.679100        1.0080           
    4784 A    8205 TIP4 BD1  LP0     -1.358200        0.0000           
    4785 A    8206 TIP4 O1   OW0      0.000000       15.9990           
    4786 A    8206 TIP4 H1   HW0      0.679100        1.0080           
    4787 A    8206 TIP4 H2   HW0      0.679100        1.0080           
    4788 A    8206 TIP4 BD1  LP0     -1.358200        0.0000           
    4789 A    8207 TIP4 O1   OW0      0.000000       15.9990           
    4790 A    8207 TIP4 H1   HW0      0.679100        1.0080           
    4791 A    8207 TIP4 H2   HW0      0.679100        1.0080           
    4792 A    8207 TIP4 BD1  LP0     -1.358200        0.0000           
    4793 A    8208 TIP4 O1   OW0      0.000000       15.9990           
    4794 A    8208 TIP4 H1   HW0      0.679100        1.0080           
    4795 A    8208 TIP4 H2   HW0      0.679100        1.0080           
    4796 A    8208 TIP4 BD1  LP0     -1.358200        0.0000           
    4797 A    8209 TIP4 O1   OW0      0.000000       15.9990           
    4798 A    8209 TIP4 H1   HW0      0.679100        1.0080           
    4799 A    8209 TIP4 H2   HW0      0.679100        1.0080           
    4800 A    8209 TIP4 BD1  LP0     -1.358200        0.0000           
    4801 A    8210 TIP4 O1   OW0      0.000000       15.9990           
    4802 A    8210 TIP4 H1   HW0      0.679100        1.0080           
    4803 A    8210 TIP4 H2   HW0      0.679100        1.0080           
    4804 A    8210 TIP4 BD1  LP0     -1.358200        0.0000           
    4805 A    8211 TIP4 O1   OW0      0.000000       15.9990           
    4806 A    8211 TIP4 H1   HW0      0.679100        1.0080           
    4807 A    8211 TIP4 H2   HW0      0.679100        1.0080           
    4808 A    8211 TIP4 BD1  LP0     -1.358200        0.0000           
    4809 A    8212 TIP4 O1   OW0      0.000000       15.9990           
    4810 A    8212 TIP4 H1   HW0      0.679100        1.0080           
    4811 A    8212 TIP4 H2   HW0      0.679100        1.0080           
    4812 A    8212 TIP4 BD1  LP0     -1.358200        0.0000           
    4813 A    8213 TIP4 O1   OW0      0.000000       15.9990           
    4814 A    8213 TIP4 H1   HW0      0.679100        1.0080           
    4815 A    8213 TIP4 H2   HW0      0.679100        1.0080           
    4816 A    8213 TIP4 BD1  LP0     -1.358200        0.0000           
    4817 A    8214 TIP4 O1   OW0      0.000000       15.9990           
    4818 A    8214 TIP4 H1   HW0      0.679100        1.0080           
    4819 A    8214 TIP4 H2   HW0      0.679100        1.0080           
    4820 A    8214 TIP4 BD1  LP0     -1.358200        0.0000           
    4821 A    8215 TIP4 O1   OW0      0.000000       15.9990           
    4822 A    8215 TIP4 H1   HW0      0.679100        1.0080           
    4823 A    8215 TIP4 H2   HW0      0.679100        1.0080           
    4824 A    8215 TIP4 BD1  LP0     -1.358200        0.0000           
    4825 A    8216 TIP4 O1   OW0      0.000000       15.9990           
    4826 A    8216 TIP4 H1   HW0      0.679100        1.0080           
    4827 A    8216 TIP4 H2   HW0      0.679100        1.0080           
    4828 A    8216 TIP4 BD1  LP0     -1.358200        0.0000           
    4829 A    8217 TIP4 O1   OW0      0.000000       15.9990           
    4830 A    8217 TIP4 H1   HW0      0.679100        1.0080           
    4831 A    8217 TIP4 H2   HW0      0.679100        1.0080           
    4832 A    8217 TIP4 BD1  LP0     -1.358200        0.0000           
    4833 A    8218 TIP4 O1   OW0      0.000000       15.9990           
    4834 A    8218 TIP4 H1   HW0      0.679100        1.0080           
    4835 A    8218 TIP4 H2   HW0      0.679100        1.0080           
    4836 A    8218 TIP4 BD1  LP0     -1.358200        0.0000           
    4837 A    8219 TIP4 O1   OW0      0.000000       15.9990           
    4838 A    8219 TIP4 H1   HW0      0.679100        1.0080           
    4839 A    8219 TIP4 H2   HW0      0.679100        1.0080           
    4840 A    8219 TIP4 BD1  LP0     -1.358200        0.0000           
    4841 A    8220 TIP4 O1   OW0      0.000000       15.9990           
    4842 A    8220 TIP4 H1   HW0      0.679100        1.0080           
    4843 A    8220 TIP4 H2   HW0      0.679100        1.0080           
    4844 A    8220 TIP4 BD1  LP0     -1.358200        0.0000           
    4845 A    8221 TIP4 O1   OW0      0.000000       15.9990           
    4846 A    8221 TIP4 H1   HW0      0.679100        1.0080           
    4847 A    8221 TIP4 H2   HW0      0.679100        1.0080           
    4848 A    8221 TIP4 BD1  LP0     -1.358200        0.0000           
    4849 A    8222 TIP4 O1   OW0      0.000000       15.9990           
    4850 A    8222 TIP4 H1   HW0      0.679100        1.0080           
    4851 A    8222 TIP4 H2   HW0      0.679100        1.0080           
    4852 A    8222 TIP4 BD1  LP0     -1.358200        0.0000           
    4853 A    8223 TIP4 O1   OW0      0.000000       15.9990           
    4854 A    8223 TIP4 H1   HW0      0.679100        1.0080           
    4855 A    8223 TIP4 H2   HW0      0.679100        1.0080           
    4856 A    8223 TIP4 BD1  LP0     -1.358200        0.0000           
    4857 A    8224 TIP4 O1   OW0      0.000000       15.9990           
    4858 A    8224 TIP4 H1   HW0      0.679100        1.0080           
    4859 A    8224 TIP4 H2   HW0      0.679100        1.0080           
    4860 A    8224 TIP4 BD1  LP0     -1.358200        0.0000           
    4861 A    8225 TIP4 O1   OW0      0.000000       15.9990           
    4862 A    8225 TIP4 H1   HW0      0.679100        1.0080           
    4863 A    8225 TIP4 H2   HW0      0.679100        1.0080           
    4864 A    8225 TIP4 BD1  LP0     -1.358200        0.0000           
    4865 A    8226 TIP4 O1   OW0      0.000000       15.9990           
    4866 A    8226 TIP4 H1   HW0      0.679100        1.0080           
    4867 A    8226 TIP4 H2   HW0      0.679100        1.0080           
    4868 A    8226 TIP4 BD1  LP0     -1.358200        0.0000           
    4869 A    8227 TIP4 O1   OW0      0.000000       15.9990           
    4870 A    8227 TIP4 H1   HW0      0.679100        1.0080           
    4871 A    8227 TIP4 H2   HW0      0.679100        1.0080           
    4872 A    8227 TIP4 BD1  LP0     -1.358200        0.0000           
    4873 A    8228 TIP4 O1   OW0      0.000000       15.9990           
    4874 A    8228 TIP4 H1   HW0      0.679100        1.0080           
    4875 A    8228 TIP4 H2   HW0      0.679100        1.0080           
    4876 A    8228 TIP4 BD1  LP0     -1.358200        0.0000           
    4877 A    8229 TIP4 O1   OW0      0.000000       15.9990           
    4878 A    8229 TIP4 H1   HW0      0.679100        1.0080           
    4879 A    8229 TIP4 H2   HW0      0.679100        1.0080           
    4880 A    8229 TIP4 BD1  LP0     -1.358200        0.0000           
    4881 A    8230 TIP4 O1   OW0      0.000000       15.9990           
    4882 A    8230 TIP4 H1   HW0      0.679100        1.0080           
    4883 A    8230 TIP4 H2   HW0      0.679100        1.0080           
    4884 A    8230 TIP4 BD1  LP0     -1.358200        0.0000           
    4885 A    8231 TIP4 O1   OW0      0.000000       15.9990           
    4886 A    8231 TIP4 H1   HW0      0.679100        1.0080           
    4887 A    8231 TIP4 H2   HW0      0.679100        1.0080           
    4888 A    8231 TIP4 BD1  LP0     -1.358200        0.0000           
    4889 A    8232 TIP4 O1   OW0      0.000000       15.9990           
    4890 A    8232 TIP4 H1   HW0      0.679100        1.0080           
    4891 A    8232 TIP4 H2   HW0      0.679100        1.0080           
    4892 A    8232 TIP4 BD1  LP0     -1.358200        0.0000           
    4893 A    8233 TIP4 O1   OW0      0.000000       15.9990           
    4894 A    8233 TIP4 H1   HW0      0.679100        1.0080           
    4895 A    8233 TIP4 H2   HW0      0.679100        1.0080           
    4896 A    8233 TIP4 BD1  LP0     -1.358200        0.0000           
    4897 A    8234 TIP4 O1   OW0      0.000000       15.9990           
    4898 A    8234 TIP4 H1   HW0      0.679100        1.0080           
    4899 A    8234 TIP4 H2   HW0      0.679100        1.0080           
    4900 A    8234 TIP4 BD1  LP0     -1.358200        0.0000           
    4901 A    8235 TIP4 O1   OW0      0.000000       15.9990           
    4902 A    8235 TIP4 H1   HW0      0.679100        1.0080           
    4903 A    8235 TIP4 H2   HW0      0.679100        1.0080           
    4904 A    8235 TIP4 BD1  LP0     -1.358200        0.0000           
    4905 A    8236 TIP4 O1   OW0      0.000000       15.9990           
    4906 A    8236 TIP4 H1   HW0      0.679100        1.0080           
    4907 A    8236 TIP4 H2   HW0      0.679100        1.0080           
    4908 A    8236 TIP4 BD1  LP0     -1.358200        0.0000           
    4909 A    8237 TIP4 O1   OW0      0.000000       15.9990           
    4910 A    8237 TIP4 H1   HW0      0.679100        1.0080           
    4911 A    8237 TIP4 H2   HW0      0.679100        1.0080           
    4912 A    8237 TIP4 BD1  LP0     -1.358200        0.0000           
    4913 A    8238 TIP4 O1   OW0      0.000000       15.9990           
    4914 A    8238 TIP4 H1   HW0      0.679100        1.0080           
    4915 A    8238 TIP4 H2   HW0      0.679100        1.0080           
    4916 A    8238 TIP4 BD1  LP0     -1.358200        0.0000           
    4917 A    8239 TIP4 O1   OW0      0.000000       15.9990           
    4918 A    8239 TIP4 H1   HW0      0.679100        1.0080           
    4919 A    8239 TIP4 H2   HW0      0.679100        1.0080           
    4920 A    8239 TIP4 BD1  LP0     -1.358200        0.0000           
    4921 A    8240 TIP4 O1   OW0      0.000000       15.9990           
    4922 A    8240 TIP4 H1   HW0      0.679100        1.0080           
    4923 A    8240 TIP4 H2   HW0      0.679100        1.0080           
    4924 A    8240 TIP4 BD1  LP0     -1.358200        0.0000           
    4925 A    8241 TIP4 O1   OW0      0.000000       15.9990           
    4926 A    8241 TIP4 H1   HW0      0.679100        1.0080           
    4927 A    8241 TIP4 H2   HW0      0.679100        1.0080           
    4928 A    8241 TIP4 BD1  LP0     -1.358200        0.0000           
    4929 A    8242 TIP4 O1   OW0      0.000000       15.9990           
    4930 A    8242 TIP4 H1   HW0      0.679100        1.0080           
    4931 A    8242 TIP4 H2   HW0      0.679100        1.0080           
    4932 A    8242 TIP4 BD1  LP0     -1.358200        0.0000           
    4933 A    8243 TIP4 O1   OW0      0.000000       15.9990           
    4934 A    8243 TIP4 H1   HW0      0.679100        1.0080           
    4935 A    8243 TIP4 H2   HW0      0.679100        1.0080           
    4936 A    8243 TIP4 BD1  LP0     -1.358200        0.0000           
    4937 A    8244 TIP4 O1   OW0      0.000000       15.9990           
    4938 A    8244 TIP4 H1   HW0      0.679100        1.0080           
    4939 A    8244 TIP4 H2   HW0      0.679100        1.0080           
    4940 A    8244 TIP4 BD1  LP0     -1.358200        0.0000           
    4941 A    8245 TIP4 O1   OW0      0.000000       15.9990           
    4942 A    8245 TIP4 H1   HW0      0.679100        1.0080           
    4943 A    8245 TIP4 H2   HW0      0.679100        1.0080           
    4944 A    8245 TIP4 BD1  LP0     -1.358200        0.0000           
    4945 A    8246 TIP4 O1   OW0      0.000000       15.9990           
    4946 A    8246 TIP4 H1   HW0      0.679100        1.0080           
    4947 A    8246 TIP4 H2   HW0      0.679100        1.0080           
    4948 A    8246 TIP4 BD1  LP0     -1.358200        0.0000           
    4949 A    8247 TIP4 O1   OW0      0.000000       15.9990           
    4950 A    8247 TIP4 H1   HW0      0.679100        1.0080           
    4951 A    8247 TIP4 H2   HW0      0.679100        1.0080           
    4952 A    8247 TIP4 BD1  LP0     -1.358200        0.0000           
    4953 A    8248 TIP4 O1   OW0      0.000000       15.9990           
    4954 A    8248 TIP4 H1   HW0      0.679100        1.0080           
    4955 A    8248 TIP4 H2   HW0      0.679100        1.0080           
    4956 A    8248 TIP4 BD1  LP0     -1.358200        0.0000           
    4957 A    8249 TIP4 O1   OW0      0.000000       15.9990           
    4958 A    8249 TIP4 H1   HW0      0.679100        1.0080           
    4959 A    8249 TIP4 H2   HW0      0.679100        1.0080           
    4960 A    8249 TIP4 BD1  LP0     -1.358200        0.0000           
    4961 A    8250 TIP4 O1   OW0      0.000000       15.9990           
    4962 A    8250 TIP4 H1   HW0      0.679100        1.0080           
    4963 A    8250 TIP4 H2   HW0      0.679100        1.0080           
    4964 A    8250 TIP4 BD1  LP0     -1.358200        0.0000           
    4965 A    8251 TIP4 O1   OW0      0.000000       15.9990           
    4966 A    8251 TIP4 H1   HW0      0.679100        1.0080           
    4967 A    8251 TIP4 H2   HW0      0.679100        1.0080           
    4968 A    8251 TIP4 BD1  LP0     -1.358200        0.0000           
    4969 A    8252 TIP4 O1   OW0      0.000000       15.9990           
    4970 A    8252 TIP4 H1   HW0      0.679100        1.0080           
    4971 A    8252 TIP4 H2   HW0      0.679100        1.0080           
    4972 A    8252 TIP4 BD1  LP0     -1.358200        0.0000           
    4973 A    8253 TIP4 O1   OW0      0.000000       15.9990           
    4974 A    8253 TIP4 H1   HW0      0.679100        1.0080           
    4975 A    8253 TIP4 H2   HW0      0.679100        1.0080           
    4976 A    8253 TIP4 BD1  LP0     -1.358200        0.0000           
    4977 A    8254 TIP4 O1   OW0      0.000000       15.9990           
    4978 A    8254 TIP4 H1   HW0      0.679100        1.0080           
    4979 A    8254 TIP4 H2   HW0      0.679100        1.0080           
    4980 A    8254 TIP4 BD1  LP0     -1.358200        0.0000           
    4981 A    8255 TIP4 O1   OW0      0.000000       15.9990           
    4982 A    8255 TIP4 H1   HW0      0.679100        1.0080           
    4983 A    8255 TIP4 H2   HW0      0.679100        1.0080           
    4984 A    8255 TIP4 BD1  LP0     -1.358200        0.0000           
    4985 A    8256 TIP4 O1   OW0      0.000000       15.9990           
    4986 A    8256 TIP4 H1   HW0      0.679100        1.0080           
    4987 A    8256 TIP4 H2   HW0      0.679100        1.0080           
    4988 A    8256 TIP4 BD1  LP0     -1.358200        0.0000           
    4989 A    8257 TIP4 O1   OW0      0.000000       15.9990           
    4990 A    8257 TIP4 H1   HW0      0.679100        1.0080           
    4991 A    8257 TIP4 H2   HW0      0.679100        1.0080           
    4992 A    8257 TIP4 BD1  LP0     -1.358200        0.0000           
    4993 A    8258 TIP4 O1   OW0      0.000000       15.9990           
    4994 A    8258 TIP4 H1   HW0      0.679100        1.0080           
    4995 A    8258 TIP4 H2   HW0      0.679100        1.0080           
    4996 A    8258 TIP4 BD1  LP0     -1.358200        0.0000           
    4997 A    8259 TIP4 O1   OW0      0.000000       15.9990           
    4998 A    8259 TIP4 H1   HW0      0.679100        1.0080           
    4999 A    8259 TIP4 H2   HW0      0.679100        1.0080           
    5000 A    8259 TIP4 BD1  LP0     -1.358200        0.0000           
    5001 A    8260 TIP4 O1   OW0      0.000000       15.9990           
    5002 A    8260 TIP4 H1   HW0      0.679100        1.0080           
    5003 A    8260 TIP4 H2   HW0      0.679100        1.0080           
    5004 A    8260 TIP4 BD1  LP0     -1.358200        0.0000           
    5005 A    8261 TIP4 O1   OW0      0.000000       15.9990           
    5006 A    8261 TIP4 H1   HW0      0.679100        1.0080           
    5007 A    8261 TIP4 H2   HW0      0.679100        1.0080           
    5008 A    8261 TIP4 BD1  LP0     -1.358200        0.0000           
    5009 A    8262 TIP4 O1   OW0      0.000000       15.9990           
    5010 A    8262 TIP4 H1   HW0      0.679100        1.0080           
    5011 A    8262 TIP4 H2   HW0      0.679100        1.0080           
    5012 A    8262 TIP4 BD1  LP0     -1.358200        0.0000           
    5013 A    8263 TIP4 O1   OW0      0.000000       15.9990           
    5014 A    8263 TIP4 H1   HW0      0.679100        1.0080           
    5015 A    8263 TIP4 H2   HW0      0.679100        1.0080           
    5016 A    8263 TIP4 BD1  LP0     -1.358200        0.0000           
    5017 A    8264 TIP4 O1   OW0      0.000000       15.9990           
    5018 A    8264 TIP4 H1   HW0      0.679100        1.0080           
    5019 A    8264 TIP4 H2   HW0      0.679100        1.0080           
    5020 A    8264 TIP4 BD1  LP0     -1.358200        0.0000           
    5021 A    8265 TIP4 O1   OW0      0.000000       15.9990           
    5022 A    8265 TIP4 H1   HW0      0.679100        1.0080           
    5023 A    8265 TIP4 H2   HW0      0.679100        1.0080           
    5024 A    8265 TIP4 BD1  LP0     -1.358200        0.0000           
    5025 A    8266 TIP4 O1   OW0      0.000000       15.9990           
    5026 A    8266 TIP4 H1   HW0      0.679100        1.0080           
    5027 A    8266 TIP4 H2   HW0      0.679100        1.0080           
    5028 A    8266 TIP4 BD1  LP0     -1.358200        0.0000           
    5029 A    8267 TIP4 O1   OW0      0.000000       15.9990           
    5030 A    8267 TIP4 H1   HW0      0.679100        1.0080           
    5031 A    8267 TIP4 H2   HW0      0.679100        1.0080           
    5032 A    8267 TIP4 BD1  LP0     -1.358200        0.0000           
    5033 A    8268 TIP4 O1   OW0      0.000000       15.9990           
    5034 A    8268 TIP4 H1   HW0      0.679100        1.0080           
    5035 A    8268 TIP4 H2   HW0      0.679100        1.0080           
    5036 A    8268 TIP4 BD1  LP0     -1.358200        0.0000           
    5037 A    8269 TIP4 O1   OW0      0.000000       15.9990           
    5038 A    8269 TIP4 H1   HW0      0.679100        1.0080           
    5039 A    8269 TIP4 H2   HW0      0.679100        1.0080           
    5040 A    8269 TIP4 BD1  LP0     -1.358200        0.0000           
    5041 A    8270 TIP4 O1   OW0      0.000000       15.9990           
    5042 A    8270 TIP4 H1   HW0      0.679100        1.0080           
    5043 A    8270 TIP4 H2   HW0      0.679100        1.0080           
    5044 A    8270 TIP4 BD1  LP0     -1.358200        0.0000           
    5045 A    8271 TIP4 O1   OW0      0.000000       15.9990           
    5046 A    8271 TIP4 H1   HW0      0.679100        1.0080           
    5047 A    8271 TIP4 H2   HW0      0.679100        1.0080           
    5048 A    8271 TIP4 BD1  LP0     -1.358200        0.0000           
    5049 A    8272 TIP4 O1   OW0      0.000000       15.9990           
    5050 A    8272 TIP4 H1   HW0      0.679100        1.0080           
    5051 A    8272 TIP4 H2   HW0      0.679100        1.0080           
    5052 A    8272 TIP4 BD1  LP0     -1.358200        0.0000           
    5053 A    8273 TIP4 O1   OW0      0.000000       15.9990           
    5054 A    8273 TIP4 H1   HW0      0.679100        1.0080           
    5055 A    8273 TIP4 H2   HW0      0.679100        1.0080           
    5056 A    8273 TIP4 BD1  LP0     -1.358200        0.0000           
    5057 A    8274 TIP4 O1   OW0      0.000000       15.9990           
    5058 A    8274 TIP4 H1   HW0      0.679100        1.0080           
    5059 A    8274 TIP4 H2   HW0      0.679100        1.0080           
    5060 A    8274 TIP4 BD1  LP0     -1.358200        0.0000           
    5061 A    8275 TIP4 O1   OW0      0.000000       15.9990           
    5062 A    8275 TIP4 H1   HW0      0.679100        1.0080           
    5063 A    8275 TIP4 H2   HW0      0.679100        1.0080           
    5064 A    8275 TIP4 BD1  LP0     -1.358200        0.0000           
    5065 A    8276 TIP4 O1   OW0      0.000000       15.9990           
    5066 A    8276 TIP4 H1   HW0      0.679100        1.0080           
    5067 A    8276 TIP4 H2   HW0      0.679100        1.0080           
    5068 A    8276 TIP4 BD1  LP0     -1.358200        0.0000           
    5069 A    8277 TIP4 O1   OW0      0.000000       15.9990           
    5070 A    8277 TIP4 H1   HW0      0.679100        1.0080           
    5071 A    8277 TIP4 H2   HW0      0.679100        1.0080           
    5072 A    8277 TIP4 BD1  LP0     -1.358200        0.0000           
    5073 A    8278 TIP4 O1   OW0      0.000000       15.9990           
    5074 A    8278 TIP4 H1   HW0      0.679100        1.0080           
    5075 A    8278 TIP4 H2   HW0      0.679100        1.0080           
    5076 A    8278 TIP4 BD1  LP0     -1.358200        0.0000           
    5077 A    8279 TIP4 O1   OW0      0.000000       15.9990           
    5078 A    8279 TIP4 H1   HW0      0.679100        1.0080           
    5079 A    8279 TIP4 H2   HW0      0.679100        1.0080           
    5080 A    8279 TIP4 BD1  LP0     -1.358200        0.0000           
    5081 A    8280 TIP4 O1   OW0      0.000000       15.9990           
    5082 A    8280 TIP4 H1   HW0      0.679100        1.0080           
    5083 A    8280 TIP4 H2   HW0      0.679100        1.0080           
    5084 A    8280 TIP4 BD1  LP0     -1.358200        0.0000           
    5085 A    8281 TIP4 O1   OW0      0.000000       15.9990           
    5086 A    8281 TIP4 H1   HW0      0.679100        1.0080           
    5087 A    8281 TIP4 H2   HW0      0.679100        1.0080           
    5088 A    8281 TIP4 BD1  LP0     -1.358200        0.0000           
    5089 A    8282 TIP4 O1   OW0      0.000000       15.9990           
    5090 A    8282 TIP4 H1   HW0      0.679100        1.0080           
    5091 A    8282 TIP4 H2   HW0      0.679100        1.0080           
    5092 A    8282 TIP4 BD1  LP0     -1.358200        0.0000           
    5093 A    8283 TIP4 O1   OW0      0.000000       15.9990           
    5094 A    8283 TIP4 H1   HW0      0.679100        1.0080           
    5095 A    8283 TIP4 H2   HW0      0.679100        1.0080           
    5096 A    8283 TIP4 BD1  LP0     -1.358200        0.0000           
    5097 A    8284 TIP4 O1   OW0      0.000000       15.9990           
    5098 A    8284 TIP4 H1   HW0      0.679100        1.0080           
    5099 A    8284 TIP4 H2   HW0      0.679100        1.0080           
    5100 A    8284 TIP4 BD1  LP0     -1.358200        0.0000           
    5101 A    8285 TIP4 O1   OW0      0.000000       15.9990           
    5102 A    8285 TIP4 H1   HW0      0.679100        1.0080           
    5103 A    8285 TIP4 H2   HW0      0.679100        1.0080           
    5104 A    8285 TIP4 BD1  LP0     -1.358200        0.0000           
    5105 A    8286 TIP4 O1   OW0      0.000000       15.9990           
    5106 A    8286 TIP4 H1   HW0      0.679100        1.0080           
    5107 A    8286 TIP4 H2   HW0      0.679100        1.0080           
    5108 A    8286 TIP4 BD1  LP0     -1.358200        0.0000           
    5109 A    8287 TIP4 O1   OW0      0.000000       15.9990           
    5110 A    8287 TIP4 H1   HW0      0.679100        1.0080           
    5111 A    8287 TIP4 H2   HW0      0.679100        1.0080           
    5112 A    8287 TIP4 BD1  LP0     -1.358200        0.0000           
    5113 A    8288 TIP4 O1   OW0      0.000000       15.9990           
    5114 A    8288 TIP4 H1   HW0      0.679100        1.0080           
    5115 A    8288 TIP4 H2   HW0      0.679100        1.0080           
    5116 A    8288 TIP4 BD1  LP0     -1.358200        0.0000           
    5117 A    8289 TIP4 O1   OW0      0.000000       15.9990           
    5118 A    8289 TIP4 H1   HW0      0.679100        1.0080           
    5119 A    8289 TIP4 H2   HW0      0.679100        1.0080           
    5120 A    8289 TIP4 BD1  LP0     -1.358200        0.0000           
    5121 A    8290 TIP4 O1   OW0      0.000000       15.9990           
    5122 A    8290 TIP4 H1   HW0      0.679100        1.0080           
    5123 A    8290 TIP4 H2   HW0      0.679100        1.0080           
    5124 A    8290 TIP4 BD1  LP0     -1.358200        0.0000           
    5125 A    8291 TIP4 O1   OW0      0.000000       15.9990           
    5126 A    8291 TIP4 H1   HW0      0.679100        1.0080           
    5127 A    8291 TIP4 H2   HW0      0.679100        1.0080           
    5128 A    8291 TIP4 BD1  LP0     -1.358200        0.0000           
    5129 A    8292 TIP4 O1   OW0      0.000000       15.9990           
    5130 A    8292 TIP4 H1   HW0      0.679100        1.0080           
    5131 A    8292 TIP4 H2   HW0      0.679100        1.0080           
    5132 A    8292 TIP4 BD1  LP0     -1.358200        0.0000           
    5133 A    8293 TIP4 O1   OW0      0.000000       15.9990           
    5134 A    8293 TIP4 H1   HW0      0.679100        1.0080           
    5135 A    8293 TIP4 H2   HW0      0.679100        1.0080           
    5136 A    8293 TIP4 BD1  LP0     -1.358200        0.0000           
    5137 A    8294 TIP4 O1   OW0      0.000000       15.9990           
    5138 A    8294 TIP4 H1   HW0      0.679100        1.0080           
    5139 A    8294 TIP4 H2   HW0      0.679100        1.0080           
    5140 A    8294 TIP4 BD1  LP0     -1.358200        0.0000           
    5141 A    8295 TIP4 O1   OW0      0.000000       15.9990           
    5142 A    8295 TIP4 H1   HW0      0.679100        1.0080           
    5143 A    8295 TIP4 H2   HW0      0.679100        1.0080           
    5144 A    8295 TIP4 BD1  LP0     -1.358200        0.0000           
    5145 A    8296 TIP4 O1   OW0      0.000000       15.9990           
    5146 A    8296 TIP4 H1   HW0      0.679100        1.0080           
    5147 A    8296 TIP4 H2   HW0      0.679100        1.0080           
    5148 A    8296 TIP4 BD1  LP0     -1.358200        0.0000           
    5149 A    8297 TIP4 O1   OW0      0.000000       15.9990           
    5150 A    8297 TIP4 H1   HW0      0.679100        1.0080           
    5151 A    8297 TIP4 H2   HW0      0.679100        1.0080           
    5152 A    8297 TIP4 BD1  LP0     -1.358200        0.0000           
    5153 A    8298 TIP4 O1   OW0      0.000000       15.9990           
    5154 A    8298 TIP4 H1   HW0      0.679100        1.0080           
    5155 A    8298 TIP4 H2   HW0      0.679100        1.0080           
    5156 A    8298 TIP4 BD1  LP0     -1.358200        0.0000           
    5157 A    8299 TIP4 O1   OW0      0.000000       15.9990           
    5158 A    8299 TIP4 H1   HW0      0.679100        1.0080           
    5159 A    8299 TIP4 H2   HW0      0.679100        1.0080           
    5160 A    8299 TIP4 BD1  LP0     -1.358200        0.0000           
    5161 A    8300 TIP4 O1   OW0      0.000000       15.9990           
    5162 A    8300 TIP4 H1   HW0      0.679100        1.0080           
    5163 A    8300 TIP4 H2   HW0      0.679100        1.0080           
    5164 A    8300 TIP4 BD1  LP0     -1.358200        0.0000           
    5165 A    8301 TIP4 O1   OW0      0.000000       15.9990           
    5166 A    8301 TIP4 H1   HW0      0.679100        1.0080           
    5167 A    8301 TIP4 H2   HW0      0.679100        1.0080           
    5168 A    8301 TIP4 BD1  LP0     -1.358200        0.0000           
    5169 A    8302 TIP4 O1   OW0      0.000000       15.9990           
    5170 A    8302 TIP4 H1   HW0      0.679100        1.0080           
    5171 A    8302 TIP4 H2   HW0      0.679100        1.0080           
    5172 A    8302 TIP4 BD1  LP0     -1.358200        0.0000           
    5173 A    8303 TIP4 O1   OW0      0.000000       15.9990           
    5174 A    8303 TIP4 H1   HW0      0.679100        1.0080           
    5175 A    8303 TIP4 H2   HW0      0.679100        1.0080           
    5176 A    8303 TIP4 BD1  LP0     -1.358200        0.0000           
    5177 A    8304 TIP4 O1   OW0      0.000000       15.9990           
    5178 A    8304 TIP4 H1   HW0      0.679100        1.0080           
    5179 A    8304 TIP4 H2   HW0      0.679100        1.0080           
    5180 A    8304 TIP4 BD1  LP0     -1.358200        0.0000           
    5181 A    8305 TIP4 O1   OW0      0.000000       15.9990           
    5182 A    8305 TIP4 H1   HW0      0.679100        1.0080           
    5183 A    8305 TIP4 H2   HW0      0.679100        1.0080           
    5184 A    8305 TIP4 BD1  LP0     -1.358200        0.0000           
    5185 A    8306 TIP4 O1   OW0      0.000000       15.9990           
    5186 A    8306 TIP4 H1   HW0      0.679100        1.0080           
    5187 A    8306 TIP4 H2   HW0      0.679100        1.0080           
    5188 A    8306 TIP4 BD1  LP0     -1.358200        0.0000           
    5189 A    8307 TIP4 O1   OW0      0.000000       15.9990           
    5190 A    8307 TIP4 H1   HW0      0.679100        1.0080           
    5191 A    8307 TIP4 H2   HW0      0.679100        1.0080           
    5192 A    8307 TIP4 BD1  LP0     -1.358200        0.0000           
    5193 A    8308 TIP4 O1   OW0      0.000000       15.9990           
    5194 A    8308 TIP4 H1   HW0      0.679100        1.0080           
    5195 A    8308 TIP4 H2   HW0      0.679100        1.0080           
    5196 A    8308 TIP4 BD1  LP0     -1.358200        0.0000           
    5197 A    8309 TIP4 O1   OW0      0.000000       15.9990           
    5198 A    8309 TIP4 H1   HW0      0.679100        1.0080           
    5199 A    8309 TIP4 H2   HW0      0.679100        1.0080           
    5200 A    8309 TIP4 BD1  LP0     -1.358200        0.0000           
    5201 A    8310 TIP4 O1   OW0      0.000000       15.9990           
    5202 A    8310 TIP4 H1   HW0      0.679100        1.0080           
    5203 A    8310 TIP4 H2   HW0      0.679100        1.0080           
    5204 A    8310 TIP4 BD1  LP0     -1.358200        0.0000           
    5205 A    8311 TIP4 O1   OW0      0.000000       15.9990           
    5206 A    8311 TIP4 H1   HW0      0.679100        1.0080           
    5207 A    8311 TIP4 H2   HW0      0.679100        1.0080           
    5208 A    8311 TIP4 BD1  LP0     -1.358200        0.0000           
    5209 A    8312 TIP4 O1   OW0      0.000000       15.9990           
    5210 A    8312 TIP4 H1   HW0      0.679100        1.0080           
    5211 A    8312 TIP4 H2   HW0      0.679100        1.0080           
    5212 A    8312 TIP4 BD1  LP0     -1.358200        0.0000           
    5213 A    8313 TIP4 O1   OW0      0.000000       15.9990           
    5214 A    8313 TIP4 H1   HW0      0.679100        1.0080           
    5215 A    8313 TIP4 H2   HW0      0.679100        1.0080           
    5216 A    8313 TIP4 BD1  LP0     -1.358200        0.0000           
    5217 A    8314 TIP4 O1   OW0      0.000000       15.9990           
    5218 A    8314 TIP4 H1   HW0      0.679100        1.0080           
    5219 A    8314 TIP4 H2   HW0      0.679100        1.0080           
    5220 A    8314 TIP4 BD1  LP0     -1.358200        0.0000           
    5221 A    8315 TIP4 O1   OW0      0.000000       15.9990           
    5222 A    8315 TIP4 H1   HW0      0.679100        1.0080           
    5223 A    8315 TIP4 H2   HW0      0.679100        1.0080           
    5224 A    8315 TIP4 BD1  LP0     -1.358200        0.0000           
    5225 A    8316 TIP4 O1   OW0      0.000000       15.9990           
    5226 A    8316 TIP4 H1   HW0      0.679100        1.0080           
    5227 A    8316 TIP4 H2   HW0      0.679100        1.0080           
    5228 A    8316 TIP4 BD1  LP0     -1.358200        0.0000           
    5229 A    8317 TIP4 O1   OW0      0.000000       15.9990           
    5230 A    8317 TIP4 H1   HW0      0.679100        1.0080           
    5231 A    8317 TIP4 H2   HW0      0.679100        1.0080           
    5232 A    8317 TIP4 BD1  LP0     -1.358200        0.0000           
    5233 A    8318 TIP4 O1   OW0      0.000000       15.9990           
    5234 A    8318 TIP4 H1   HW0      0.679100        1.0080           
    5235 A    8318 TIP4 H2   HW0      0.679100        1.0080           
    5236 A    8318 TIP4 BD1  LP0     -1.358200        0.0000           
    5237 A    8319 TIP4 O1   OW0      0.000000       15.9990           
    5238 A    8319 TIP4 H1   HW0      0.679100        1.0080           
    5239 A    8319 TIP4 H2   HW0      0.679100        1.0080           
    5240 A    8319 TIP4 BD1  LP0     -1.358200        0.0000           
    5241 A    8320 TIP4 O1   OW0      0.000000       15.9990           
    5242 A    8320 TIP4 H1   HW0      0.679100        1.0080           
    5243 A    8320 TIP4 H2   HW0      0.679100        1.0080           
    5244 A    8320 TIP4 BD1  LP0     -1.358200        0.0000           
    5245 A    8321 TIP4 O1   OW0      0.000000       15.9990           
    5246 A    8321 TIP4 H1   HW0      0.679100        1.0080           
    5247 A    8321 TIP4 H2   HW0      0.679100        1.0080           
    5248 A    8321 TIP4 BD1  LP0     -1.358200        0.0000           
    5249 A    8322 TIP4 O1   OW0      0.000000       15.9990           
    5250 A    8322 TIP4 H1   HW0      0.679100        1.0080           
    5251 A    8322 TIP4 H2   HW0      0.679100        1.0080           
    5252 A    8322 TIP4 BD1  LP0     -1.358200        0.0000           
    5253 A    8323 TIP4 O1   OW0      0.000000       15.9990           
    5254 A    8323 TIP4 H1   HW0      0.679100        1.0080           
    5255 A    8323 TIP4 H2   HW0      0.679100        1.0080           
    5256 A    8323 TIP4 BD1  LP0     -1.358200        0.0000           
    5257 A    8324 TIP4 O1   OW0      0.000000       15.9990           
    5258 A    8324 TIP4 H1   HW0      0.679100        1.0080           
    5259 A    8324 TIP4 H2   HW0      0.679100        1.0080           
    5260 A    8324 TIP4 BD1  LP0     -1.358200        0.0000           
    5261 A    8325 TIP4 O1   OW0      0.000000       15.9990           
    5262 A    8325 TIP4 H1   HW0      0.679100        1.0080           
    5263 A    8325 TIP4 H2   HW0      0.679100        1.0080           
    5264 A    8325 TIP4 BD1  LP0     -1.358200        0.0000           
    5265 A    8326 TIP4 O1   OW0      0.000000       15.9990           
    5266 A    8326 TIP4 H1   HW0      0.679100        1.0080           
    5267 A    8326 TIP4 H2   HW0      0.679100        1.0080           
    5268 A    8326 TIP4 BD1  LP0     -1.358200        0.0000           
    5269 A    8327 TIP4 O1   OW0      0.000000       15.9990           
    5270 A    8327 TIP4 H1   HW0      0.679100        1.0080           
    5271 A    8327 TIP4 H2   HW0      0.679100        1.0080           
    5272 A    8327 TIP4 BD1  LP0     -1.358200        0.0000           
    5273 A    8328 TIP4 O1   OW0      0.000000       15.9990           
    5274 A    8328 TIP4 H1   HW0      0.679100        1.0080           
    5275 A    8328 TIP4 H2   HW0      0.679100        1.0080           
    5276 A    8328 TIP4 BD1  LP0     -1.358200        0.0000           
    5277 A    8329 TIP4 O1   OW0      0.000000       15.9990           
    5278 A    8329 TIP4 H1   HW0      0.679100        1.0080           
    5279 A    8329 TIP4 H2   HW0      0.679100        1.0080           
    5280 A    8329 TIP4 BD1  LP0     -1.358200        0.0000           
    5281 A    8330 TIP4 O1   OW0      0.000000       15.9990           
    5282 A    8330 TIP4 H1   HW0      0.679100        1.0080           
    5283 A    8330 TIP4 H2   HW0      0.679100        1.0080           
    5284 A    8330 TIP4 BD1  LP0     -1.358200        0.0000           
    5285 A    8331 TIP4 O1   OW0      0.000000       15.9990           
    5286 A    8331 TIP4 H1   HW0      0.679100        1.0080           
    5287 A    8331 TIP4 H2   HW0      0.679100        1.0080           
    5288 A    8331 TIP4 BD1  LP0     -1.358200        0.0000           
    5289 A    8332 TIP4 O1   OW0      0.000000       15.9990           
    5290 A    8332 TIP4 H1   HW0      0.679100        1.0080           
    5291 A    8332 TIP4 H2   HW0      0.679100        1.0080           
    5292 A    8332 TIP4 BD1  LP0     -1.358200        0.0000           
    5293 A    8333 TIP4 O1   OW0      0.000000       15.9990           
    5294 A    8333 TIP4 H1   HW0      0.679100        1.0080           
    5295 A    8333 TIP4 H2   HW0      0.679100        1.0080           
    5296 A    8333 TIP4 BD1  LP0     -1.358200        0.0000           
    5297 A    8334 TIP4 O1   OW0      0.000000       15.9990           
    5298 A    8334 TIP4 H1   HW0      0.679100        1.0080           
    5299 A    8334 TIP4 H2   HW0      0.679100        1.0080           
    5300 A    8334 TIP4 BD1  LP0     -1.358200        0.0000           
    5301 A    8335 TIP4 O1   OW0      0.000000       15.9990           
    5302 A    8335 TIP4 H1   HW0      0.679100        1.0080           
    5303 A    8335 TIP4 H2   HW0      0.679100        1.0080           
    5304 A    8335 TIP4 BD1  LP0     -1.358200        0.0000           
    5305 A    8336 TIP4 O1   OW0      0.000000       15.9990           
    5306 A    8336 TIP4 H1   HW0      0.679100        1.0080           
    5307 A    8336 TIP4 H2   HW0      0.679100        1.0080           
    5308 A    8336 TIP4 BD1  LP0     -1.358200        0.0000           
    5309 A    8337 TIP4 O1   OW0      0.000000       15.9990           
    5310 A    8337 TIP4 H1   HW0      0.679100        1.0080           
    5311 A    8337 TIP4 H2   HW0      0.679100        1.0080           
    5312 A    8337 TIP4 BD1  LP0     -1.358200        0.0000           
    5313 A    8338 TIP4 O1   OW0      0.000000       15.9990           
    5314 A    8338 TIP4 H1   HW0      0.679100        1.0080           
    5315 A    8338 TIP4 H2   HW0      0.679100        1.0080           
    5316 A    8338 TIP4 BD1  LP0     -1.358200        0.0000           
    5317 A    8339 TIP4 O1   OW0      0.000000       15.9990           
    5318 A    8339 TIP4 H1   HW0      0.679100        1.0080           
    5319 A    8339 TIP4 H2   HW0      0.679100        1.0080           
    5320 A    8339 TIP4 BD1  LP0     -1.358200        0.0000           
    5321 A    8340 TIP4 O1   OW0      0.000000       15.9990           
    5322 A    8340 TIP4 H1   HW0      0.679100        1.0080           
    5323 A    8340 TIP4 H2   HW0      0.679100        1.0080           
    5324 A    8340 TIP4 BD1  LP0     -1.358200        0.0000           
    5325 A    8341 TIP4 O1   OW0      0.000000       15.9990           
    5326 A    8341 TIP4 H1   HW0      0.679100        1.0080           
    5327 A    8341 TIP4 H2   HW0      0.679100        1.0080           
    5328 A    8341 TIP4 BD1  LP0     -1.358200        0.0000           
    5329 A    8342 TIP4 O1   OW0      0.000000       15.9990           
    5330 A    8342 TIP4 H1   HW0      0.679100        1.0080           
    5331 A    8342 TIP4 H2   HW0      0.679100        1.0080           
    5332 A    8342 TIP4 BD1  LP0     -1.358200        0.0000           
    5333 A    8343 TIP4 O1   OW0      0.000000       15.9990           
    5334 A    8343 TIP4 H1   HW0      0.679100        1.0080           
    5335 A    8343 TIP4 H2   HW0      0.679100        1.0080           
    5336 A    8343 TIP4 BD1  LP0     -1.358200        0.0000           
    5337 A    8344 TIP4 O1   OW0      0.000000       15.9990           
    5338 A    8344 TIP4 H1   HW0      0.679100        1.0080           
    5339 A    8344 TIP4 H2   HW0      0.679100        1.0080           
    5340 A    8344 TIP4 BD1  LP0     -1.358200        0.0000           
    5341 A    8345 TIP4 O1   OW0      0.000000       15.9990           
    5342 A    8345 TIP4 H1   HW0      0.679100        1.0080           
    5343 A    8345 TIP4 H2   HW0      0.679100        1.0080           
    5344 A    8345 TIP4 BD1  LP0     -1.358200        0.0000           
    5345 A    8346 TIP4 O1   OW0      0.000000       15.9990           
    5346 A    8346 TIP4 H1   HW0      0.679100        1.0080           
    5347 A    8346 TIP4 H2   HW0      0.679100        1.0080           
    5348 A    8346 TIP4 BD1  LP0     -1.358200        0.0000           
    5349 A    8347 TIP4 O1   OW0      0.000000       15.9990           
    5350 A    8347 TIP4 H1   HW0      0.679100        1.0080           
    5351 A    8347 TIP4 H2   HW0      0.679100        1.0080           
    5352 A    8347 TIP4 BD1  LP0     -1.358200        0.0000           
    5353 A    8348 TIP4 O1   OW0      0.000000       15.9990           
    5354 A    8348 TIP4 H1   HW0      0.679100        1.0080           
    5355 A    8348 TIP4 H2   HW0      0.679100        1.0080           
    5356 A    8348 TIP4 BD1  LP0     -1.358200        0.0000           
    5357 A    8349 TIP4 O1   OW0      0.000000       15.9990           
    5358 A    8349 TIP4 H1   HW0      0.679100        1.0080           
    5359 A    8349 TIP4 H2   HW0      0.679100        1.0080           
    5360 A    8349 TIP4 BD1  LP0     -1.358200        0.0000           
    5361 A    8350 TIP4 O1   OW0      0.000000       15.9990           
    5362 A    8350 TIP4 H1   HW0      0.679100        1.0080           
    5363 A    8350 TIP4 H2   HW0      0.679100        1.0080           
    5364 A    8350 TIP4 BD1  LP0     -1.358200        0.0000           
    5365 A    8351 TIP4 O1   OW0      0.000000       15.9990           
    5366 A    8351 TIP4 H1   HW0      0.679100        1.0080           
    5367 A    8351 TIP4 H2   HW0      0.679100        1.0080           
    5368 A    8351 TIP4 BD1  LP0     -1.358200        0.0000           
    5369 A    8352 TIP4 O1   OW0      0.000000       15.9990           
    5370 A    8352 TIP4 H1   HW0      0.679100        1.0080           
    5371 A    8352 TIP4 H2   HW0      0.679100        1.0080           
    5372 A    8352 TIP4 BD1  LP0     -1.358200        0.0000           
    5373 A    8353 TIP4 O1   OW0      0.000000       15.9990           
    5374 A    8353 TIP4 H1   HW0      0.679100        1.0080           
    5375 A    8353 TIP4 H2   HW0      0.679100        1.0080           
    5376 A    8353 TIP4 BD1  LP0     -1.358200        0.0000           
    5377 A    8354 TIP4 O1   OW0      0.000000       15.9990           
    5378 A    8354 TIP4 H1   HW0      0.679100        1.0080           
    5379 A    8354 TIP4 H2   HW0      0.679100        1.0080           
    5380 A    8354 TIP4 BD1  LP0     -1.358200        0.0000           
    5381 A    8355 TIP4 O1   OW0      0.000000       15.9990           
    5382 A    8355 TIP4 H1   HW0      0.679100        1.0080           
    5383 A    8355 TIP4 H2   HW0      0.679100        1.0080           
    5384 A    8355 TIP4 BD1  LP0     -1.358200        0.0000           
    5385 A    8356 TIP4 O1   OW0      0.000000       15.9990           
    5386 A    8356 TIP4 H1   HW0      0.679100        1.0080           
    5387 A    8356 TIP4 H2   HW0      0.679100        1.0080           
    5388 A    8356 TIP4 BD1  LP0     -1.358200        0.0000           
    5389 A    8357 TIP4 O1   OW0      0.000000       15.9990           
    5390 A    8357 TIP4 H1   HW0      0.679100        1.0080           
    5391 A    8357 TIP4 H2   HW0      0.679100        1.0080           
    5392 A    8357 TIP4 BD1  LP0     -1.358200        0.0000           
    5393 A    8358 TIP4 O1   OW0      0.000000       15.9990           
    5394 A    8358 TIP4 H1   HW0      0.679100        1.0080           
    5395 A    8358 TIP4 H2   HW0      0.679100        1.0080           
    5396 A    8358 TIP4 BD1  LP0     -1.358200        0.0000           
    5397 A    8359 TIP4 O1   OW0      0.000000       15.9990           
    5398 A    8359 TIP4 H1   HW0      0.679100        1.0080           
    5399 A    8359 TIP4 H2   HW0      0.679100        1.0080           
    5400 A    8359 TIP4 BD1  LP0     -1.358200        0.0000           
    5401 A    8360 TIP4 O1   OW0      0.000000       15.9990           
    5402 A    8360 TIP4 H1   HW0      0.679100        1.0080           
    5403 A    8360 TIP4 H2   HW0      0.679100        1.0080           
    5404 A    8360 TIP4 BD1  LP0     -1.358200        0.0000           
    5405 A    8361 TIP4 O1   OW0      0.000000       15.9990           
    5406 A    8361 TIP4 H1   HW0      0.679100        1.0080           
    5407 A    8361 TIP4 H2   HW0      0.679100        1.0080           
    5408 A    8361 TIP4 BD1  LP0     -1.358200        0.0000           
    5409 A    8362 TIP4 O1   OW0      0.000000       15.9990           
    5410 A    8362 TIP4 H1   HW0      0.679100        1.0080           
    5411 A    8362 TIP4 H2   HW0      0.679100        1.0080           
    5412 A    8362 TIP4 BD1  LP0     -1.358200        0.0000           
    5413 A    8363 TIP4 O1   OW0      0.000000       15.9990           
    5414 A    8363 TIP4 H1   HW0      0.679100        1.0080           
    5415 A    8363 TIP4 H2   HW0      0.679100        1.0080           
    5416 A    8363 TIP4 BD1  LP0     -1.358200        0.0000           
    5417 A    8364 TIP4 O1   OW0      0.000000       15.9990           
    5418 A    8364 TIP4 H1   HW0      0.679100        1.0080           
    5419 A    8364 TIP4 H2   HW0      0.679100        1.0080           
    5420 A    8364 TIP4 BD1  LP0     -1.358200        0.0000           
    5421 A    8365 TIP4 O1   OW0      0.000000       15.9990           
    5422 A    8365 TIP4 H1   HW0      0.679100        1.0080           
    5423 A    8365 TIP4 H2   HW0      0.679100        1.0080           
    5424 A    8365 TIP4 BD1  LP0     -1.358200        0.0000           
    5425 A    8366 TIP4 O1   OW0      0.000000       15.9990           
    5426 A    8366 TIP4 H1   HW0      0.679100        1.0080           
    5427 A    8366 TIP4 H2   HW0      0.679100        1.0080           
    5428 A    8366 TIP4 BD1  LP0     -1.358200        0.0000           
    5429 A    8367 TIP4 O1   OW0      0.000000       15.9990           
    5430 A    8367 TIP4 H1   HW0      0.679100        1.0080           
    5431 A    8367 TIP4 H2   HW0      0.679100        1.0080           
    5432 A    8367 TIP4 BD1  LP0     -1.358200        0.0000           
    5433 A    8368 TIP4 O1   OW0      0.000000       15.9990           
    5434 A    8368 TIP4 H1   HW0      0.679100        1.0080           
    5435 A    8368 TIP4 H2   HW0      0.679100        1.0080           
    5436 A    8368 TIP4 BD1  LP0     -1.358200        0.0000           
    5437 A    8369 TIP4 O1   OW0      0.000000       15.9990           
    5438 A    8369 TIP4 H1   HW0      0.679100        1.0080           
    5439 A    8369 TIP4 H2   HW0      0.679100        1.0080           
    5440 A    8369 TIP4 BD1  LP0     -1.358200        0.0000           
    5441 A    8370 TIP4 O1   OW0      0.000000       15.9990           
    5442 A    8370 TIP4 H1   HW0      0.679100        1.0080           
    5443 A    8370 TIP4 H2   HW0      0.679100        1.0080           
    5444 A    8370 TIP4 BD1  LP0     -1.358200        0.0000           
    5445 A    8371 TIP4 O1   OW0      0.000000       15.9990           
    5446 A    8371 TIP4 H1   HW0      0.679100        1.0080           
    5447 A    8371 TIP4 H2   HW0      0.679100        1.0080           
    5448 A    8371 TIP4 BD1  LP0     -1.358200        0.0000           
    5449 A    8372 TIP4 O1   OW0      0.000000       15.9990           
    5450 A    8372 TIP4 H1   HW0      0.679100        1.0080           
    5451 A    8372 TIP4 H2   HW0      0.679100        1.0080           
    5452 A    8372 TIP4 BD1  LP0     -1.358200        0.0000           
    5453 A    8373 TIP4 O1   OW0      0.000000       15.9990           
    5454 A    8373 TIP4 H1   HW0      0.679100        1.0080           
    5455 A    8373 TIP4 H2   HW0      0.679100        1.0080           
    5456 A    8373 TIP4 BD1  LP0     -1.358200        0.0000           
    5457 A    8374 TIP4 O1   OW0      0.000000       15.9990           
    5458 A    8374 TIP4 H1   HW0      0.679100        1.0080           
    5459 A    8374 TIP4 H2   HW0      0.679100        1.0080           
    5460 A    8374 TIP4 BD1  LP0     -1.358200        0.0000           
    5461 A    8375 TIP4 O1   OW0      0.000000       15.9990           
    5462 A    8375 TIP4 H1   HW0      0.679100        1.0080           
    5463 A    8375 TIP4 H2   HW0      0.679100        1.0080           
    5464 A    8375 TIP4 BD1  LP0     -1.358200        0.0000           
    5465 A    8376 TIP4 O1   OW0      0.000000       15.9990           
    5466 A    8376 TIP4 H1   HW0      0.679100        1.0080           
    5467 A    8376 TIP4 H2   HW0      0.679100        1.0080           
    5468 A    8376 TIP4 BD1  LP0     -1.358200        0.0000           
    5469 A    8377 TIP4 O1   OW0      0.000000       15.9990           
    5470 A    8377 TIP4 H1   HW0      0.679100        1.0080           
    5471 A    8377 TIP4 H2   HW0      0.679100        1.0080           
    5472 A    8377 TIP4 BD1  LP0     -1.358200        0.0000           
    5473 A    8378 TIP4 O1   OW0      0.000000       15.9990           
    5474 A    8378 TIP4 H1   HW0      0.679100        1.0080           
    5475 A    8378 TIP4 H2   HW0      0.679100        1.0080           
    5476 A    8378 TIP4 BD1  LP0     -1.358200        0.0000           
    5477 A    8379 TIP4 O1   OW0      0.000000       15.9990           
    5478 A    8379 TIP4 H1   HW0      0.679100        1.0080           
    5479 A    8379 TIP4 H2   HW0      0.679100        1.0080           
    5480 A    8379 TIP4 BD1  LP0     -1.358200        0.0000           
    5481 A    8380 TIP4 O1   OW0      0.000000       15.9990           
    5482 A    8380 TIP4 H1   HW0      0.679100        1.0080           
    5483 A    8380 TIP4 H2   HW0      0.679100        1.0080           
    5484 A    8380 TIP4 BD1  LP0     -1.358200        0.0000           
    5485 A    8381 TIP4 O1   OW0      0.000000       15.9990           
    5486 A    8381 TIP4 H1   HW0      0.679100        1.0080           
    5487 A    8381 TIP4 H2   HW0      0.679100        1.0080           
    5488 A    8381 TIP4 BD1  LP0     -1.358200        0.0000           
    5489 A    8382 TIP4 O1   OW0      0.000000       15.9990           
    5490 A    8382 TIP4 H1   HW0      0.679100        1.0080           
    5491 A    8382 TIP4 H2   HW0      0.679100        1.0080           
    5492 A    8382 TIP4 BD1  LP0     -1.358200        0.0000           
    5493 A    8383 TIP4 O1   OW0      0.000000       15.9990           
    5494 A    8383 TIP4 H1   HW0      0.679100        1.0080           
    5495 A    8383 TIP4 H2   HW0      0.679100        1.0080           
    5496 A    8383 TIP4 BD1  LP0     -1.358200        0.0000           
    5497 A    8384 TIP4 O1   OW0      0.000000       15.9990           
    5498 A    8384 TIP4 H1   HW0      0.679100        1.0080           
    5499 A    8384 TIP4 H2   HW0      0.679100        1.0080           
    5500 A    8384 TIP4 BD1  LP0     -1.358200        0.0000           
    5501 A    8385 TIP4 O1   OW0      0.000000       15.9990           
    5502 A    8385 TIP4 H1   HW0      0.679100        1.0080           
    5503 A    8385 TIP4 H2   HW0      0.679100        1.0080           
    5504 A    8385 TIP4 BD1  LP0     -1.358200        0.0000           
    5505 A    8386 TIP4 O1   OW0      0.000000       15.9990           
    5506 A    8386 TIP4 H1   HW0      0.679100        1.0080           
    5507 A    8386 TIP4 H2   HW0      0.679100        1.0080           
    5508 A    8386 TIP4 BD1  LP0     -1.358200        0.0000           
    5509 A    8387 TIP4 O1   OW0      0.000000       15.9990           
    5510 A    8387 TIP4 H1   HW0      0.679100        1.0080           
    5511 A    8387 TIP4 H2   HW0      0.679100        1.0080           
    5512 A    8387 TIP4 BD1  LP0     -1.358200        0.0000           
    5513 A    8388 TIP4 O1   OW0      0.000000       15.9990           
    5514 A    8388 TIP4 H1   HW0      0.679100        1.0080           
    5515 A    8388 TIP4 H2   HW0      0.679100        1.0080           
    5516 A    8388 TIP4 BD1  LP0     -1.358200        0.0000           
    5517 A    8389 TIP4 O1   OW0      0.000000       15.9990           
    5518 A    8389 TIP4 H1   HW0      0.679100        1.0080           
    5519 A    8389 TIP4 H2   HW0      0.679100        1.0080           
    5520 A    8389 TIP4 BD1  LP0     -1.358200        0.0000           
    5521 A    8390 TIP4 O1   OW0      0.000000       15.9990           
    5522 A    8390 TIP4 H1   HW0      0.679100        1.0080           
    5523 A    8390 TIP4 H2   HW0      0.679100        1.0080           
    5524 A    8390 TIP4 BD1  LP0     -1.358200        0.0000           
    5525 A    8391 TIP4 O1   OW0      0.000000       15.9990           
    5526 A    8391 TIP4 H1   HW0      0.679100        1.0080           
    5527 A    8391 TIP4 H2   HW0      0.679100        1.0080           
    5528 A    8391 TIP4 BD1  LP0     -1.358200        0.0000           
    5529 A    8392 TIP4 O1   OW0      0.000000       15.9990           
    5530 A    8392 TIP4 H1   HW0      0.679100        1.0080           
    5531 A    8392 TIP4 H2   HW0      0.679100        1.0080           
    5532 A    8392 TIP4 BD1  LP0     -1.358200        0.0000           
    5533 A    8393 TIP4 O1   OW0      0.000000       15.9990           
    5534 A    8393 TIP4 H1   HW0      0.679100        1.0080           
    5535 A    8393 TIP4 H2   HW0      0.679100        1.0080           
    5536 A    8393 TIP4 BD1  LP0     -1.358200        0.0000           
    5537 A    8394 TIP4 O1   OW0      0.000000       15.9990           
    5538 A    8394 TIP4 H1   HW0      0.679100        1.0080           
    5539 A    8394 TIP4 H2   HW0      0.679100        1.0080           
    5540 A    8394 TIP4 BD1  LP0     -1.358200        0.0000           
    5541 A    8395 TIP4 O1   OW0      0.000000       15.9990           
    5542 A    8395 TIP4 H1   HW0      0.679100        1.0080           
    5543 A    8395 TIP4 H2   HW0      0.679100        1.0080           
    5544 A    8395 TIP4 BD1  LP0     -1.358200        0.0000           
    5545 A    8396 TIP4 O1   OW0      0.000000       15.9990           
    5546 A    8396 TIP4 H1   HW0      0.679100        1.0080           
    5547 A    8396 TIP4 H2   HW0      0.679100        1.0080           
    5548 A    8396 TIP4 BD1  LP0     -1.358200        0.0000           
    5549 A    8397 TIP4 O1   OW0      0.000000       15.9990           
    5550 A    8397 TIP4 H1   HW0      0.679100        1.0080           
    5551 A    8397 TIP4 H2   HW0      0.679100        1.0080           
    5552 A    8397 TIP4 BD1  LP0     -1.358200        0.0000           
    5553 A    8398 TIP4 O1   OW0      0.000000       15.9990           
    5554 A    8398 TIP4 H1   HW0      0.679100        1.0080           
    5555 A    8398 TIP4 H2   HW0      0.679100        1.0080           
    5556 A    8398 TIP4 BD1  LP0     -1.358200        0.0000           
    5557 A    8399 TIP4 O1   OW0      0.000000       15.9990           
    5558 A    8399 TIP4 H1   HW0      0.679100        1.0080           
    5559 A    8399 TIP4 H2   HW0      0.679100        1.0080           
    5560 A    8399 TIP4 BD1  LP0     -1.358200        0.0000           
    5561 A    8400 TIP4 O1   OW0      0.000000       15.9990           
    5562 A    8400 TIP4 H1   HW0      0.679100        1.0080           
    5563 A    8400 TIP4 H2   HW0      0.679100        1.0080           
    5564 A    8400 TIP4 BD1  LP0     -1.358200        0.0000           
    5565 A    8401 TIP4 O1   OW0      0.000000       15.9990           
    5566 A    8401 TIP4 H1   HW0      0.679100        1.0080           
    5567 A    8401 TIP4 H2   HW0      0.679100        1.0080           
    5568 A    8401 TIP4 BD1  LP0     -1.358200        0.0000           
    5569 A    8402 TIP4 O1   OW0      0.000000       15.9990           
    5570 A    8402 TIP4 H1   HW0      0.679100        1.0080           
    5571 A    8402 TIP4 H2   HW0      0.679100        1.0080           
    5572 A    8402 TIP4 BD1  LP0     -1.358200        0.0000           
    5573 A    8403 TIP4 O1   OW0      0.000000       15.9990           
    5574 A    8403 TIP4 H1   HW0      0.679100        1.0080           
    5575 A    8403 TIP4 H2   HW0      0.679100        1.0080           
    5576 A    8403 TIP4 BD1  LP0     -1.358200        0.0000           
    5577 A    8404 TIP4 O1   OW0      0.000000       15.9990           
    5578 A    8404 TIP4 H1   HW0      0.679100        1.0080           
    5579 A    8404 TIP4 H2   HW0      0.679100        1.0080           
    5580 A    8404 TIP4 BD1  LP0     -1.358200        0.0000           
    5581 A    8405 TIP4 O1   OW0      0.000000       15.9990           
    5582 A    8405 TIP4 H1   HW0      0.679100        1.0080           
    5583 A    8405 TIP4 H2   HW0      0.679100        1.0080           
    5584 A    8405 TIP4 BD1  LP0     -1.358200        0.0000           
    5585 A    8406 TIP4 O1   OW0      0.000000       15.9990           
    5586 A    8406 TIP4 H1   HW0      0.679100        1.0080           
    5587 A    8406 TIP4 H2   HW0      0.679100        1.0080           
    5588 A    8406 TIP4 BD1  LP0     -1.358200        0.0000           
    5589 A    8407 TIP4 O1   OW0      0.000000       15.9990           
    5590 A    8407 TIP4 H1   HW0      0.679100        1.0080           
    5591 A    8407 TIP4 H2   HW0      0.679100        1.0080           
    5592 A    8407 TIP4 BD1  LP0     -1.358200        0.0000           
    5593 A    8408 TIP4 O1   OW0      0.000000       15.9990           
    5594 A    8408 TIP4 H1   HW0      0.679100        1.0080           
    5595 A    8408 TIP4 H2   HW0      0.679100        1.0080           
    5596 A    8408 TIP4 BD1  LP0     -1.358200        0.0000           
    5597 A    8409 TIP4 O1   OW0      0.000000       15.9990           
    5598 A    8409 TIP4 H1   HW0      0.679100        1.0080           
    5599 A    8409 TIP4 H2   HW0      0.679100        1.0080           
    5600 A    8409 TIP4 BD1  LP0     -1.358200        0.0000           
    5601 A    8410 TIP4 O1   OW0      0.000000       15.9990           
    5602 A    8410 TIP4 H1   HW0      0.679100        1.0080           
    5603 A    8410 TIP4 H2   HW0      0.679100        1.0080           
    5604 A    8410 TIP4 BD1  LP0     -1.358200        0.0000           
    5605 A    8411 TIP4 O1   OW0      0.000000       15.9990           
    5606 A    8411 TIP4 H1   HW0      0.679100        1.0080           
    5607 A    8411 TIP4 H2   HW0      0.679100        1.0080           
    5608 A    8411 TIP4 BD1  LP0     -1.358200        0.0000           
    5609 A    8412 TIP4 O1   OW0      0.000000       15.9990           
    5610 A    8412 TIP4 H1   HW0      0.679100        1.0080           
    5611 A    8412 TIP4 H2   HW0      0.679100        1.0080           
    5612 A    8412 TIP4 BD1  LP0     -1.358200        0.0000           
    5613 A    8413 TIP4 O1   OW0      0.000000       15.9990           
    5614 A    8413 TIP4 H1   HW0      0.679100        1.0080           
    5615 A    8413 TIP4 H2   HW0      0.679100        1.0080           
    5616 A    8413 TIP4 BD1  LP0     -1.358200        0.0000           
    5617 A    8414 TIP4 O1   OW0      0.000000       15.9990           
    5618 A    8414 TIP4 H1   HW0      0.679100        1.0080           
    5619 A    8414 TIP4 H2   HW0      0.679100        1.0080           
    5620 A    8414 TIP4 BD1  LP0     -1.358200        0.0000           
    5621 A    8415 TIP4 O1   OW0      0.000000       15.9990           
    5622 A    8415 TIP4 H1   HW0      0.679100        1.0080           
    5623 A    8415 TIP4 H2   HW0      0.679100        1.0080           
    5624 A    8415 TIP4 BD1  LP0     -1.358200        0.0000           
    5625 A    8416 TIP4 O1   OW0      0.000000       15.9990           
    5626 A    8416 TIP4 H1   HW0      0.679100        1.0080           
    5627 A    8416 TIP4 H2   HW0      0.679100        1.0080           
    5628 A    8416 TIP4 BD1  LP0     -1.358200        0.0000           
    5629 A    8417 TIP4 O1   OW0      0.000000       15.9990           
    5630 A    8417 TIP4 H1   HW0      0.679100        1.0080           
    5631 A    8417 TIP4 H2   HW0      0.679100        1.0080           
    5632 A    8417 TIP4 BD1  LP0     -1.358200        0.0000           
    5633 A    8418 TIP4 O1   OW0      0.000000       15.9990           
    5634 A    8418 TIP4 H1   HW0      0.679100        1.0080           
    5635 A    8418 TIP4 H2   HW0      0.679100        1.0080           
    5636 A    8418 TIP4 BD1  LP0     -1.358200        0.0000           
    5637 A    8419 TIP4 O1   OW0      0.000000       15.9990           
    5638 A    8419 TIP4 H1   HW0      0.679100        1.0080           
    5639 A    8419 TIP4 H2   HW0      0.679100        1.0080           
    5640 A    8419 TIP4 BD1  LP0     -1.358200        0.0000           
    5641 A    8420 TIP4 O1   OW0      0.000000       15.9990           
    5642 A    8420 TIP4 H1   HW0      0.679100        1.0080           
    5643 A    8420 TIP4 H2   HW0      0.679100        1.0080           
    5644 A    8420 TIP4 BD1  LP0     -1.358200        0.0000           
    5645 A    8421 TIP4 O1   OW0      0.000000       15.9990           
    5646 A    8421 TIP4 H1   HW0      0.679100        1.0080           
    5647 A    8421 TIP4 H2   HW0      0.679100        1.0080           
    5648 A    8421 TIP4 BD1  LP0     -1.358200        0.0000           
    5649 A    8422 TIP4 O1   OW0      0.000000       15.9990           
    5650 A    8422 TIP4 H1   HW0      0.679100        1.0080           
    5651 A    8422 TIP4 H2   HW0      0.679100        1.0080           
    5652 A    8422 TIP4 BD1  LP0     -1.358200        0.0000           
    5653 A    8423 TIP4 O1   OW0      0.000000       15.9990           
    5654 A    8423 TIP4 H1   HW0      0.679100        1.0080           
    5655 A    8423 TIP4 H2   HW0      0.679100        1.0080           
    5656 A    8423 TIP4 BD1  LP0     -1.358200        0.0000           
    5657 A    8424 TIP4 O1   OW0      0.000000       15.9990           
    5658 A    8424 TIP4 H1   HW0      0.679100        1.0080           
    5659 A    8424 TIP4 H2   HW0      0.679100        1.0080           
    5660 A    8424 TIP4 BD1  LP0     -1.358200        0.0000           
    5661 A    8425 TIP4 O1   OW0      0.000000       15.9990           
    5662 A    8425 TIP4 H1   HW0      0.679100        1.0080           
    5663 A    8425 TIP4 H2   HW0      0.679100        1.0080           
    5664 A    8425 TIP4 BD1  LP0     -1.358200        0.0000           
    5665 A    8426 TIP4 O1   OW0      0.000000       15.9990           
    5666 A    8426 TIP4 H1   HW0      0.679100        1.0080           
    5667 A    8426 TIP4 H2   HW0      0.679100        1.0080           
    5668 A    8426 TIP4 BD1  LP0     -1.358200        0.0000           
    5669 A    8427 TIP4 O1   OW0      0.000000       15.9990           
    5670 A    8427 TIP4 H1   HW0      0.679100        1.0080           
    5671 A    8427 TIP4 H2   HW0      0.679100        1.0080           
    5672 A    8427 TIP4 BD1  LP0     -1.358200        0.0000           
    5673 A    8428 TIP4 O1   OW0      0.000000       15.9990           
    5674 A    8428 TIP4 H1   HW0      0.679100        1.0080           
    5675 A    8428 TIP4 H2   HW0      0.679100        1.0080           
    5676 A    8428 TIP4 BD1  LP0     -1.358200        0.0000           
    5677 A    8429 TIP4 O1   OW0      0.000000       15.9990           
    5678 A    8429 TIP4 H1   HW0      0.679100        1.0080           
    5679 A    8429 TIP4 H2   HW0      0.679100        1.0080           
    5680 A    8429 TIP4 BD1  LP0     -1.358200        0.0000           
    5681 A    8430 TIP4 O1   OW0      0.000000       15.9990           
    5682 A    8430 TIP4 H1   HW0      0.679100        1.0080           
    5683 A    8430 TIP4 H2   HW0      0.679100        1.0080           
    5684 A    8430 TIP4 BD1  LP0     -1.358200        0.0000           
    5685 A    8431 TIP4 O1   OW0      0.000000       15.9990           
    5686 A    8431 TIP4 H1   HW0      0.679100        1.0080           
    5687 A    8431 TIP4 H2   HW0      0.679100        1.0080           
    5688 A    8431 TIP4 BD1  LP0     -1.358200        0.0000           
    5689 A    8432 TIP4 O1   OW0      0.000000       15.9990           
    5690 A    8432 TIP4 H1   HW0      0.679100        1.0080           
    5691 A    8432 TIP4 H2   HW0      0.679100        1.0080           
    5692 A    8432 TIP4 BD1  LP0     -1.358200        0.0000           
    5693 A    8433 TIP4 O1   OW0      0.000000       15.9990           
    5694 A    8433 TIP4 H1   HW0      0.679100        1.0080           
    5695 A    8433 TIP4 H2   HW0      0.679100        1.0080           
    5696 A    8433 TIP4 BD1  LP0     -1.358200        0.0000           
    5697 A    8434 TIP4 O1   OW0      0.000000       15.9990           
    5698 A    8434 TIP4 H1   HW0      0.679100        1.0080           
    5699 A    8434 TIP4 H2   HW0      0.679100        1.0080           
    5700 A    8434 TIP4 BD1  LP0     -1.358200        0.0000           
    5701 A    8435 TIP4 O1   OW0      0.000000       15.9990           
    5702 A    8435 TIP4 H1   HW0      0.679100        1.0080           
    5703 A    8435 TIP4 H2   HW0      0.679100        1.0080           
    5704 A    8435 TIP4 BD1  LP0     -1.358200        0.0000           
    5705 A    8436 TIP4 O1   OW0      0.000000       15.9990           
    5706 A    8436 TIP4 H1   HW0      0.679100        1.0080           
    5707 A    8436 TIP4 H2   HW0      0.679100        1.0080           
    5708 A    8436 TIP4 BD1  LP0     -1.358200        0.0000           
    5709 A    8437 TIP4 O1   OW0      0.000000       15.9990           
    5710 A    8437 TIP4 H1   HW0      0.679100        1.0080           
    5711 A    8437 TIP4 H2   HW0      0.679100        1.0080           
    5712 A    8437 TIP4 BD1  LP0     -1.358200        0.0000           
    5713 A    8438 TIP4 O1   OW0      0.000000       15.9990           
    5714 A    8438 TIP4 H1   HW0      0.679100        1.0080           
    5715 A    8438 TIP4 H2   HW0      0.679100        1.0080           
    5716 A    8438 TIP4 BD1  LP0     -1.358200        0.0000           
    5717 A    8439 TIP4 O1   OW0      0.000000       15.9990           
    5718 A    8439 TIP4 H1   HW0      0.679100        1.0080           
    5719 A    8439 TIP4 H2   HW0      0.679100        1.0080           
    5720 A    8439 TIP4 BD1  LP0     -1.358200        0.0000           
    5721 A    8440 TIP4 O1   OW0      0.000000       15.9990           
    5722 A    8440 TIP4 H1   HW0      0.679100        1.0080           
    5723 A    8440 TIP4 H2   HW0      0.679100        1.0080           
    5724 A    8440 TIP4 BD1  LP0     -1.358200        0.0000           
    5725 A    8441 TIP4 O1   OW0      0.000000       15.9990           
    5726 A    8441 TIP4 H1   HW0      0.679100        1.0080           
    5727 A    8441 TIP4 H2   HW0      0.679100        1.0080           
    5728 A    8441 TIP4 BD1  LP0     -1.358200        0.0000           
    5729 A    8442 TIP4 O1   OW0      0.000000       15.9990           
    5730 A    8442 TIP4 H1   HW0      0.679100        1.0080           
    5731 A    8442 TIP4 H2   HW0      0.679100        1.0080           
    5732 A    8442 TIP4 BD1  LP0     -1.358200        0.0000           
    5733 A    8443 TIP4 O1   OW0      0.000000       15.9990           
    5734 A    8443 TIP4 H1   HW0      0.679100        1.0080           
    5735 A    8443 TIP4 H2   HW0      0.679100        1.0080           
    5736 A    8443 TIP4 BD1  LP0     -1.358200        0.0000           
    5737 A    8444 TIP4 O1   OW0      0.000000       15.9990           
    5738 A    8444 TIP4 H1   HW0      0.679100        1.0080           
    5739 A    8444 TIP4 H2   HW0      0.679100        1.0080           
    5740 A    8444 TIP4 BD1  LP0     -1.358200        0.0000           
    5741 A    8445 TIP4 O1   OW0      0.000000       15.9990           
    5742 A    8445 TIP4 H1   HW0      0.679100        1.0080           
    5743 A    8445 TIP4 H2   HW0      0.679100        1.0080           
    5744 A    8445 TIP4 BD1  LP0     -1.358200        0.0000           
    5745 A    8446 TIP4 O1   OW0      0.000000       15.9990           
    5746 A    8446 TIP4 H1   HW0      0.679100        1.0080           
    5747 A    8446 TIP4 H2   HW0      0.679100        1.0080           
    5748 A    8446 TIP4 BD1  LP0     -1.358200        0.0000           
    5749 A    8447 TIP4 O1   OW0      0.000000       15.9990           
    5750 A    8447 TIP4 H1   HW0      0.679100        1.0080           
    5751 A    8447 TIP4 H2   HW0      0.679100        1.0080           
    5752 A    8447 TIP4 BD1  LP0     -1.358200        0.0000           
    5753 A    8448 TIP4 O1   OW0      0.000000       15.9990           
    5754 A    8448 TIP4 H1   HW0      0.679100        1.0080           
    5755 A    8448 TIP4 H2   HW0      0.679100        1.0080           
    5756 A    8448 TIP4 BD1  LP0     -1.358200        0.0000           
    5757 A    8449 TIP4 O1   OW0      0.000000       15.9990           
    5758 A    8449 TIP4 H1   HW0      0.679100        1.0080           
    5759 A    8449 TIP4 H2   HW0      0.679100        1.0080           
    5760 A    8449 TIP4 BD1  LP0     -1.358200        0.0000           
    5761 A    8450 TIP4 O1   OW0      0.000000       15.9990           
    5762 A    8450 TIP4 H1   HW0      0.679100        1.0080           
    5763 A    8450 TIP4 H2   HW0      0.679100        1.0080           
    5764 A    8450 TIP4 BD1  LP0     -1.358200        0.0000           
    5765 A    8451 TIP4 O1   OW0      0.000000       15.9990           
    5766 A    8451 TIP4 H1   HW0      0.679100        1.0080           
    5767 A    8451 TIP4 H2   HW0      0.679100        1.0080           
    5768 A    8451 TIP4 BD1  LP0     -1.358200        0.0000           
    5769 A    8452 TIP4 O1   OW0      0.000000       15.9990           
    5770 A    8452 TIP4 H1   HW0      0.679100        1.0080           
    5771 A    8452 TIP4 H2   HW0      0.679100        1.0080           
    5772 A    8452 TIP4 BD1  LP0     -1.358200        0.0000           
    5773 A    8453 TIP4 O1   OW0      0.000000       15.9990           
    5774 A    8453 TIP4 H1   HW0      0.679100        1.0080           
    5775 A    8453 TIP4 H2   HW0      0.679100        1.0080           
    5776 A    8453 TIP4 BD1  LP0     -1.358200        0.0000           
    5777 A    8454 TIP4 O1   OW0      0.000000       15.9990           
    5778 A    8454 TIP4 H1   HW0      0.679100        1.0080           
    5779 A    8454 TIP4 H2   HW0      0.679100        1.0080           
    5780 A    8454 TIP4 BD1  LP0     -1.358200        0.0000           
    5781 A    8455 TIP4 O1   OW0      0.000000       15.9990           
    5782 A    8455 TIP4 H1   HW0      0.679100        1.0080           
    5783 A    8455 TIP4 H2   HW0      0.679100        1.0080           
    5784 A    8455 TIP4 BD1  LP0     -1.358200        0.0000           
    5785 A    8456 TIP4 O1   OW0      0.000000       15.9990           
    5786 A    8456 TIP4 H1   HW0      0.679100        1.0080           
    5787 A    8456 TIP4 H2   HW0      0.679100        1.0080           
    5788 A    8456 TIP4 BD1  LP0     -1.358200        0.0000           
    5789 A    8457 TIP4 O1   OW0      0.000000       15.9990           
    5790 A    8457 TIP4 H1   HW0      0.679100        1.0080           
    5791 A    8457 TIP4 H2   HW0      0.679100        1.0080           
    5792 A    8457 TIP4 BD1  LP0     -1.358200        0.0000           
    5793 A    8458 TIP4 O1   OW0      0.000000       15.9990           
    5794 A    8458 TIP4 H1   HW0      0.679100        1.0080           
    5795 A    8458 TIP4 H2   HW0      0.679100        1.0080           
    5796 A    8458 TIP4 BD1  LP0     -1.358200        0.0000           
    5797 A    8459 TIP4 O1   OW0      0.000000       15.9990           
    5798 A    8459 TIP4 H1   HW0      0.679100        1.0080           
    5799 A    8459 TIP4 H2   HW0      0.679100        1.0080           
    5800 A    8459 TIP4 BD1  LP0     -1.358200        0.0000           
    5801 A    8460 TIP4 O1   OW0      0.000000       15.9990           
    5802 A    8460 TIP4 H1   HW0      0.679100        1.0080           
    5803 A    8460 TIP4 H2   HW0      0.679100        1.0080           
    5804 A    8460 TIP4 BD1  LP0     -1.358200        0.0000           
    5805 A    8461 TIP4 O1   OW0      0.000000       15.9990           
    5806 A    8461 TIP4 H1   HW0      0.679100        1.0080           
    5807 A    8461 TIP4 H2   HW0      0.679100        1.0080           
    5808 A    8461 TIP4 BD1  LP0     -1.358200        0.0000           
    5809 A    8462 TIP4 O1   OW0      0.000000       15.9990           
    5810 A    8462 TIP4 H1   HW0      0.679100        1.0080           
    5811 A    8462 TIP4 H2   HW0      0.679100        1.0080           
    5812 A    8462 TIP4 BD1  LP0     -1.358200        0.0000           
    5813 A    8463 TIP4 O1   OW0      0.000000       15.9990           
    5814 A    8463 TIP4 H1   HW0      0.679100        1.0080           
    5815 A    8463 TIP4 H2   HW0      0.679100        1.0080           
    5816 A    8463 TIP4 BD1  LP0     -1.358200        0.0000           
    5817 A    8464 TIP4 O1   OW0      0.000000       15.9990           
    5818 A    8464 TIP4 H1   HW0      0.679100        1.0080           
    5819 A    8464 TIP4 H2   HW0      0.679100        1.0080           
    5820 A    8464 TIP4 BD1  LP0     -1.358200        0.0000           
    5821 A    8465 TIP4 O1   OW0      0.000000       15.9990           
    5822 A    8465 TIP4 H1   HW0      0.679100        1.0080           
    5823 A    8465 TIP4 H2   HW0      0.679100        1.0080           
    5824 A    8465 TIP4 BD1  LP0     -1.358200        0.0000           
    5825 A    8466 TIP4 O1   OW0      0.000000       15.9990           
    5826 A    8466 TIP4 H1   HW0      0.679100        1.0080           
    5827 A    8466 TIP4 H2   HW0      0.679100        1.0080           
    5828 A    8466 TIP4 BD1  LP0     -1.358200        0.0000           
    5829 A    8467 TIP4 O1   OW0      0.000000       15.9990           
    5830 A    8467 TIP4 H1   HW0      0.679100        1.0080           
    5831 A    8467 TIP4 H2   HW0      0.679100        1.0080           
    5832 A    8467 TIP4 BD1  LP0     -1.358200        0.0000           
    5833 A    8468 TIP4 O1   OW0      0.000000       15.9990           
    5834 A    8468 TIP4 H1   HW0      0.679100        1.0080           
    5835 A    8468 TIP4 H2   HW0      0.679100        1.0080           
    5836 A    8468 TIP4 BD1  LP0     -1.358200        0.0000           
    5837 A    8469 TIP4 O1   OW0      0.000000       15.9990           
    5838 A    8469 TIP4 H1   HW0      0.679100        1.0080           
    5839 A    8469 TIP4 H2   HW0      0.679100        1.0080           
    5840 A    8469 TIP4 BD1  LP0     -1.358200        0.0000           
    5841 A    8470 TIP4 O1   OW0      0.000000       15.9990           
    5842 A    8470 TIP4 H1   HW0      0.679100        1.0080           
    5843 A    8470 TIP4 H2   HW0      0.679100        1.0080           
    5844 A    8470 TIP4 BD1  LP0     -1.358200        0.0000           
    5845 A    8471 TIP4 O1   OW0      0.000000       15.9990           
    5846 A    8471 TIP4 H1   HW0      0.679100        1.0080           
    5847 A    8471 TIP4 H2   HW0      0.679100        1.0080           
    5848 A    8471 TIP4 BD1  LP0     -1.358200        0.0000           
    5849 A    8472 TIP4 O1   OW0      0.000000       15.9990           
    5850 A    8472 TIP4 H1   HW0      0.679100        1.0080           
    5851 A    8472 TIP4 H2   HW0      0.679100        1.0080           
    5852 A    8472 TIP4 BD1  LP0     -1.358200        0.0000           
    5853 A    8473 TIP4 O1   OW0      0.000000       15.9990           
    5854 A    8473 TIP4 H1   HW0      0.679100        1.0080           
    5855 A    8473 TIP4 H2   HW0      0.679100        1.0080           
    5856 A    8473 TIP4 BD1  LP0     -1.358200        0.0000           
    5857 A    8474 TIP4 O1   OW0      0.000000       15.9990           
    5858 A    8474 TIP4 H1   HW0      0.679100        1.0080           
    5859 A    8474 TIP4 H2   HW0      0.679100        1.0080           
    5860 A    8474 TIP4 BD1  LP0     -1.358200        0.0000           
    5861 A    8475 TIP4 O1   OW0      0.000000       15.9990           
    5862 A    8475 TIP4 H1   HW0      0.679100        1.0080           
    5863 A    8475 TIP4 H2   HW0      0.679100        1.0080           
    5864 A    8475 TIP4 BD1  LP0     -1.358200        0.0000           
    5865 A    8476 TIP4 O1   OW0      0.000000       15.9990           
    5866 A    8476 TIP4 H1   HW0      0.679100        1.0080           
    5867 A    8476 TIP4 H2   HW0      0.679100        1.0080           
    5868 A    8476 TIP4 BD1  LP0     -1.358200        0.0000           
    5869 A    8477 TIP4 O1   OW0      0.000000       15.9990           
    5870 A    8477 TIP4 H1   HW0      0.679100        1.0080           
    5871 A    8477 TIP4 H2   HW0      0.679100        1.0080           
    5872 A    8477 TIP4 BD1  LP0     -1.358200        0.0000           
    5873 A    8478 TIP4 O1   OW0      0.000000       15.9990           
    5874 A    8478 TIP4 H1   HW0      0.679100        1.0080           
    5875 A    8478 TIP4 H2   HW0      0.679100        1.0080           
    5876 A    8478 TIP4 BD1  LP0     -1.358200        0.0000           
    5877 A    8479 TIP4 O1   OW0      0.000000       15.9990           
    5878 A    8479 TIP4 H1   HW0      0.679100        1.0080           
    5879 A    8479 TIP4 H2   HW0      0.679100        1.0080           
    5880 A    8479 TIP4 BD1  LP0     -1.358200        0.0000           
    5881 A    8480 TIP4 O1   OW0      0.000000       15.9990           
    5882 A    8480 TIP4 H1   HW0      0.679100        1.0080           
    5883 A    8480 TIP4 H2   HW0      0.679100        1.0080           
    5884 A    8480 TIP4 BD1  LP0     -1.358200        0.0000           
    5885 A    8481 TIP4 O1   OW0      0.000000       15.9990           
    5886 A    8481 TIP4 H1   HW0      0.679100        1.0080           
    5887 A    8481 TIP4 H2   HW0      0.679100        1.0080           
    5888 A    8481 TIP4 BD1  LP0     -1.358200        0.0000           
    5889 A    8482 TIP4 O1   OW0      0.000000       15.9990           
    5890 A    8482 TIP4 H1   HW0      0.679100        1.0080           
    5891 A    8482 TIP4 H2   HW0      0.679100        1.0080           
    5892 A    8482 TIP4 BD1  LP0     -1.358200        0.0000           
    5893 A    8483 TIP4 O1   OW0      0.000000       15.9990           
    5894 A    8483 TIP4 H1   HW0      0.679100        1.0080           
    5895 A    8483 TIP4 H2   HW0      0.679100        1.0080           
    5896 A    8483 TIP4 BD1  LP0     -1.358200        0.0000           
    5897 A    8484 TIP4 O1   OW0      0.000000       15.9990           
    5898 A    8484 TIP4 H1   HW0      0.679100        1.0080           
    5899 A    8484 TIP4 H2   HW0      0.679100        1.0080           
    5900 A    8484 TIP4 BD1  LP0     -1.358200        0.0000           
    5901 A    8485 TIP4 O1   OW0      0.000000       15.9990           
    5902 A    8485 TIP4 H1   HW0      0.679100        1.0080           
    5903 A    8485 TIP4 H2   HW0      0.679100        1.0080           
    5904 A    8485 TIP4 BD1  LP0     -1.358200        0.0000           
    5905 A    8486 TIP4 O1   OW0      0.000000       15.9990           
    5906 A    8486 TIP4 H1   HW0      0.679100        1.0080           
    5907 A    8486 TIP4 H2   HW0      0.679100        1.0080           
    5908 A    8486 TIP4 BD1  LP0     -1.358200        0.0000           
    5909 A    8487 TIP4 O1   OW0      0.000000       15.9990           
    5910 A    8487 TIP4 H1   HW0      0.679100        1.0080           
    5911 A    8487 TIP4 H2   HW0      0.679100        1.0080           
    5912 A    8487 TIP4 BD1  LP0     -1.358200        0.0000           
    5913 A    8488 TIP4 O1   OW0      0.000000       15.9990           
    5914 A    8488 TIP4 H1   HW0      0.679100        1.0080           
    5915 A    8488 TIP4 H2   HW0      0.679100        1.0080           
    5916 A    8488 TIP4 BD1  LP0     -1.358200        0.0000           
    5917 A    8489 TIP4 O1   OW0      0.000000       15.9990           
    5918 A    8489 TIP4 H1   HW0      0.679100        1.0080           
    5919 A    8489 TIP4 H2   HW0      0.679100        1.0080           
    5920 A    8489 TIP4 BD1  LP0     -1.358200        0.0000           
    5921 A    8490 TIP4 O1   OW0      0.000000       15.9990           
    5922 A    8490 TIP4 H1   HW0      0.679100        1.0080           
    5923 A    8490 TIP4 H2   HW0      0.679100        1.0080           
    5924 A    8490 TIP4 BD1  LP0     -1.358200        0.0000           
    5925 A    8491 TIP4 O1   OW0      0.000000       15.9990           
    5926 A    8491 TIP4 H1   HW0      0.679100        1.0080           
    5927 A    8491 TIP4 H2   HW0      0.679100        1.0080           
    5928 A    8491 TIP4 BD1  LP0     -1.358200        0.0000           
    5929 A    8492 TIP4 O1   OW0      0.000000       15.9990           
    5930 A    8492 TIP4 H1   HW0      0.679100        1.0080           
    5931 A    8492 TIP4 H2   HW0      0.679100        1.0080           
    5932 A    8492 TIP4 BD1  LP0     -1.358200        0.0000           
    5933 A    8493 TIP4 O1   OW0      0.000000       15.9990           
    5934 A    8493 TIP4 H1   HW0      0.679100        1.0080           
    5935 A    8493 TIP4 H2   HW0      0.679100        1.0080           
    5936 A    8493 TIP4 BD1  LP0     -1.358200        0.0000           
    5937 A    8494 TIP4 O1   OW0      0.000000       15.9990           
    5938 A    8494 TIP4 H1   HW0      0.679100        1.0080           
    5939 A    8494 TIP4 H2   HW0      0.679100        1.0080           
    5940 A    8494 TIP4 BD1  LP0     -1.358200        0.0000           
    5941 A    8495 TIP4 O1   OW0      0.000000       15.9990           
    5942 A    8495 TIP4 H1   HW0      0.679100        1.0080           
    5943 A    8495 TIP4 H2   HW0      0.679100        1.0080           
    5944 A    8495 TIP4 BD1  LP0     -1.358200        0.0000           
    5945 A    8496 TIP4 O1   OW0      0.000000       15.9990           
    5946 A    8496 TIP4 H1   HW0      0.679100        1.0080           
    5947 A    8496 TIP4 H2   HW0      0.679100        1.0080           
    5948 A    8496 TIP4 BD1  LP0     -1.358200        0.0000           
    5949 A    8497 TIP4 O1   OW0      0.000000       15.9990           
    5950 A    8497 TIP4 H1   HW0      0.679100        1.0080           
    5951 A    8497 TIP4 H2   HW0      0.679100        1.0080           
    5952 A    8497 TIP4 BD1  LP0     -1.358200        0.0000           
    5953 A    8498 TIP4 O1   OW0      0.000000       15.9990           
    5954 A    8498 TIP4 H1   HW0      0.679100        1.0080           
    5955 A    8498 TIP4 H2   HW0      0.679100        1.0080           
    5956 A    8498 TIP4 BD1  LP0     -1.358200        0.0000           
    5957 A    8499 TIP4 O1   OW0      0.000000       15.9990           
    5958 A    8499 TIP4 H1   HW0      0.679100        1.0080           
    5959 A    8499 TIP4 H2   HW0      0.679100        1.0080           
    5960 A    8499 TIP4 BD1  LP0     -1.358200        0.0000           
    5961 A    8500 TIP4 O1   OW0      0.000000       15.9990           
    5962 A    8500 TIP4 H1   HW0      0.679100        1.0080           
    5963 A    8500 TIP4 H2   HW0      0.679100        1.0080           
    5964 A    8500 TIP4 BD1  LP0     -1.358200        0.0000           
    5965 A    8501 TIP4 O1   OW0      0.000000       15.9990           
    5966 A    8501 TIP4 H1   HW0      0.679100        1.0080           
    5967 A    8501 TIP4 H2   HW0      0.679100        1.0080           
    5968 A    8501 TIP4 BD1  LP0     -1.358200        0.0000           
    5969 A    8502 TIP4 O1   OW0      0.000000       15.9990           
    5970 A    8502 TIP4 H1   HW0      0.679100        1.0080           
    5971 A    8502 TIP4 H2   HW0      0.679100        1.0080           
    5972 A    8502 TIP4 BD1  LP0     -1.358200        0.0000           
    5973 A    8503 TIP4 O1   OW0      0.000000       15.9990           
    5974 A    8503 TIP4 H1   HW0      0.679100        1.0080           
    5975 A    8503 TIP4 H2   HW0      0.679100        1.0080           
    5976 A    8503 TIP4 BD1  LP0     -1.358200        0.0000           
    5977 A    8504 TIP4 O1   OW0      0.000000       15.9990           
    5978 A    8504 TIP4 H1   HW0      0.679100        1.0080           
    5979 A    8504 TIP4 H2   HW0      0.679100        1.0080           
    5980 A    8504 TIP4 BD1  LP0     -1.358200        0.0000           
    5981 A    8505 TIP4 O1   OW0      0.000000       15.9990           
    5982 A    8505 TIP4 H1   HW0      0.679100        1.0080           
    5983 A    8505 TIP4 H2   HW0      0.679100        1.0080           
    5984 A    8505 TIP4 BD1  LP0     -1.358200        0.0000           
    5985 A    8506 TIP4 O1   OW0      0.000000       15.9990           
    5986 A    8506 TIP4 H1   HW0      0.679100        1.0080           
    5987 A    8506 TIP4 H2   HW0      0.679100        1.0080           
    5988 A    8506 TIP4 BD1  LP0     -1.358200        0.0000           
    5989 A    8507 TIP4 O1   OW0      0.000000       15.9990           
    5990 A    8507 TIP4 H1   HW0      0.679100        1.0080           
    5991 A    8507 TIP4 H2   HW0      0.679100        1.0080           
    5992 A    8507 TIP4 BD1  LP0     -1.358200        0.0000           
    5993 A    8508 TIP4 O1   OW0      0.000000       15.9990           
    5994 A    8508 TIP4 H1   HW0      0.679100        1.0080           
    5995 A    8508 TIP4 H2   HW0      0.679100        1.0080           
    5996 A    8508 TIP4 BD1  LP0     -1.358200        0.0000           
    5997 A    8509 TIP4 O1   OW0      0.000000       15.9990           
    5998 A    8509 TIP4 H1   HW0      0.679100        1.0080           
    5999 A    8509 TIP4 H2   HW0      0.679100        1.0080           
    6000 A    8509 TIP4 BD1  LP0     -1.358200        0.0000           
    6001 A    8510 TIP4 O1   OW0      0.000000       15.9990           
    6002 A    8510 TIP4 H1   HW0      0.679100        1.0080           
    6003 A    8510 TIP4 H2   HW0      0.679100        1.0080           
    6004 A    8510 TIP4 BD1  LP0     -1.358200        0.0000           
    6005 A    8511 TIP4 O1   OW0      0.000000       15.9990           
    6006 A    8511 TIP4 H1   HW0      0.679100        1.0080           
    6007 A    8511 TIP4 H2   HW0      0.679100        1.0080           
    6008 A    8511 TIP4 BD1  LP0     -1.358200        0.0000           
    6009 A    8512 TIP4 O1   OW0      0.000000       15.9990           
    6010 A    8512 TIP4 H1   HW0      0.679100        1.0080           
    6011 A    8512 TIP4 H2   HW0      0.679100        1.0080           
    6012 A    8512 TIP4 BD1  LP0     -1.358200        0.0000           
    6013 A    8513 TIP4 O1   OW0      0.000000       15.9990           
    6014 A    8513 TIP4 H1   HW0      0.679100        1.0080           
    6015 A    8513 TIP4 H2   HW0      0.679100        1.0080           
    6016 A    8513 TIP4 BD1  LP0     -1.358200        0.0000           
    6017 A    8514 TIP4 O1   OW0      0.000000       15.9990           
    6018 A    8514 TIP4 H1   HW0      0.679100        1.0080           
    6019 A    8514 TIP4 H2   HW0      0.679100        1.0080           
    6020 A    8514 TIP4 BD1  LP0     -1.358200        0.0000           
    6021 A    8515 TIP4 O1   OW0      0.000000       15.9990           
    6022 A    8515 TIP4 H1   HW0      0.679100        1.0080           
    6023 A    8515 TIP4 H2   HW0      0.679100        1.0080           
    6024 A    8515 TIP4 BD1  LP0     -1.358200        0.0000           
    6025 A    8516 TIP4 O1   OW0      0.000000       15.9990           
    6026 A    8516 TIP4 H1   HW0      0.679100        1.0080           
    6027 A    8516 TIP4 H2   HW0      0.679100        1.0080           
    6028 A    8516 TIP4 BD1  LP0     -1.358200        0.0000           
    6029 A    8517 TIP4 O1   OW0      0.000000       15.9990           
    6030 A    8517 TIP4 H1   HW0      0.679100        1.0080           
    6031 A    8517 TIP4 H2   HW0      0.679100        1.0080           
    6032 A    8517 TIP4 BD1  LP0     -1.358200        0.0000           
    6033 A    8518 TIP4 O1   OW0      0.000000       15.9990           
    6034 A    8518 TIP4 H1   HW0      0.679100        1.0080           
    6035 A    8518 TIP4 H2   HW0      0.679100        1.0080           
    6036 A    8518 TIP4 BD1  LP0     -1.358200        0.0000           
    6037 A    8519 TIP4 O1   OW0      0.000000       15.9990           
    6038 A    8519 TIP4 H1   HW0      0.679100        1.0080           
    6039 A    8519 TIP4 H2   HW0      0.679100        1.0080           
    6040 A    8519 TIP4 BD1  LP0     -1.358200        0.0000           
    6041 A    8520 TIP4 O1   OW0      0.000000       15.9990           
    6042 A    8520 TIP4 H1   HW0      0.679100        1.0080           
    6043 A    8520 TIP4 H2   HW0      0.679100        1.0080           
    6044 A    8520 TIP4 BD1  LP0     -1.358200        0.0000           
    6045 A    8521 TIP4 O1   OW0      0.000000       15.9990           
    6046 A    8521 TIP4 H1   HW0      0.679100        1.0080           
    6047 A    8521 TIP4 H2   HW0      0.679100        1.0080           
    6048 A    8521 TIP4 BD1  LP0     -1.358200        0.0000           
    6049 A    8522 TIP4 O1   OW0      0.000000       15.9990           
    6050 A    8522 TIP4 H1   HW0      0.679100        1.0080           
    6051 A    8522 TIP4 H2   HW0      0.679100        1.0080           
    6052 A    8522 TIP4 BD1  LP0     -1.358200        0.0000           
    6053 A    8523 TIP4 O1   OW0      0.000000       15.9990           
    6054 A    8523 TIP4 H1   HW0      0.679100        1.0080           
    6055 A    8523 TIP4 H2   HW0      0.679100        1.0080           
    6056 A    8523 TIP4 BD1  LP0     -1.358200        0.0000           
    6057 A    8524 TIP4 O1   OW0      0.000000       15.9990           
    6058 A    8524 TIP4 H1   HW0      0.679100        1.0080           
    6059 A    8524 TIP4 H2   HW0      0.679100        1.0080           
    6060 A    8524 TIP4 BD1  LP0     -1.358200        0.0000           
    6061 A    8525 TIP4 O1   OW0      0.000000       15.9990           
    6062 A    8525 TIP4 H1   HW0      0.679100        1.0080           
    6063 A    8525 TIP4 H2   HW0      0.679100        1.0080           
    6064 A    8525 TIP4 BD1  LP0     -1.358200        0.0000           
    6065 A    8526 TIP4 O1   OW0      0.000000       15.9990           
    6066 A    8526 TIP4 H1   HW0      0.679100        1.0080           
    6067 A    8526 TIP4 H2   HW0      0.679100        1.0080           
    6068 A    8526 TIP4 BD1  LP0     -1.358200        0.0000           
    6069 A    8527 TIP4 O1   OW0      0.000000       15.9990           
    6070 A    8527 TIP4 H1   HW0      0.679100        1.0080           
    6071 A    8527 TIP4 H2   HW0      0.679100        1.0080           
    6072 A    8527 TIP4 BD1  LP0     -1.358200        0.0000           
    6073 A    8528 TIP4 O1   OW0      0.000000       15.9990           
    6074 A    8528 TIP4 H1   HW0      0.679100        1.0080           
    6075 A    8528 TIP4 H2   HW0      0.679100        1.0080           
    6076 A    8528 TIP4 BD1  LP0     -1.358200        0.0000           
    6077 A    8529 TIP4 O1   OW0      0.000000       15.9990           
    6078 A    8529 TIP4 H1   HW0      0.679100        1.0080           
    6079 A    8529 TIP4 H2   HW0      0.679100        1.0080           
    6080 A    8529 TIP4 BD1  LP0     -1.358200        0.0000           
    6081 A    8530 TIP4 O1   OW0      0.000000       15.9990           
    6082 A    8530 TIP4 H1   HW0      0.679100        1.0080           
    6083 A    8530 TIP4 H2   HW0      0.679100        1.0080           
    6084 A    8530 TIP4 BD1  LP0     -1.358200        0.0000           
    6085 A    8531 TIP4 O1   OW0      0.000000       15.9990           
    6086 A    8531 TIP4 H1   HW0      0.679100        1.0080           
    6087 A    8531 TIP4 H2   HW0      0.679100        1.0080           
    6088 A    8531 TIP4 BD1  LP0     -1.358200        0.0000           
    6089 A    8532 TIP4 O1   OW0      0.000000       15.9990           
    6090 A    8532 TIP4 H1   HW0      0.679100        1.0080           
    6091 A    8532 TIP4 H2   HW0      0.679100        1.0080           
    6092 A    8532 TIP4 BD1  LP0     -1.358200        0.0000           
    6093 A    8533 TIP4 O1   OW0      0.000000       15.9990           
    6094 A    8533 TIP4 H1   HW0      0.679100        1.0080           
    6095 A    8533 TIP4 H2   HW0      0.679100        1.0080           
    6096 A    8533 TIP4 BD1  LP0     -1.358200        0.0000           
    6097 A    8534 TIP4 O1   OW0      0.000000       15.9990           
    6098 A    8534 TIP4 H1   HW0      0.679100        1.0080           
    6099 A    8534 TIP4 H2   HW0      0.679100        1.0080           
    6100 A    8534 TIP4 BD1  LP0     -1.358200        0.0000           
    6101 A    8535 TIP4 O1   OW0      0.000000       15.9990           
    6102 A    8535 TIP4 H1   HW0      0.679100        1.0080           
    6103 A    8535 TIP4 H2   HW0      0.679100        1.0080           
    6104 A    8535 TIP4 BD1  LP0     -1.358200        0.0000           
    6105 A    8536 TIP4 O1   OW0      0.000000       15.9990           
    6106 A    8536 TIP4 H1   HW0      0.679100        1.0080           
    6107 A    8536 TIP4 H2   HW0      0.679100        1.0080           
    6108 A    8536 TIP4 BD1  LP0     -1.358200        0.0000           
    6109 A    8537 TIP4 O1   OW0      0.000000       15.9990           
    6110 A    8537 TIP4 H1   HW0      0.679100        1.0080           
    6111 A    8537 TIP4 H2   HW0      0.679100        1.0080           
    6112 A    8537 TIP4 BD1  LP0     -1.358200        0.0000           
    6113 A    8538 TIP4 O1   OW0      0.000000       15.9990           
    6114 A    8538 TIP4 H1   HW0      0.679100        1.0080           
    6115 A    8538 TIP4 H2   HW0      0.679100        1.0080           
    6116 A    8538 TIP4 BD1  LP0     -1.358200        0.0000           
    6117 A    8539 TIP4 O1   OW0      0.000000       15.9990           
    6118 A    8539 TIP4 H1   HW0      0.679100        1.0080           
    6119 A    8539 TIP4 H2   HW0      0.679100        1.0080           
    6120 A    8539 TIP4 BD1  LP0     -1.358200        0.0000           
    6121 A    8540 TIP4 O1   OW0      0.000000       15.9990           
    6122 A    8540 TIP4 H1   HW0      0.679100        1.0080           
    6123 A    8540 TIP4 H2   HW0      0.679100        1.0080           
    6124 A    8540 TIP4 BD1  LP0     -1.358200        0.0000           
    6125 A    8541 TIP4 O1   OW0      0.000000       15.9990           
    6126 A    8541 TIP4 H1   HW0      0.679100        1.0080           
    6127 A    8541 TIP4 H2   HW0      0.679100        1.0080           
    6128 A    8541 TIP4 BD1  LP0     -1.358200        0.0000           
    6129 A    8542 TIP4 O1   OW0      0.000000       15.9990           
    6130 A    8542 TIP4 H1   HW0      0.679100        1.0080           
    6131 A    8542 TIP4 H2   HW0      0.679100        1.0080           
    6132 A    8542 TIP4 BD1  LP0     -1.358200        0.0000           
    6133 A    8543 TIP4 O1   OW0      0.000000       15.9990           
    6134 A    8543 TIP4 H1   HW0      0.679100        1.0080           
    6135 A    8543 TIP4 H2   HW0      0.679100        1.0080           
    6136 A    8543 TIP4 BD1  LP0     -1.358200        0.0000           
    6137 A    8544 TIP4 O1   OW0      0.000000       15.9990           
    6138 A    8544 TIP4 H1   HW0      0.679100        1.0080           
    6139 A    8544 TIP4 H2   HW0      0.679100        1.0080           
    6140 A    8544 TIP4 BD1  LP0     -1.358200        0.0000           
    6141 A    8545 TIP4 O1   OW0      0.000000       15.9990           
    6142 A    8545 TIP4 H1   HW0      0.679100        1.0080           
    6143 A    8545 TIP4 H2   HW0      0.679100        1.0080           
    6144 A    8545 TIP4 BD1  LP0     -1.358200        0.0000           
    6145 A    8546 TIP4 O1   OW0      0.000000       15.9990           
    6146 A    8546 TIP4 H1   HW0      0.679100        1.0080           
    6147 A    8546 TIP4 H2   HW0      0.679100        1.0080           
    6148 A    8546 TIP4 BD1  LP0     -1.358200        0.0000           
    6149 A    8547 TIP4 O1   OW0      0.000000       15.9990           
    6150 A    8547 TIP4 H1   HW0      0.679100        1.0080           
    6151 A    8547 TIP4 H2   HW0      0.679100        1.0080           
    6152 A    8547 TIP4 BD1  LP0     -1.358200        0.0000           
    6153 A    8548 TIP4 O1   OW0      0.000000       15.9990           
    6154 A    8548 TIP4 H1   HW0      0.679100        1.0080           
    6155 A    8548 TIP4 H2   HW0      0.679100        1.0080           
    6156 A    8548 TIP4 BD1  LP0     -1.358200        0.0000           
    6157 A    8549 TIP4 O1   OW0      0.000000       15.9990           
    6158 A    8549 TIP4 H1   HW0      0.679100        1.0080           
    6159 A    8549 TIP4 H2   HW0      0.679100        1.0080           
    6160 A    8549 TIP4 BD1  LP0     -1.358200        0.0000           
    6161 A    8550 TIP4 O1   OW0      0.000000       15.9990           
    6162 A    8550 TIP4 H1   HW0      0.679100        1.0080           
    6163 A    8550 TIP4 H2   HW0      0.679100        1.0080           
    6164 A    8550 TIP4 BD1  LP0     -1.358200        0.0000           
    6165 A    8551 TIP4 O1   OW0      0.000000       15.9990           
    6166 A    8551 TIP4 H1   HW0      0.679100        1.0080           
    6167 A    8551 TIP4 H2   HW0      0.679100        1.0080           
    6168 A    8551 TIP4 BD1  LP0     -1.358200        0.0000           
    6169 A    8552 TIP4 O1   OW0      0.000000       15.9990           
    6170 A    8552 TIP4 H1   HW0      0.679100        1.0080           
    6171 A    8552 TIP4 H2   HW0      0.679100        1.0080           
    6172 A    8552 TIP4 BD1  LP0     -1.358200        0.0000           
    6173 A    8553 TIP4 O1   OW0      0.000000       15.9990           
    6174 A    8553 TIP4 H1   HW0      0.679100        1.0080           
    6175 A    8553 TIP4 H2   HW0      0.679100        1.0080           
    6176 A    8553 TIP4 BD1  LP0     -1.358200        0.0000           
    6177 A    8554 TIP4 O1   OW0      0.000000       15.9990           
    6178 A    8554 TIP4 H1   HW0      0.679100        1.0080           
    6179 A    8554 TIP4 H2   HW0      0.679100        1.0080           
    6180 A    8554 TIP4 BD1  LP0     -1.358200        0.0000           
    6181 A    8555 TIP4 O1   OW0      0.000000       15.9990           
    6182 A    8555 TIP4 H1   HW0      0.679100        1.0080           
    6183 A    8555 TIP4 H2   HW0      0.679100        1.0080           
    6184 A    8555 TIP4 BD1  LP0     -1.358200        0.0000           
    6185 A    8556 TIP4 O1   OW0      0.000000       15.9990           
    6186 A    8556 TIP4 H1   HW0      0.679100        1.0080           
    6187 A    8556 TIP4 H2   HW0      0.679100        1.0080           
    6188 A    8556 TIP4 BD1  LP0     -1.358200        0.0000           
    6189 A    8557 TIP4 O1   OW0      0.000000       15.9990           
    6190 A    8557 TIP4 H1   HW0      0.679100        1.0080           
    6191 A    8557 TIP4 H2   HW0      0.679100        1.0080           
    6192 A    8557 TIP4 BD1  LP0     -1.358200        0.0000           
    6193 A    8558 TIP4 O1   OW0      0.000000       15.9990           
    6194 A    8558 TIP4 H1   HW0      0.679100        1.0080           
    6195 A    8558 TIP4 H2   HW0      0.679100        1.0080           
    6196 A    8558 TIP4 BD1  LP0     -1.358200        0.0000           
    6197 A    8559 TIP4 O1   OW0      0.000000       15.9990           
    6198 A    8559 TIP4 H1   HW0      0.679100        1.0080           
    6199 A    8559 TIP4 H2   HW0      0.679100        1.0080           
    6200 A    8559 TIP4 BD1  LP0     -1.358200        0.0000           
    6201 A    8560 TIP4 O1   OW0      0.000000       15.9990           
    6202 A    8560 TIP4 H1   HW0      0.679100        1.0080           
    6203 A    8560 TIP4 H2   HW0      0.679100        1.0080           
    6204 A    8560 TIP4 BD1  LP0     -1.358200        0.0000           
    6205 A    8561 TIP4 O1   OW0      0.000000       15.9990           
    6206 A    8561 TIP4 H1   HW0      0.679100        1.0080           
    6207 A    8561 TIP4 H2   HW0      0.679100        1.0080           
    6208 A    8561 TIP4 BD1  LP0     -1.358200        0.0000           
    6209 A    8562 TIP4 O1   OW0      0.000000       15.9990           
    6210 A    8562 TIP4 H1   HW0      0.679100        1.0080           
    6211 A    8562 TIP4 H2   HW0      0.679100        1.0080           
    6212 A    8562 TIP4 BD1  LP0     -1.358200        0.0000           
    6213 A    8563 TIP4 O1   OW0      0.000000       15.9990           
    6214 A    8563 TIP4 H1   HW0      0.679100        1.0080           
    6215 A    8563 TIP4 H2   HW0      0.679100        1.0080           
    6216 A    8563 TIP4 BD1  LP0     -1.358200        0.0000           
    6217 A    8564 TIP4 O1   OW0      0.000000       15.9990           
    6218 A    8564 TIP4 H1   HW0      0.679100        1.0080           
    6219 A    8564 TIP4 H2   HW0      0.679100        1.0080           
    6220 A    8564 TIP4 BD1  LP0     -1.358200        0.0000           
    6221 A    8565 TIP4 O1   OW0      0.000000       15.9990           
    6222 A    8565 TIP4 H1   HW0      0.679100        1.0080           
    6223 A    8565 TIP4 H2   HW0      0.679100        1.0080           
    6224 A    8565 TIP4 BD1  LP0     -1.358200        0.0000           
    6225 A    8566 TIP4 O1   OW0      0.000000       15.9990           
    6226 A    8566 TIP4 H1   HW0      0.679100        1.0080           
    6227 A    8566 TIP4 H2   HW0      0.679100        1.0080           
    6228 A    8566 TIP4 BD1  LP0     -1.358200        0.0000           
    6229 A    8567 TIP4 O1   OW0      0.000000       15.9990           
    6230 A    8567 TIP4 H1   HW0      0.679100        1.0080           
    6231 A    8567 TIP4 H2   HW0      0.679100        1.0080           
    6232 A    8567 TIP4 BD1  LP0     -1.358200        0.0000           
    6233 A    8568 TIP4 O1   OW0      0.000000       15.9990           
    6234 A    8568 TIP4 H1   HW0      0.679100        1.0080           
    6235 A    8568 TIP4 H2   HW0      0.679100        1.0080           
    6236 A    8568 TIP4 BD1  LP0     -1.358200        0.0000           
    6237 A    8569 TIP4 O1   OW0      0.000000       15.9990           
    6238 A    8569 TIP4 H1   HW0      0.679100        1.0080           
    6239 A    8569 TIP4 H2   HW0      0.679100        1.0080           
    6240 A    8569 TIP4 BD1  LP0     -1.358200        0.0000           
    6241 A    8570 TIP4 O1   OW0      0.000000       15.9990           
    6242 A    8570 TIP4 H1   HW0      0.679100        1.0080           
    6243 A    8570 TIP4 H2   HW0      0.679100        1.0080           
    6244 A    8570 TIP4 BD1  LP0     -1.358200        0.0000           
    6245 A    8571 TIP4 O1   OW0      0.000000       15.9990           
    6246 A    8571 TIP4 H1   HW0      0.679100        1.0080           
    6247 A    8571 TIP4 H2   HW0      0.679100        1.0080           
    6248 A    8571 TIP4 BD1  LP0     -1.358200        0.0000           
    6249 A    8572 TIP4 O1   OW0      0.000000       15.9990           
    6250 A    8572 TIP4 H1   HW0      0.679100        1.0080           
    6251 A    8572 TIP4 H2   HW0      0.679100        1.0080           
    6252 A    8572 TIP4 BD1  LP0     -1.358200        0.0000           
    6253 A    8573 TIP4 O1   OW0      0.000000       15.9990           
    6254 A    8573 TIP4 H1   HW0      0.679100        1.0080           
    6255 A    8573 TIP4 H2   HW0      0.679100        1.0080           
    6256 A    8573 TIP4 BD1  LP0     -1.358200        0.0000           
    6257 A    8574 TIP4 O1   OW0      0.000000       15.9990           
    6258 A    8574 TIP4 H1   HW0      0.679100        1.0080           
    6259 A    8574 TIP4 H2   HW0      0.679100        1.0080           
    6260 A    8574 TIP4 BD1  LP0     -1.358200        0.0000           
    6261 A    8575 TIP4 O1   OW0      0.000000       15.9990           
    6262 A    8575 TIP4 H1   HW0      0.679100        1.0080           
    6263 A    8575 TIP4 H2   HW0      0.679100        1.0080           
    6264 A    8575 TIP4 BD1  LP0     -1.358200        0.0000           
    6265 A    8576 TIP4 O1   OW0      0.000000       15.9990           
    6266 A    8576 TIP4 H1   HW0      0.679100        1.0080           
    6267 A    8576 TIP4 H2   HW0      0.679100        1.0080           
    6268 A    8576 TIP4 BD1  LP0     -1.358200        0.0000           
    6269 A    8577 TIP4 O1   OW0      0.000000       15.9990           
    6270 A    8577 TIP4 H1   HW0      0.679100        1.0080           
    6271 A    8577 TIP4 H2   HW0      0.679100        1.0080           
    6272 A    8577 TIP4 BD1  LP0     -1.358200        0.0000           
    6273 A    8578 TIP4 O1   OW0      0.000000       15.9990           
    6274 A    8578 TIP4 H1   HW0      0.679100        1.0080           
    6275 A    8578 TIP4 H2   HW0      0.679100        1.0080           
    6276 A    8578 TIP4 BD1  LP0     -1.358200        0.0000           
    6277 A    8579 TIP4 O1   OW0      0.000000       15.9990           
    6278 A    8579 TIP4 H1   HW0      0.679100        1.0080           
    6279 A    8579 TIP4 H2   HW0      0.679100        1.0080           
    6280 A    8579 TIP4 BD1  LP0     -1.358200        0.0000           
    6281 A    8580 TIP4 O1   OW0      0.000000       15.9990           
    6282 A    8580 TIP4 H1   HW0      0.679100        1.0080           
    6283 A    8580 TIP4 H2   HW0      0.679100        1.0080           
    6284 A    8580 TIP4 BD1  LP0     -1.358200        0.0000           
    6285 A    8581 TIP4 O1   OW0      0.000000       15.9990           
    6286 A    8581 TIP4 H1   HW0      0.679100        1.0080           
    6287 A    8581 TIP4 H2   HW0      0.679100        1.0080           
    6288 A    8581 TIP4 BD1  LP0     -1.358200        0.0000           
    6289 A    8582 TIP4 O1   OW0      0.000000       15.9990           
    6290 A    8582 TIP4 H1   HW0      0.679100        1.0080           
    6291 A    8582 TIP4 H2   HW0      0.679100        1.0080           
    6292 A    8582 TIP4 BD1  LP0     -1.358200        0.0000           
    6293 A    8583 TIP4 O1   OW0      0.000000       15.9990           
    6294 A    8583 TIP4 H1   HW0      0.679100        1.0080           
    6295 A    8583 TIP4 H2   HW0      0.679100        1.0080           
    6296 A    8583 TIP4 BD1  LP0     -1.358200        0.0000           
    6297 A    8584 TIP4 O1   OW0      0.000000       15.9990           
    6298 A    8584 TIP4 H1   HW0      0.679100        1.0080           
    6299 A    8584 TIP4 H2   HW0      0.679100        1.0080           
    6300 A    8584 TIP4 BD1  LP0     -1.358200        0.0000           
    6301 A    8585 TIP4 O1   OW0      0.000000       15.9990           
    6302 A    8585 TIP4 H1   HW0      0.679100        1.0080           
    6303 A    8585 TIP4 H2   HW0      0.679100        1.0080           
    6304 A    8585 TIP4 BD1  LP0     -1.358200        0.0000           
    6305 A    8586 TIP4 O1   OW0      0.000000       15.9990           
    6306 A    8586 TIP4 H1   HW0      0.679100        1.0080           
    6307 A    8586 TIP4 H2   HW0      0.679100        1.0080           
    6308 A    8586 TIP4 BD1  LP0     -1.358200        0.0000           
    6309 A    8587 TIP4 O1   OW0      0.000000       15.9990           
    6310 A    8587 TIP4 H1   HW0      0.679100        1.0080           
    6311 A    8587 TIP4 H2   HW0      0.679100        1.0080           
    6312 A    8587 TIP4 BD1  LP0     -1.358200        0.0000           
    6313 A    8588 TIP4 O1   OW0      0.000000       15.9990           
    6314 A    8588 TIP4 H1   HW0      0.679100        1.0080           
    6315 A    8588 TIP4 H2   HW0      0.679100        1.0080           
    6316 A    8588 TIP4 BD1  LP0     -1.358200        0.0000           
    6317 A    8589 TIP4 O1   OW0      0.000000       15.9990           
    6318 A    8589 TIP4 H1   HW0      0.679100        1.0080           
    6319 A    8589 TIP4 H2   HW0      0.679100        1.0080           
    6320 A    8589 TIP4 BD1  LP0     -1.358200        0.0000           
    6321 A    8590 TIP4 O1   OW0      0.000000       15.9990           
    6322 A    8590 TIP4 H1   HW0      0.679100        1.0080           
    6323 A    8590 TIP4 H2   HW0      0.679100        1.0080           
    6324 A    8590 TIP4 BD1  LP0     -1.358200        0.0000           
    6325 A    8591 TIP4 O1   OW0      0.000000       15.9990           
    6326 A    8591 TIP4 H1   HW0      0.679100        1.0080           
    6327 A    8591 TIP4 H2   HW0      0.679100        1.0080           
    6328 A    8591 TIP4 BD1  LP0     -1.358200        0.0000           
    6329 A    8592 TIP4 O1   OW0      0.000000       15.9990           
    6330 A    8592 TIP4 H1   HW0      0.679100        1.0080           
    6331 A    8592 TIP4 H2   HW0      0.679100        1.0080           
    6332 A    8592 TIP4 BD1  LP0     -1.358200        0.0000           
    6333 A    8593 TIP4 O1   OW0      0.000000       15.9990           
    6334 A    8593 TIP4 H1   HW0      0.679100        1.0080           
    6335 A    8593 TIP4 H2   HW0      0.679100        1.0080           
    6336 A    8593 TIP4 BD1  LP0     -1.358200        0.0000           
    6337 A    8594 TIP4 O1   OW0      0.000000       15.9990           
    6338 A    8594 TIP4 H1   HW0      0.679100        1.0080           
    6339 A    8594 TIP4 H2   HW0      0.679100        1.0080           
    6340 A    8594 TIP4 BD1  LP0     -1.358200        0.0000           
    6341 A    8595 TIP4 O1   OW0      0.000000       15.9990           
    6342 A    8595 TIP4 H1   HW0      0.679100        1.0080           
    6343 A    8595 TIP4 H2   HW0      0.679100        1.0080           
    6344 A    8595 TIP4 BD1  LP0     -1.358200        0.0000           
    6345 A    8596 TIP4 O1   OW0      0.000000       15.9990           
    6346 A    8596 TIP4 H1   HW0      0.679100        1.0080           
    6347 A    8596 TIP4 H2   HW0      0.679100        1.0080           
    6348 A    8596 TIP4 BD1  LP0     -1.358200        0.0000           
    6349 A    8597 TIP4 O1   OW0      0.000000       15.9990           
    6350 A    8597 TIP4 H1   HW0      0.679100        1.0080           
    6351 A    8597 TIP4 H2   HW0      0.679100        1.0080           
    6352 A    8597 TIP4 BD1  LP0     -1.358200        0.0000           
    6353 A    8598 TIP4 O1   OW0      0.000000       15.9990           
    6354 A    8598 TIP4 H1   HW0      0.679100        1.0080           
    6355 A    8598 TIP4 H2   HW0      0.679100        1.0080           
    6356 A    8598 TIP4 BD1  LP0     -1.358200        0.0000           
    6357 A    8599 TIP4 O1   OW0      0.000000       15.9990           
    6358 A    8599 TIP4 H1   HW0      0.679100        1.0080           
    6359 A    8599 TIP4 H2   HW0      0.679100        1.0080           
    6360 A    8599 TIP4 BD1  LP0     -1.358200        0.0000           
    6361 A    8600 TIP4 O1   OW0      0.000000       15.9990           
    6362 A    8600 TIP4 H1   HW0      0.679100        1.0080           
    6363 A    8600 TIP4 H2   HW0      0.679100        1.0080           
    6364 A    8600 TIP4 BD1  LP0     -1.358200        0.0000           
    6365 A    8601 TIP4 O1   OW0      0.000000       15.9990           
    6366 A    8601 TIP4 H1   HW0      0.679100        1.0080           
    6367 A    8601 TIP4 H2   HW0      0.679100        1.0080           
    6368 A    8601 TIP4 BD1  LP0     -1.358200        0.0000           
    6369 A    8602 TIP4 O1   OW0      0.000000       15.9990           
    6370 A    8602 TIP4 H1   HW0      0.679100        1.0080           
    6371 A    8602 TIP4 H2   HW0      0.679100        1.0080           
    6372 A    8602 TIP4 BD1  LP0     -1.358200        0.0000           
    6373 A    8603 TIP4 O1   OW0      0.000000       15.9990           
    6374 A    8603 TIP4 H1   HW0      0.679100        1.0080           
    6375 A    8603 TIP4 H2   HW0      0.679100        1.0080           
    6376 A    8603 TIP4 BD1  LP0     -1.358200        0.0000           
    6377 A    8604 TIP4 O1   OW0      0.000000       15.9990           
    6378 A    8604 TIP4 H1   HW0      0.679100        1.0080           
    6379 A    8604 TIP4 H2   HW0      0.679100        1.0080           
    6380 A    8604 TIP4 BD1  LP0     -1.358200        0.0000           
    6381 A    8605 TIP4 O1   OW0      0.000000       15.9990           
    6382 A    8605 TIP4 H1   HW0      0.679100        1.0080           
    6383 A    8605 TIP4 H2   HW0      0.679100        1.0080           
    6384 A    8605 TIP4 BD1  LP0     -1.358200        0.0000           
    6385 A    8606 TIP4 O1   OW0      0.000000       15.9990           
    6386 A    8606 TIP4 H1   HW0      0.679100        1.0080           
    6387 A    8606 TIP4 H2   HW0      0.679100        1.0080           
    6388 A    8606 TIP4 BD1  LP0     -1.358200        0.0000           
    6389 A    8607 TIP4 O1   OW0      0.000000       15.9990           
    6390 A    8607 TIP4 H1   HW0      0.679100        1.0080           
    6391 A    8607 TIP4 H2   HW0      0.679100        1.0080           
    6392 A    8607 TIP4 BD1  LP0     -1.358200        0.0000           
    6393 A    8608 TIP4 O1   OW0      0.000000       15.9990           
    6394 A    8608 TIP4 H1   HW0      0.679100        1.0080           
    6395 A    8608 TIP4 H2   HW0      0.679100        1.0080           
    6396 A    8608 TIP4 BD1  LP0     -1.358200        0.0000           
    6397 A    8609 TIP4 O1   OW0      0.000000       15.9990           
    6398 A    8609 TIP4 H1   HW0      0.679100        1.0080           
    6399 A    8609 TIP4 H2   HW0      0.679100        1.0080           
    6400 A    8609 TIP4 BD1  LP0     -1.358200        0.0000           
    6401 A    8610 TIP4 O1   OW0      0.000000       15.9990           
    6402 A    8610 TIP4 H1   HW0      0.679100        1.0080           
    6403 A    8610 TIP4 H2   HW0      0.679100        1.0080           
    6404 A    8610 TIP4 BD1  LP0     -1.358200        0.0000           
    6405 A    8611 TIP4 O1   OW0      0.000000       15.9990           
    6406 A    8611 TIP4 H1   HW0      0.679100        1.0080           
    6407 A    8611 TIP4 H2   HW0      0.679100        1.0080           
    6408 A    8611 TIP4 BD1  LP0     -1.358200        0.0000           
    6409 A    8612 TIP4 O1   OW0      0.000000       15.9990           
    6410 A    8612 TIP4 H1   HW0      0.679100        1.0080           
    6411 A    8612 TIP4 H2   HW0      0.679100        1.0080           
    6412 A    8612 TIP4 BD1  LP0     -1.358200        0.0000           
    6413 A    8613 TIP4 O1   OW0      0.000000       15.9990           
    6414 A    8613 TIP4 H1   HW0      0.679100        1.0080           
    6415 A    8613 TIP4 H2   HW0      0.679100        1.0080           
    6416 A    8613 TIP4 BD1  LP0     -1.358200        0.0000           
    6417 A    8614 TIP4 O1   OW0      0.000000       15.9990           
    6418 A    8614 TIP4 H1   HW0      0.679100        1.0080           
    6419 A    8614 TIP4 H2   HW0      0.679100        1.0080           
    6420 A    8614 TIP4 BD1  LP0     -1.358200        0.0000           
    6421 A    8615 TIP4 O1   OW0      0.000000       15.9990           
    6422 A    8615 TIP4 H1   HW0      0.679100        1.0080           
    6423 A    8615 TIP4 H2   HW0      0.679100        1.0080           
    6424 A    8615 TIP4 BD1  LP0     -1.358200        0.0000           
    6425 A    8616 TIP4 O1   OW0      0.000000       15.9990           
    6426 A    8616 TIP4 H1   HW0      0.679100        1.0080           
    6427 A    8616 TIP4 H2   HW0      0.679100        1.0080           
    6428 A    8616 TIP4 BD1  LP0     -1.358200        0.0000           
    6429 A    8617 TIP4 O1   OW0      0.000000       15.9990           
    6430 A    8617 TIP4 H1   HW0      0.679100        1.0080           
    6431 A    8617 TIP4 H2   HW0      0.679100        1.0080           
    6432 A    8617 TIP4 BD1  LP0     -1.358200        0.0000           
    6433 A    8618 TIP4 O1   OW0      0.000000       15.9990           
    6434 A    8618 TIP4 H1   HW0      0.679100        1.0080           
    6435 A    8618 TIP4 H2   HW0      0.679100        1.0080           
    6436 A    8618 TIP4 BD1  LP0     -1.358200        0.0000           
    6437 A    8619 TIP4 O1   OW0      0.000000       15.9990           
    6438 A    8619 TIP4 H1   HW0      0.679100        1.0080           
    6439 A    8619 TIP4 H2   HW0      0.679100        1.0080           
    6440 A    8619 TIP4 BD1  LP0     -1.358200        0.0000           
    6441 A    8620 TIP4 O1   OW0      0.000000       15.9990           
    6442 A    8620 TIP4 H1   HW0      0.679100        1.0080           
    6443 A    8620 TIP4 H2   HW0      0.679100        1.0080           
    6444 A    8620 TIP4 BD1  LP0     -1.358200        0.0000           
    6445 A    8621 TIP4 O1   OW0      0.000000       15.9990           
    6446 A    8621 TIP4 H1   HW0      0.679100        1.0080           
    6447 A    8621 TIP4 H2   HW0      0.679100        1.0080           
    6448 A    8621 TIP4 BD1  LP0     -1.358200        0.0000           
    6449 A    8622 TIP4 O1   OW0      0.000000       15.9990           
    6450 A    8622 TIP4 H1   HW0      0.679100        1.0080           
    6451 A    8622 TIP4 H2   HW0      0.679100        1.0080           
    6452 A    8622 TIP4 BD1  LP0     -1.358200        0.0000           
    6453 A    8623 TIP4 O1   OW0      0.000000       15.9990           
    6454 A    8623 TIP4 H1   HW0      0.679100        1.0080           
    6455 A    8623 TIP4 H2   HW0      0.679100        1.0080           
    6456 A    8623 TIP4 BD1  LP0     -1.358200        0.0000           
    6457 A    8624 TIP4 O1   OW0      0.000000       15.9990           
    6458 A    8624 TIP4 H1   HW0      0.679100        1.0080           
    6459 A    8624 TIP4 H2   HW0      0.679100        1.0080           
    6460 A    8624 TIP4 BD1  LP0     -1.358200        0.0000           
    6461 A    8625 TIP4 O1   OW0      0.000000       15.9990           
    6462 A    8625 TIP4 H1   HW0      0.679100        1.0080           
    6463 A    8625 TIP4 H2   HW0      0.679100        1.0080           
    6464 A    8625 TIP4 BD1  LP0     -1.358200        0.0000           
    6465 A    8626 TIP4 O1   OW0      0.000000       15.9990           
    6466 A    8626 TIP4 H1   HW0      0.679100        1.0080           
    6467 A    8626 TIP4 H2   HW0      0.679100        1.0080           
    6468 A    8626 TIP4 BD1  LP0     -1.358200        0.0000           
    6469 A    8627 TIP4 O1   OW0      0.000000       15.9990           
    6470 A    8627 TIP4 H1   HW0      0.679100        1.0080           
    6471 A    8627 TIP4 H2   HW0      0.679100        1.0080           
    6472 A    8627 TIP4 BD1  LP0     -1.358200        0.0000           
    6473 A    8628 TIP4 O1   OW0      0.000000       15.9990           
    6474 A    8628 TIP4 H1   HW0      0.679100        1.0080           
    6475 A    8628 TIP4 H2   HW0      0.679100        1.0080           
    6476 A    8628 TIP4 BD1  LP0     -1.358200        0.0000           
    6477 A    8629 TIP4 O1   OW0      0.000000       15.9990           
    6478 A    8629 TIP4 H1   HW0      0.679100        1.0080           
    6479 A    8629 TIP4 H2   HW0      0.679100        1.0080           
    6480 A    8629 TIP4 BD1  LP0     -1.358200        0.0000           
    6481 A    8630 TIP4 O1   OW0      0.000000       15.9990           
    6482 A    8630 TIP4 H1   HW0      0.679100        1.0080           
    6483 A    8630 TIP4 H2   HW0      0.679100        1.0080           
    6484 A    8630 TIP4 BD1  LP0     -1.358200        0.0000           
    6485 A    8631 TIP4 O1   OW0      0.000000       15.9990           
    6486 A    8631 TIP4 H1   HW0      0.679100        1.0080           
    6487 A    8631 TIP4 H2   HW0      0.679100        1.0080           
    6488 A    8631 TIP4 BD1  LP0     -1.358200        0.0000           
    6489 A    8632 TIP4 O1   OW0      0.000000       15.9990           
    6490 A    8632 TIP4 H1   HW0      0.679100        1.0080           
    6491 A    8632 TIP4 H2   HW0      0.679100        1.0080           
    6492 A    8632 TIP4 BD1  LP0     -1.358200        0.0000           
    6493 A    8633 TIP4 O1   OW0      0.000000       15.9990           
    6494 A    8633 TIP4 H1   HW0      0.679100        1.0080           
    6495 A    8633 TIP4 H2   HW0      0.679100        1.0080           
    6496 A    8633 TIP4 BD1  LP0     -1.358200        0.0000           
    6497 A    8634 TIP4 O1   OW0      0.000000       15.9990           
    6498 A    8634 TIP4 H1   HW0      0.679100        1.0080           
    6499 A    8634 TIP4 H2   HW0      0.679100        1.0080           
    6500 A    8634 TIP4 BD1  LP0     -1.358200        0.0000           
    6501 A    8635 TIP4 O1   OW0      0.000000       15.9990           
    6502 A    8635 TIP4 H1   HW0      0.679100        1.0080           
    6503 A    8635 TIP4 H2   HW0      0.679100        1.0080           
    6504 A    8635 TIP4 BD1  LP0     -1.358200        0.0000           
    6505 A    8636 TIP4 O1   OW0      0.000000       15.9990           
    6506 A    8636 TIP4 H1   HW0      0.679100        1.0080           
    6507 A    8636 TIP4 H2   HW0      0.679100        1.0080           
    6508 A    8636 TIP4 BD1  LP0     -1.358200        0.0000           
    6509 A    8637 TIP4 O1   OW0      0.000000       15.9990           
    6510 A    8637 TIP4 H1   HW0      0.679100        1.0080           
    6511 A    8637 TIP4 H2   HW0      0.679100        1.0080           
    6512 A    8637 TIP4 BD1  LP0     -1.358200        0.0000           
    6513 A    8638 TIP4 O1   OW0      0.000000       15.9990           
    6514 A    8638 TIP4 H1   HW0      0.679100        1.0080           
    6515 A    8638 TIP4 H2   HW0      0.679100        1.0080           
    6516 A    8638 TIP4 BD1  LP0     -1.358200        0.0000           
    6517 A    8639 TIP4 O1   OW0      0.000000       15.9990           
    6518 A    8639 TIP4 H1   HW0      0.679100        1.0080           
    6519 A    8639 TIP4 H2   HW0      0.679100        1.0080           
    6520 A    8639 TIP4 BD1  LP0     -1.358200        0.0000           
    6521 A    8640 TIP4 O1   OW0      0.000000       15.9990           
    6522 A    8640 TIP4 H1   HW0      0.679100        1.0080           
    6523 A    8640 TIP4 H2   HW0      0.679100        1.0080           
    6524 A    8640 TIP4 BD1  LP0     -1.358200        0.0000           
    6525 A    8641 TIP4 O1   OW0      0.000000       15.9990           
    6526 A    8641 TIP4 H1   HW0      0.679100        1.0080           
    6527 A    8641 TIP4 H2   HW0      0.679100        1.0080           
    6528 A    8641 TIP4 BD1  LP0     -1.358200        0.0000           
    6529 A    8642 TIP4 O1   OW0      0.000000       15.9990           
    6530 A    8642 TIP4 H1   HW0      0.679100        1.0080           
    6531 A    8642 TIP4 H2   HW0      0.679100        1.0080           
    6532 A    8642 TIP4 BD1  LP0     -1.358200        0.0000           
    6533 A    8643 TIP4 O1   OW0      0.000000       15.9990           
    6534 A    8643 TIP4 H1   HW0      0.679100        1.0080           
    6535 A    8643 TIP4 H2   HW0      0.679100        1.0080           
    6536 A    8643 TIP4 BD1  LP0     -1.358200        0.0000           
    6537 A    8644 TIP4 O1   OW0      0.000000       15.9990           
    6538 A    8644 TIP4 H1   HW0      0.679100        1.0080           
    6539 A    8644 TIP4 H2   HW0      0.679100        1.0080           
    6540 A    8644 TIP4 BD1  LP0     -1.358200        0.0000           
    6541 A    8645 TIP4 O1   OW0      0.000000       15.9990           
    6542 A    8645 TIP4 H1   HW0      0.679100        1.0080           
    6543 A    8645 TIP4 H2   HW0      0.679100        1.0080           
    6544 A    8645 TIP4 BD1  LP0     -1.358200        0.0000           
    6545 A    8646 TIP4 O1   OW0      0.000000       15.9990           
    6546 A    8646 TIP4 H1   HW0      0.679100        1.0080           
    6547 A    8646 TIP4 H2   HW0      0.679100        1.0080           
    6548 A    8646 TIP4 BD1  LP0     -1.358200        0.0000           
    6549 A    8647 TIP4 O1   OW0      0.000000       15.9990           
    6550 A    8647 TIP4 H1   HW0      0.679100        1.0080           
    6551 A    8647 TIP4 H2   HW0      0.679100        1.0080           
    6552 A    8647 TIP4 BD1  LP0     -1.358200        0.0000           
    6553 A    8648 TIP4 O1   OW0      0.000000       15.9990           
    6554 A    8648 TIP4 H1   HW0      0.679100        1.0080           
    6555 A    8648 TIP4 H2   HW0      0.679100        1.0080           
    6556 A    8648 TIP4 BD1  LP0     -1.358200        0.0000           
    6557 A    8649 TIP4 O1   OW0      0.000000       15.9990           
    6558 A    8649 TIP4 H1   HW0      0.679100        1.0080           
    6559 A    8649 TIP4 H2   HW0      0.679100        1.0080           
    6560 A    8649 TIP4 BD1  LP0     -1.358200        0.0000           
    6561 A    8650 TIP4 O1   OW0      0.000000       15.9990           
    6562 A    8650 TIP4 H1   HW0      0.679100        1.0080           
    6563 A    8650 TIP4 H2   HW0      0.679100        1.0080           
    6564 A    8650 TIP4 BD1  LP0     -1.358200        0.0000           
    6565 A    8651 TIP4 O1   OW0      0.000000       15.9990           
    6566 A    8651 TIP4 H1   HW0      0.679100        1.0080           
    6567 A    8651 TIP4 H2   HW0      0.679100        1.0080           
    6568 A    8651 TIP4 BD1  LP0     -1.358200        0.0000           
    6569 A    8652 TIP4 O1   OW0      0.000000       15.9990           
    6570 A    8652 TIP4 H1   HW0      0.679100        1.0080           
    6571 A    8652 TIP4 H2   HW0      0.679100        1.0080           
    6572 A    8652 TIP4 BD1  LP0     -1.358200        0.0000           
    6573 A    8653 TIP4 O1   OW0      0.000000       15.9990           
    6574 A    8653 TIP4 H1   HW0      0.679100        1.0080           
    6575 A    8653 TIP4 H2   HW0      0.679100        1.0080           
    6576 A    8653 TIP4 BD1  LP0     -1.358200        0.0000           
    6577 A    8654 TIP4 O1   OW0      0.000000       15.9990           
    6578 A    8654 TIP4 H1   HW0      0.679100        1.0080           
    6579 A    8654 TIP4 H2   HW0      0.679100        1.0080           
    6580 A    8654 TIP4 BD1  LP0     -1.358200        0.0000           
    6581 A    8655 TIP4 O1   OW0      0.000000       15.9990           
    6582 A    8655 TIP4 H1   HW0      0.679100        1.0080           
    6583 A    8655 TIP4 H2   HW0      0.679100        1.0080           
    6584 A    8655 TIP4 BD1  LP0     -1.358200        0.0000           
    6585 A    8656 TIP4 O1   OW0      0.000000       15.9990           
    6586 A    8656 TIP4 H1   HW0      0.679100        1.0080           
    6587 A    8656 TIP4 H2   HW0      0.679100        1.0080           
    6588 A    8656 TIP4 BD1  LP0     -1.358200        0.0000           
    6589 A    8657 TIP4 O1   OW0      0.000000       15.9990           
    6590 A    8657 TIP4 H1   HW0      0.679100        1.0080           
    6591 A    8657 TIP4 H2   HW0      0.679100        1.0080           
    6592 A    8657 TIP4 BD1  LP0     -1.358200        0.0000           
    6593 A    8658 TIP4 O1   OW0      0.000000       15.9990           
    6594 A    8658 TIP4 H1   HW0      0.679100        1.0080           
    6595 A    8658 TIP4 H2   HW0      0.679100        1.0080           
    6596 A    8658 TIP4 BD1  LP0     -1.358200        0.0000           
    6597 A    8659 TIP4 O1   OW0      0.000000       15.9990           
    6598 A    8659 TIP4 H1   HW0      0.679100        1.0080           
    6599 A    8659 TIP4 H2   HW0      0.679100        1.0080           
    6600 A    8659 TIP4 BD1  LP0     -1.358200        0.0000           
    6601 A    8660 TIP4 O1   OW0      0.000000       15.9990           
    6602 A    8660 TIP4 H1   HW0      0.679100        1.0080           
    6603 A    8660 TIP4 H2   HW0      0.679100        1.0080           
    6604 A    8660 TIP4 BD1  LP0     -1.358200        0.0000           
    6605 A    8661 TIP4 O1   OW0      0.000000       15.9990           
    6606 A    8661 TIP4 H1   HW0      0.679100        1.0080           
    6607 A    8661 TIP4 H2   HW0      0.679100        1.0080           
    6608 A    8661 TIP4 BD1  LP0     -1.358200        0.0000           
    6609 A    8662 TIP4 O1   OW0      0.000000       15.9990           
    6610 A    8662 TIP4 H1   HW0      0.679100        1.0080           
    6611 A    8662 TIP4 H2   HW0      0.679100        1.0080           
    6612 A    8662 TIP4 BD1  LP0     -1.358200        0.0000           
    6613 A    8663 TIP4 O1   OW0      0.000000       15.9990           
    6614 A    8663 TIP4 H1   HW0      0.679100        1.0080           
    6615 A    8663 TIP4 H2   HW0      0.679100        1.0080           
    6616 A    8663 TIP4 BD1  LP0     -1.358200        0.0000           
    6617 A    8664 TIP4 O1   OW0      0.000000       15.9990           
    6618 A    8664 TIP4 H1   HW0      0.679100        1.0080           
    6619 A    8664 TIP4 H2   HW0      0.679100        1.0080           
    6620 A    8664 TIP4 BD1  LP0     -1.358200        0.0000           
    6621 A    8665 TIP4 O1   OW0      0.000000       15.9990           
    6622 A    8665 TIP4 H1   HW0      0.679100        1.0080           
    6623 A    8665 TIP4 H2   HW0      0.679100        1.0080           
    6624 A    8665 TIP4 BD1  LP0     -1.358200        0.0000           
    6625 A    8666 TIP4 O1   OW0      0.000000       15.9990           
    6626 A    8666 TIP4 H1   HW0      0.679100        1.0080           
    6627 A    8666 TIP4 H2   HW0      0.679100        1.0080           
    6628 A    8666 TIP4 BD1  LP0     -1.358200        0.0000           
    6629 A    8667 TIP4 O1   OW0      0.000000       15.9990           
    6630 A    8667 TIP4 H1   HW0      0.679100        1.0080           
    6631 A    8667 TIP4 H2   HW0      0.679100        1.0080           
    6632 A    8667 TIP4 BD1  LP0     -1.358200        0.0000           
    6633 A    8668 TIP4 O1   OW0      0.000000       15.9990           
    6634 A    8668 TIP4 H1   HW0      0.679100        1.0080           
    6635 A    8668 TIP4 H2   HW0      0.679100        1.0080           
    6636 A    8668 TIP4 BD1  LP0     -1.358200        0.0000           
    6637 A    8669 TIP4 O1   OW0      0.000000       15.9990           
    6638 A    8669 TIP4 H1   HW0      0.679100        1.0080           
    6639 A    8669 TIP4 H2   HW0      0.679100        1.0080           
    6640 A    8669 TIP4 BD1  LP0     -1.358200        0.0000           
    6641 A    8670 TIP4 O1   OW0      0.000000       15.9990           
    6642 A    8670 TIP4 H1   HW0      0.679100        1.0080           
    6643 A    8670 TIP4 H2   HW0      0.679100        1.0080           
    6644 A    8670 TIP4 BD1  LP0     -1.358200        0.0000           
    6645 A    8671 TIP4 O1   OW0      0.000000       15.9990           
    6646 A    8671 TIP4 H1   HW0      0.679100        1.0080           
    6647 A    8671 TIP4 H2   HW0      0.679100        1.0080           
    6648 A    8671 TIP4 BD1  LP0     -1.358200        0.0000           
    6649 A    8672 TIP4 O1   OW0      0.000000       15.9990           
    6650 A    8672 TIP4 H1   HW0      0.679100        1.0080           
    6651 A    8672 TIP4 H2   HW0      0.679100        1.0080           
    6652 A    8672 TIP4 BD1  LP0     -1.358200        0.0000           
    6653 A    8673 TIP4 O1   OW0      0.000000       15.9990           
    6654 A    8673 TIP4 H1   HW0      0.679100        1.0080           
    6655 A    8673 TIP4 H2   HW0      0.679100        1.0080           
    6656 A    8673 TIP4 BD1  LP0     -1.358200        0.0000           
    6657 A    8674 TIP4 O1   OW0      0.000000       15.9990           
    6658 A    8674 TIP4 H1   HW0      0.679100        1.0080           
    6659 A    8674 TIP4 H2   HW0      0.679100        1.0080           
    6660 A    8674 TIP4 BD1  LP0     -1.358200        0.0000           
    6661 A    8675 TIP4 O1   OW0      0.000000       15.9990           
    6662 A    8675 TIP4 H1   HW0      0.679100        1.0080           
    6663 A    8675 TIP4 H2   HW0      0.679100        1.0080           
    6664 A    8675 TIP4 BD1  LP0     -1.358200        0.0000           
    6665 A    8676 TIP4 O1   OW0      0.000000       15.9990           
    6666 A    8676 TIP4 H1   HW0      0.679100        1.0080           
    6667 A    8676 TIP4 H2   HW0      0.679100        1.0080           
    6668 A    8676 TIP4 BD1  LP0     -1.358200        0.0000           
    6669 A    8677 TIP4 O1   OW0      0.000000       15.9990           
    6670 A    8677 TIP4 H1   HW0      0.679100        1.0080           
    6671 A    8677 TIP4 H2   HW0      0.679100        1.0080           
    6672 A    8677 TIP4 BD1  LP0     -1.358200        0.0000           
    6673 A    8678 TIP4 O1   OW0      0.000000       15.9990           
    6674 A    8678 TIP4 H1   HW0      0.679100        1.0080           
    6675 A    8678 TIP4 H2   HW0      0.679100        1.0080           
    6676 A    8678 TIP4 BD1  LP0     -1.358200        0.0000           
    6677 A    8679 TIP4 O1   OW0      0.000000       15.9990           
    6678 A    8679 TIP4 H1   HW0      0.679100        1.0080           
    6679 A    8679 TIP4 H2   HW0      0.679100        1.0080           
    6680 A    8679 TIP4 BD1  LP0     -1.358200        0.0000           
    6681 A    8680 TIP4 O1   OW0      0.000000       15.9990           
    6682 A    8680 TIP4 H1   HW0      0.679100        1.0080           
    6683 A    8680 TIP4 H2   HW0      0.679100        1.0080           
    6684 A    8680 TIP4 BD1  LP0     -1.358200        0.0000           
    6685 A    8681 TIP4 O1   OW0      0.000000       15.9990           
    6686 A    8681 TIP4 H1   HW0      0.679100        1.0080           
    6687 A    8681 TIP4 H2   HW0      0.679100        1.0080           
    6688 A    8681 TIP4 BD1  LP0     -1.358200        0.0000           
    6689 A    8682 TIP4 O1   OW0      0.000000       15.9990           
    6690 A    8682 TIP4 H1   HW0      0.679100        1.0080           
    6691 A    8682 TIP4 H2   HW0      0.679100        1.0080           
    6692 A    8682 TIP4 BD1  LP0     -1.358200        0.0000           
    6693 A    8683 TIP4 O1   OW0      0.000000       15.9990           
    6694 A    8683 TIP4 H1   HW0      0.679100        1.0080           
    6695 A    8683 TIP4 H2   HW0      0.679100        1.0080           
    6696 A    8683 TIP4 BD1  LP0     -1.358200        0.0000           
    6697 A    8684 TIP4 O1   OW0      0.000000       15.9990           
    6698 A    8684 TIP4 H1   HW0      0.679100        1.0080           
    6699 A    8684 TIP4 H2   HW0      0.679100        1.0080           
    6700 A    8684 TIP4 BD1  LP0     -1.358200        0.0000           
    6701 A    8685 TIP4 O1   OW0      0.000000       15.9990           
    6702 A    8685 TIP4 H1   HW0      0.679100        1.0080           
    6703 A    8685 TIP4 H2   HW0      0.679100        1.0080           
    6704 A    8685 TIP4 BD1  LP0     -1.358200        0.0000           
    6705 A    8686 TIP4 O1   OW0      0.000000       15.9990           
    6706 A    8686 TIP4 H1   HW0      0.679100        1.0080           
    6707 A    8686 TIP4 H2   HW0      0.679100        1.0080           
    6708 A    8686 TIP4 BD1  LP0     -1.358200        0.0000           
    6709 A    8687 TIP4 O1   OW0      0.000000       15.9990           
    6710 A    8687 TIP4 H1   HW0      0.679100        1.0080           
    6711 A    8687 TIP4 H2   HW0      0.679100        1.0080           
    6712 A    8687 TIP4 BD1  LP0     -1.358200        0.0000           
    6713 A    8688 TIP4 O1   OW0      0.000000       15.9990           
    6714 A    8688 TIP4 H1   HW0      0.679100        1.0080           
    6715 A    8688 TIP4 H2   HW0      0.679100        1.0080           
    6716 A    8688 TIP4 BD1  LP0     -1.358200        0.0000           
    6717 A    8689 TIP4 O1   OW0      0.000000       15.9990           
    6718 A    8689 TIP4 H1   HW0      0.679100        1.0080           
    6719 A    8689 TIP4 H2   HW0      0.679100        1.0080           
    6720 A    8689 TIP4 BD1  LP0     -1.358200        0.0000           
    6721 A    8690 TIP4 O1   OW0      0.000000       15.9990           
    6722 A    8690 TIP4 H1   HW0      0.679100        1.0080           
    6723 A    8690 TIP4 H2   HW0      0.679100        1.0080           
    6724 A    8690 TIP4 BD1  LP0     -1.358200        0.0000           
    6725 A    8691 TIP4 O1   OW0      0.000000       15.9990           
    6726 A    8691 TIP4 H1   HW0      0.679100        1.0080           
    6727 A    8691 TIP4 H2   HW0      0.679100        1.0080           
    6728 A    8691 TIP4 BD1  LP0     -1.358200        0.0000           
    6729 A    8692 TIP4 O1   OW0      0.000000       15.9990           
    6730 A    8692 TIP4 H1   HW0      0.679100        1.0080           
    6731 A    8692 TIP4 H2   HW0      0.679100        1.0080           
    6732 A    8692 TIP4 BD1  LP0     -1.358200        0.0000           
    6733 A    8693 TIP4 O1   OW0      0.000000       15.9990           
    6734 A    8693 TIP4 H1   HW0      0.679100        1.0080           
    6735 A    8693 TIP4 H2   HW0      0.679100        1.0080           
    6736 A    8693 TIP4 BD1  LP0     -1.358200        0.0000           
    6737 A    8694 TIP4 O1   OW0      0.000000       15.9990           
    6738 A    8694 TIP4 H1   HW0      0.679100        1.0080           
    6739 A    8694 TIP4 H2   HW0      0.679100        1.0080           
    6740 A    8694 TIP4 BD1  LP0     -1.358200        0.0000           
    6741 A    8695 TIP4 O1   OW0      0.000000       15.9990           
    6742 A    8695 TIP4 H1   HW0      0.679100        1.0080           
    6743 A    8695 TIP4 H2   HW0      0.679100        1.0080           
    6744 A    8695 TIP4 BD1  LP0     -1.358200        0.0000           
    6745 A    8696 TIP4 O1   OW0      0.000000       15.9990           
    6746 A    8696 TIP4 H1   HW0      0.679100        1.0080           
    6747 A    8696 TIP4 H2   HW0      0.679100        1.0080           
    6748 A    8696 TIP4 BD1  LP0     -1.358200        0.0000           
    6749 A    8697 TIP4 O1   OW0      0.000000       15.9990           
    6750 A    8697 TIP4 H1   HW0      0.679100        1.0080           
    6751 A    8697 TIP4 H2   HW0      0.679100        1.0080           
    6752 A    8697 TIP4 BD1  LP0     -1.358200        0.0000           
    6753 A    8698 TIP4 O1   OW0      0.000000       15.9990           
    6754 A    8698 TIP4 H1   HW0      0.679100        1.0080           
    6755 A    8698 TIP4 H2   HW0      0.679100        1.0080           
    6756 A    8698 TIP4 BD1  LP0     -1.358200        0.0000           
    6757 A    8699 TIP4 O1   OW0      0.000000       15.9990           
    6758 A    8699 TIP4 H1   HW0      0.679100        1.0080           
    6759 A    8699 TIP4 H2   HW0      0.679100        1.0080           
    6760 A    8699 TIP4 BD1  LP0     -1.358200        0.0000           
    6761 A    8700 TIP4 O1   OW0      0.000000       15.9990           
    6762 A    8700 TIP4 H1   HW0      0.679100        1.0080           
    6763 A    8700 TIP4 H2   HW0      0.679100        1.0080           
    6764 A    8700 TIP4 BD1  LP0     -1.358200        0.0000           
    6765 A    8701 TIP4 O1   OW0      0.000000       15.9990           
    6766 A    8701 TIP4 H1   HW0      0.679100        1.0080           
    6767 A    8701 TIP4 H2   HW0      0.679100        1.0080           
    6768 A    8701 TIP4 BD1  LP0     -1.358200        0.0000           
    6769 A    8702 TIP4 O1   OW0      0.000000       15.9990           
    6770 A    8702 TIP4 H1   HW0      0.679100        1.0080           
    6771 A    8702 TIP4 H2   HW0      0.679100        1.0080           
    6772 A    8702 TIP4 BD1  LP0     -1.358200        0.0000           
    6773 A    8703 TIP4 O1   OW0      0.000000       15.9990           
    6774 A    8703 TIP4 H1   HW0      0.679100        1.0080           
    6775 A    8703 TIP4 H2   HW0      0.679100        1.0080           
    6776 A    8703 TIP4 BD1  LP0     -1.358200        0.0000           
    6777 A    8704 TIP4 O1   OW0      0.000000       15.9990           
    6778 A    8704 TIP4 H1   HW0      0.679100        1.0080           
    6779 A    8704 TIP4 H2   HW0      0.679100        1.0080           
    6780 A    8704 TIP4 BD1  LP0     -1.358200        0.0000           
    6781 A    8705 TIP4 O1   OW0      0.000000       15.9990           
    6782 A    8705 TIP4 H1   HW0      0.679100        1.0080           
    6783 A    8705 TIP4 H2   HW0      0.679100        1.0080           
    6784 A    8705 TIP4 BD1  LP0     -1.358200        0.0000           
    6785 A    8706 TIP4 O1   OW0      0.000000       15.9990           
    6786 A    8706 TIP4 H1   HW0      0.679100        1.0080           
    6787 A    8706 TIP4 H2   HW0      0.679100        1.0080           
    6788 A    8706 TIP4 BD1  LP0     -1.358200        0.0000           
    6789 A    8707 TIP4 O1   OW0      0.000000       15.9990           
    6790 A    8707 TIP4 H1   HW0      0.679100        1.0080           
    6791 A    8707 TIP4 H2   HW0      0.679100        1.0080           
    6792 A    8707 TIP4 BD1  LP0     -1.358200        0.0000           
    6793 A    8708 TIP4 O1   OW0      0.000000       15.9990           
    6794 A    8708 TIP4 H1   HW0      0.679100        1.0080           
    6795 A    8708 TIP4 H2   HW0      0.679100        1.0080           
    6796 A    8708 TIP4 BD1  LP0     -1.358200        0.0000           
    6797 A    8709 TIP4 O1   OW0      0.000000       15.9990           
    6798 A    8709 TIP4 H1   HW0      0.679100        1.0080           
    6799 A    8709 TIP4 H2   HW0      0.679100        1.0080           
    6800 A    8709 TIP4 BD1  LP0     -1.358200        0.0000           
    6801 A    8710 TIP4 O1   OW0      0.000000       15.9990           
    6802 A    8710 TIP4 H1   HW0      0.679100        1.0080           
    6803 A    8710 TIP4 H2   HW0      0.679100        1.0080           
    6804 A    8710 TIP4 BD1  LP0     -1.358200        0.0000           
    6805 A    8711 TIP4 O1   OW0      0.000000       15.9990           
    6806 A    8711 TIP4 H1   HW0      0.679100        1.0080           
    6807 A    8711 TIP4 H2   HW0      0.679100        1.0080           
    6808 A    8711 TIP4 BD1  LP0     -1.358200        0.0000           
    6809 A    8712 TIP4 O1   OW0      0.000000       15.9990           
    6810 A    8712 TIP4 H1   HW0      0.679100        1.0080           
    6811 A    8712 TIP4 H2   HW0      0.679100        1.0080           
    6812 A    8712 TIP4 BD1  LP0     -1.358200        0.0000           
    6813 A    8713 TIP4 O1   OW0      0.000000       15.9990           
    6814 A    8713 TIP4 H1   HW0      0.679100        1.0080           
    6815 A    8713 TIP4 H2   HW0      0.679100        1.0080           
    6816 A    8713 TIP4 BD1  LP0     -1.358200        0.0000           
    6817 A    8714 TIP4 O1   OW0      0.000000       15.9990           
    6818 A    8714 TIP4 H1   HW0      0.679100        1.0080           
    6819 A    8714 TIP4 H2   HW0      0.679100        1.0080           
    6820 A    8714 TIP4 BD1  LP0     -1.358200        0.0000           
    6821 A    8715 TIP4 O1   OW0      0.000000       15.9990           
    6822 A    8715 TIP4 H1   HW0      0.679100        1.0080           
    6823 A    8715 TIP4 H2   HW0      0.679100        1.0080           
    6824 A    8715 TIP4 BD1  LP0     -1.358200        0.0000           
    6825 A    8716 TIP4 O1   OW0      0.000000       15.9990           
    6826 A    8716 TIP4 H1   HW0      0.679100        1.0080           
    6827 A    8716 TIP4 H2   HW0      0.679100        1.0080           
    6828 A    8716 TIP4 BD1  LP0     -1.358200        0.0000           
    6829 A    8717 TIP4 O1   OW0      0.000000       15.9990           
    6830 A    8717 TIP4 H1   HW0      0.679100        1.0080           
    6831 A    8717 TIP4 H2   HW0      0.679100        1.0080           
    6832 A    8717 TIP4 BD1  LP0     -1.358200        0.0000           
    6833 A    8718 TIP4 O1   OW0      0.000000       15.9990           
    6834 A    8718 TIP4 H1   HW0      0.679100        1.0080           
    6835 A    8718 TIP4 H2   HW0      0.679100        1.0080           
    6836 A    8718 TIP4 BD1  LP0     -1.358200        0.0000           
    6837 A    8719 TIP4 O1   OW0      0.000000       15.9990           
    6838 A    8719 TIP4 H1   HW0      0.679100        1.0080           
    6839 A    8719 TIP4 H2   HW0      0.679100        1.0080           
    6840 A    8719 TIP4 BD1  LP0     -1.358200        0.0000           
    6841 A    8720 TIP4 O1   OW0      0.000000       15.9990           
    6842 A    8720 TIP4 H1   HW0      0.679100        1.0080           
    6843 A    8720 TIP4 H2   HW0      0.679100        1.0080           
    6844 A    8720 TIP4 BD1  LP0     -1.358200        0.0000           
    6845 A    8721 TIP4 O1   OW0      0.000000       15.9990           
    6846 A    8721 TIP4 H1   HW0      0.679100        1.0080           
    6847 A    8721 TIP4 H2   HW0      0.679100        1.0080           
    6848 A    8721 TIP4 BD1  LP0     -1.358200        0.0000           
    6849 A    8722 TIP4 O1   OW0      0.000000       15.9990           
    6850 A    8722 TIP4 H1   HW0      0.679100        1.0080           
    6851 A    8722 TIP4 H2   HW0      0.679100        1.0080           
    6852 A    8722 TIP4 BD1  LP0     -1.358200        0.0000           
    6853 A    8723 TIP4 O1   OW0      0.000000       15.9990           
    6854 A    8723 TIP4 H1   HW0      0.679100        1.0080           
    6855 A    8723 TIP4 H2   HW0      0.679100        1.0080           
    6856 A    8723 TIP4 BD1  LP0     -1.358200        0.0000           
    6857 A    8724 TIP4 O1   OW0      0.000000       15.9990           
    6858 A    8724 TIP4 H1   HW0      0.679100        1.0080           
    6859 A    8724 TIP4 H2   HW0      0.679100        1.0080           
    6860 A    8724 TIP4 BD1  LP0     -1.358200        0.0000           
    6861 A    8725 TIP4 O1   OW0      0.000000       15.9990           
    6862 A    8725 TIP4 H1   HW0      0.679100        1.0080           
    6863 A    8725 TIP4 H2   HW0      0.679100        1.0080           
    6864 A    8725 TIP4 BD1  LP0     -1.358200        0.0000           
    6865 A    8726 TIP4 O1   OW0      0.000000       15.9990           
    6866 A    8726 TIP4 H1   HW0      0.679100        1.0080           
    6867 A    8726 TIP4 H2   HW0      0.679100        1.0080           
    6868 A    8726 TIP4 BD1  LP0     -1.358200        0.0000           
    6869 A    8727 TIP4 O1   OW0      0.000000       15.9990           
    6870 A    8727 TIP4 H1   HW0      0.679100        1.0080           
    6871 A    8727 TIP4 H2   HW0      0.679100        1.0080           
    6872 A    8727 TIP4 BD1  LP0     -1.358200        0.0000           
    6873 A    8728 TIP4 O1   OW0      0.000000       15.9990           
    6874 A    8728 TIP4 H1   HW0      0.679100        1.0080           
    6875 A    8728 TIP4 H2   HW0      0.679100        1.0080           
    6876 A    8728 TIP4 BD1  LP0     -1.358200        0.0000           
    6877 A    8729 TIP4 O1   OW0      0.000000       15.9990           
    6878 A    8729 TIP4 H1   HW0      0.679100        1.0080           
    6879 A    8729 TIP4 H2   HW0      0.679100        1.0080           
    6880 A    8729 TIP4 BD1  LP0     -1.358200        0.0000           
    6881 A    8730 TIP4 O1   OW0      0.000000       15.9990           
    6882 A    8730 TIP4 H1   HW0      0.679100        1.0080           
    6883 A    8730 TIP4 H2   HW0      0.679100        1.0080           
    6884 A    8730 TIP4 BD1  LP0     -1.358200        0.0000           
    6885 A    8731 TIP4 O1   OW0      0.000000       15.9990           
    6886 A    8731 TIP4 H1   HW0      0.679100        1.0080           
    6887 A    8731 TIP4 H2   HW0      0.679100        1.0080           
    6888 A    8731 TIP4 BD1  LP0     -1.358200        0.0000           
    6889 A    8732 TIP4 O1   OW0      0.000000       15.9990           
    6890 A    8732 TIP4 H1   HW0      0.679100        1.0080           
    6891 A    8732 TIP4 H2   HW0      0.679100        1.0080           
    6892 A    8732 TIP4 BD1  LP0     -1.358200        0.0000           
    6893 A    8733 TIP4 O1   OW0      0.000000       15.9990           
    6894 A    8733 TIP4 H1   HW0      0.679100        1.0080           
    6895 A    8733 TIP4 H2   HW0      0.679100        1.0080           
    6896 A    8733 TIP4 BD1  LP0     -1.358200        0.0000           
    6897 A    8734 TIP4 O1   OW0      0.000000       15.9990           
    6898 A    8734 TIP4 H1   HW0      0.679100        1.0080           
    6899 A    8734 TIP4 H2   HW0      0.679100        1.0080           
    6900 A    8734 TIP4 BD1  LP0     -1.358200        0.0000           
    6901 A    8735 TIP4 O1   OW0      0.000000       15.9990           
    6902 A    8735 TIP4 H1   HW0      0.679100        1.0080           
    6903 A    8735 TIP4 H2   HW0      0.679100        1.0080           
    6904 A    8735 TIP4 BD1  LP0     -1.358200        0.0000           
    6905 A    8736 TIP4 O1   OW0      0.000000       15.9990           
    6906 A    8736 TIP4 H1   HW0      0.679100        1.0080           
    6907 A    8736 TIP4 H2   HW0      0.679100        1.0080           
    6908 A    8736 TIP4 BD1  LP0     -1.358200        0.0000           
    6909 A    8737 TIP4 O1   OW0      0.000000       15.9990           
    6910 A    8737 TIP4 H1   HW0      0.679100        1.0080           
    6911 A    8737 TIP4 H2   HW0      0.679100        1.0080           
    6912 A    8737 TIP4 BD1  LP0     -1.358200        0.0000           
    6913 A    8738 TIP4 O1   OW0      0.000000       15.9990           
    6914 A    8738 TIP4 H1   HW0      0.679100        1.0080           
    6915 A    8738 TIP4 H2   HW0      0.679100        1.0080           
    6916 A    8738 TIP4 BD1  LP0     -1.358200        0.0000           
    6917 A    8739 TIP4 O1   OW0      0.000000       15.9990           
    6918 A    8739 TIP4 H1   HW0      0.679100        1.0080           
    6919 A    8739 TIP4 H2   HW0      0.679100        1.0080           
    6920 A    8739 TIP4 BD1  LP0     -1.358200        0.0000           
    6921 A    8740 TIP4 O1   OW0      0.000000       15.9990           
    6922 A    8740 TIP4 H1   HW0      0.679100        1.0080           
    6923 A    8740 TIP4 H2   HW0      0.679100        1.0080           
    6924 A    8740 TIP4 BD1  LP0     -1.358200        0.0000           
    6925 A    8741 TIP4 O1   OW0      0.000000       15.9990           
    6926 A    8741 TIP4 H1   HW0      0.679100        1.0080           
    6927 A    8741 TIP4 H2   HW0      0.679100        1.0080           
    6928 A    8741 TIP4 BD1  LP0     -1.358200        0.0000           
    6929 A    8742 TIP4 O1   OW0      0.000000       15.9990           
    6930 A    8742 TIP4 H1   HW0      0.679100        1.0080           
    6931 A    8742 TIP4 H2   HW0      0.679100        1.0080           
    6932 A    8742 TIP4 BD1  LP0     -1.358200        0.0000           
    6933 A    8743 TIP4 O1   OW0      0.000000       15.9990           
    6934 A    8743 TIP4 H1   HW0      0.679100        1.0080           
    6935 A    8743 TIP4 H2   HW0      0.679100        1.0080           
    6936 A    8743 TIP4 BD1  LP0     -1.358200        0.0000           
    6937 A    8744 TIP4 O1   OW0      0.000000       15.9990           
    6938 A    8744 TIP4 H1   HW0      0.679100        1.0080           
    6939 A    8744 TIP4 H2   HW0      0.679100        1.0080           
    6940 A    8744 TIP4 BD1  LP0     -1.358200        0.0000           
    6941 A    8745 TIP4 O1   OW0      0.000000       15.9990           
    6942 A    8745 TIP4 H1   HW0      0.679100        1.0080           
    6943 A    8745 TIP4 H2   HW0      0.679100        1.0080           
    6944 A    8745 TIP4 BD1  LP0     -1.358200        0.0000           
    6945 A    8746 TIP4 O1   OW0      0.000000       15.9990           
    6946 A    8746 TIP4 H1   HW0      0.679100        1.0080           
    6947 A    8746 TIP4 H2   HW0      0.679100        1.0080           
    6948 A    8746 TIP4 BD1  LP0     -1.358200        0.0000           
    6949 A    8747 TIP4 O1   OW0      0.000000       15.9990           
    6950 A    8747 TIP4 H1   HW0      0.679100        1.0080           
    6951 A    8747 TIP4 H2   HW0      0.679100        1.0080           
    6952 A    8747 TIP4 BD1  LP0     -1.358200        0.0000           
    6953 A    8748 TIP4 O1   OW0      0.000000       15.9990           
    6954 A    8748 TIP4 H1   HW0      0.679100        1.0080           
    6955 A    8748 TIP4 H2   HW0      0.679100        1.0080           
    6956 A    8748 TIP4 BD1  LP0     -1.358200        0.0000           
    6957 A    8749 TIP4 O1   OW0      0.000000       15.9990           
    6958 A    8749 TIP4 H1   HW0      0.679100        1.0080           
    6959 A    8749 TIP4 H2   HW0      0.679100        1.0080           
    6960 A    8749 TIP4 BD1  LP0     -1.358200        0.0000           
    6961 A    8750 TIP4 O1   OW0      0.000000       15.9990           
    6962 A    8750 TIP4 H1   HW0      0.679100        1.0080           
    6963 A    8750 TIP4 H2   HW0      0.679100        1.0080           
    6964 A    8750 TIP4 BD1  LP0     -1.358200        0.0000           
    6965 A    8751 TIP4 O1   OW0      0.000000       15.9990           
    6966 A    8751 TIP4 H1   HW0      0.679100        1.0080           
    6967 A    8751 TIP4 H2   HW0      0.679100        1.0080           
    6968 A    8751 TIP4 BD1  LP0     -1.358200        0.0000           
    6969 A    8752 TIP4 O1   OW0      0.000000       15.9990           
    6970 A    8752 TIP4 H1   HW0      0.679100        1.0080           
    6971 A    8752 TIP4 H2   HW0      0.679100        1.0080           
    6972 A    8752 TIP4 BD1  LP0     -1.358200        0.0000           
    6973 A    8753 TIP4 O1   OW0      0.000000       15.9990           
    6974 A    8753 TIP4 H1   HW0      0.679100        1.0080           
    6975 A    8753 TIP4 H2   HW0      0.679100        1.0080           
    6976 A    8753 TIP4 BD1  LP0     -1.358200        0.0000           
    6977 A    8754 TIP4 O1   OW0      0.000000       15.9990           
    6978 A    8754 TIP4 H1   HW0      0.679100        1.0080           
    6979 A    8754 TIP4 H2   HW0      0.679100        1.0080           
    6980 A    8754 TIP4 BD1  LP0     -1.358200        0.0000           
    6981 A    8755 TIP4 O1   OW0      0.000000       15.9990           
    6982 A    8755 TIP4 H1   HW0      0.679100        1.0080           
    6983 A    8755 TIP4 H2   HW0      0.679100        1.0080           
    6984 A    8755 TIP4 BD1  LP0     -1.358200        0.0000           
    6985 A    8756 TIP4 O1   OW0      0.000000       15.9990           
    6986 A    8756 TIP4 H1   HW0      0.679100        1.0080           
    6987 A    8756 TIP4 H2   HW0      0.679100        1.0080           
    6988 A    8756 TIP4 BD1  LP0     -1.358200        0.0000           
    6989 A    8757 TIP4 O1   OW0      0.000000       15.9990           
    6990 A    8757 TIP4 H1   HW0      0.679100        1.0080           
    6991 A    8757 TIP4 H2   HW0      0.679100        1.0080           
    6992 A    8757 TIP4 BD1  LP0     -1.358200        0.0000           
    6993 A    8758 TIP4 O1   OW0      0.000000       15.9990           
    6994 A    8758 TIP4 H1   HW0      0.679100        1.0080           
    6995 A    8758 TIP4 H2   HW0      0.679100        1.0080           
    6996 A    8758 TIP4 BD1  LP0     -1.358200        0.0000           
    6997 A    8759 TIP4 O1   OW0      0.000000       15.9990           
    6998 A    8759 TIP4 H1   HW0      0.679100        1.0080           
    6999 A    8759 TIP4 H2   HW0      0.679100        1.0080           
    7000 A    8759 TIP4 BD1  LP0     -1.358200        0.0000           
    7001 A    8760 TIP4 O1   OW0      0.000000       15.9990           
    7002 A    8760 TIP4 H1   HW0      0.679100        1.0080           
    7003 A    8760 TIP4 H2   HW0      0.679100        1.0080           
    7004 A    8760 TIP4 BD1  LP0     -1.358200        0.0000           
    7005 A    8761 TIP4 O1   OW0      0.000000       15.9990           
    7006 A    8761 TIP4 H1   HW0      0.679100        1.0080           
    7007 A    8761 TIP4 H2   HW0      0.679100        1.0080           
    7008 A    8761 TIP4 BD1  LP0     -1.358200        0.0000           
    7009 A    8762 TIP4 O1   OW0      0.000000       15.9990           
    7010 A    8762 TIP4 H1   HW0      0.679100        1.0080           
    7011 A    8762 TIP4 H2   HW0      0.679100        1.0080           
    7012 A    8762 TIP4 BD1  LP0     -1.358200        0.0000           
    7013 A    8763 TIP4 O1   OW0      0.000000       15.9990           
    7014 A    8763 TIP4 H1   HW0      0.679100        1.0080           
    7015 A    8763 TIP4 H2   HW0      0.679100        1.0080           
    7016 A    8763 TIP4 BD1  LP0     -1.358200        0.0000           
    7017 A    8764 TIP4 O1   OW0      0.000000       15.9990           
    7018 A    8764 TIP4 H1   HW0      0.679100        1.0080           
    7019 A    8764 TIP4 H2   HW0      0.679100        1.0080           
    7020 A    8764 TIP4 BD1  LP0     -1.358200        0.0000           
    7021 A    8765 TIP4 O1   OW0      0.000000       15.9990           
    7022 A    8765 TIP4 H1   HW0      0.679100        1.0080           
    7023 A    8765 TIP4 H2   HW0      0.679100        1.0080           
    7024 A    8765 TIP4 BD1  LP0     -1.358200        0.0000           
    7025 A    8766 TIP4 O1   OW0      0.000000       15.9990           
    7026 A    8766 TIP4 H1   HW0      0.679100        1.0080           
    7027 A    8766 TIP4 H2   HW0      0.679100        1.0080           
    7028 A    8766 TIP4 BD1  LP0     -1.358200        0.0000           
    7029 A    8767 TIP4 O1   OW0      0.000000       15.9990           
    7030 A    8767 TIP4 H1   HW0      0.679100        1.0080           
    7031 A    8767 TIP4 H2   HW0      0.679100        1.0080           
    7032 A    8767 TIP4 BD1  LP0     -1.358200        0.0000           
    7033 A    8768 TIP4 O1   OW0      0.000000       15.9990           
    7034 A    8768 TIP4 H1   HW0      0.679100        1.0080           
    7035 A    8768 TIP4 H2   HW0      0.679100        1.0080           
    7036 A    8768 TIP4 BD1  LP0     -1.358200        0.0000           
    7037 A    8769 TIP4 O1   OW0      0.000000       15.9990           
    7038 A    8769 TIP4 H1   HW0      0.679100        1.0080           
    7039 A    8769 TIP4 H2   HW0      0.679100        1.0080           
    7040 A    8769 TIP4 BD1  LP0     -1.358200        0.0000           
    7041 A    8770 TIP4 O1   OW0      0.000000       15.9990           
    7042 A    8770 TIP4 H1   HW0      0.679100        1.0080           
    7043 A    8770 TIP4 H2   HW0      0.679100        1.0080           
    7044 A    8770 TIP4 BD1  LP0     -1.358200        0.0000           
    7045 A    8771 TIP4 O1   OW0      0.000000       15.9990           
    7046 A    8771 TIP4 H1   HW0      0.679100        1.0080           
    7047 A    8771 TIP4 H2   HW0      0.679100        1.0080           
    7048 A    8771 TIP4 BD1  LP0     -1.358200        0.0000           
    7049 A    8772 TIP4 O1   OW0      0.000000       15.9990           
    7050 A    8772 TIP4 H1   HW0      0.679100        1.0080           
    7051 A    8772 TIP4 H2   HW0      0.679100        1.0080           
    7052 A    8772 TIP4 BD1  LP0     -1.358200        0.0000           
    7053 A    8773 TIP4 O1   OW0      0.000000       15.9990           
    7054 A    8773 TIP4 H1   HW0      0.679100        1.0080           
    7055 A    8773 TIP4 H2   HW0      0.679100        1.0080           
    7056 A    8773 TIP4 BD1  LP0     -1.358200        0.0000           
    7057 A    8774 TIP4 O1   OW0      0.000000       15.9990           
    7058 A    8774 TIP4 H1   HW0      0.679100        1.0080           
    7059 A    8774 TIP4 H2   HW0      0.679100        1.0080           
    7060 A    8774 TIP4 BD1  LP0     -1.358200        0.0000           
    7061 A    8775 TIP4 O1   OW0      0.000000       15.9990           
    7062 A    8775 TIP4 H1   HW0      0.679100        1.0080           
    7063 A    8775 TIP4 H2   HW0      0.679100        1.0080           
    7064 A    8775 TIP4 BD1  LP0     -1.358200        0.0000           
    7065 A    8776 TIP4 O1   OW0      0.000000       15.9990           
    7066 A    8776 TIP4 H1   HW0      0.679100        1.0080           
    7067 A    8776 TIP4 H2   HW0      0.679100        1.0080           
    7068 A    8776 TIP4 BD1  LP0     -1.358200        0.0000           
    7069 A    8777 TIP4 O1   OW0      0.000000       15.9990           
    7070 A    8777 TIP4 H1   HW0      0.679100        1.0080           
    7071 A    8777 TIP4 H2   HW0      0.679100        1.0080           
    7072 A    8777 TIP4 BD1  LP0     -1.358200        0.0000           
    7073 A    8778 TIP4 O1   OW0      0.000000       15.9990           
    7074 A    8778 TIP4 H1   HW0      0.679100        1.0080           
    7075 A    8778 TIP4 H2   HW0      0.679100        1.0080           
    7076 A    8778 TIP4 BD1  LP0     -1.358200        0.0000           
    7077 A    8779 TIP4 O1   OW0      0.000000       15.9990           
    7078 A    8779 TIP4 H1   HW0      0.679100        1.0080           
    7079 A    8779 TIP4 H2   HW0      0.679100        1.0080           
    7080 A    8779 TIP4 BD1  LP0     -1.358200        0.0000           
    7081 A    8780 TIP4 O1   OW0      0.000000       15.9990           
    7082 A    8780 TIP4 H1   HW0      0.679100        1.0080           
    7083 A    8780 TIP4 H2   HW0      0.679100        1.0080           
    7084 A    8780 TIP4 BD1  LP0     -1.358200        0.0000           
    7085 A    8781 TIP4 O1   OW0      0.000000       15.9990           
    7086 A    8781 TIP4 H1   HW0      0.679100        1.0080           
    7087 A    8781 TIP4 H2   HW0      0.679100        1.0080           
    7088 A    8781 TIP4 BD1  LP0     -1.358200        0.0000           
    7089 A    8782 TIP4 O1   OW0      0.000000       15.9990           
    7090 A    8782 TIP4 H1   HW0      0.679100        1.0080           
    7091 A    8782 TIP4 H2   HW0      0.679100        1.0080           
    7092 A    8782 TIP4 BD1  LP0     -1.358200        0.0000           
    7093 A    8783 TIP4 O1   OW0      0.000000       15.9990           
    7094 A    8783 TIP4 H1   HW0      0.679100        1.0080           
    7095 A    8783 TIP4 H2   HW0      0.679100        1.0080           
    7096 A    8783 TIP4 BD1  LP0     -1.358200        0.0000           
    7097 A    8784 TIP4 O1   OW0      0.000000       15.9990           
    7098 A    8784 TIP4 H1   HW0      0.679100        1.0080           
    7099 A    8784 TIP4 H2   HW0      0.679100        1.0080           
    7100 A    8784 TIP4 BD1  LP0     -1.358200        0.0000           
    7101 A    8785 TIP4 O1   OW0      0.000000       15.9990           
    7102 A    8785 TIP4 H1   HW0      0.679100        1.0080           
    7103 A    8785 TIP4 H2   HW0      0.679100        1.0080           
    7104 A    8785 TIP4 BD1  LP0     -1.358200        0.0000           
    7105 A    8786 TIP4 O1   OW0      0.000000       15.9990           
    7106 A    8786 TIP4 H1   HW0      0.679100        1.0080           
    7107 A    8786 TIP4 H2   HW0      0.679100        1.0080           
    7108 A    8786 TIP4 BD1  LP0     -1.358200        0.0000           
    7109 A    8787 TIP4 O1   OW0      0.000000       15.9990           
    7110 A    8787 TIP4 H1   HW0      0.679100        1.0080           
    7111 A    8787 TIP4 H2   HW0      0.679100        1.0080           
    7112 A    8787 TIP4 BD1  LP0     -1.358200        0.0000           
    7113 A    8788 TIP4 O1   OW0      0.000000       15.9990           
    7114 A    8788 TIP4 H1   HW0      0.679100        1.0080           
    7115 A    8788 TIP4 H2   HW0      0.679100        1.0080           
    7116 A    8788 TIP4 BD1  LP0     -1.358200        0.0000           
    7117 A    8789 TIP4 O1   OW0      0.000000       15.9990           
    7118 A    8789 TIP4 H1   HW0      0.679100        1.0080           
    7119 A    8789 TIP4 H2   HW0      0.679100        1.0080           
    7120 A    8789 TIP4 BD1  LP0     -1.358200        0.0000           
    7121 A    8790 TIP4 O1   OW0      0.000000       15.9990           
    7122 A    8790 TIP4 H1   HW0      0.679100        1.0080           
    7123 A    8790 TIP4 H2   HW0      0.679100        1.0080           
    7124 A    8790 TIP4 BD1  LP0     -1.358200        0.0000           
    7125 A    8791 TIP4 O1   OW0      0.000000       15.9990           
    7126 A    8791 TIP4 H1   HW0      0.679100        1.0080           
    7127 A    8791 TIP4 H2   HW0      0.679100        1.0080           
    7128 A    8791 TIP4 BD1  LP0     -1.358200        0.0000           
    7129 A    8792 TIP4 O1   OW0      0.000000       15.9990           
    7130 A    8792 TIP4 H1   HW0      0.679100        1.0080           
    7131 A    8792 TIP4 H2   HW0      0.679100        1.0080           
    7132 A    8792 TIP4 BD1  LP0     -1.358200        0.0000           
    7133 A    8793 TIP4 O1   OW0      0.000000       15.9990           
    7134 A    8793 TIP4 H1   HW0      0.679100        1.0080           
    7135 A    8793 TIP4 H2   HW0      0.679100        1.0080           
    7136 A    8793 TIP4 BD1  LP0     -1.358200        0.0000           
    7137 A    8794 TIP4 O1   OW0      0.000000       15.9990           
    7138 A    8794 TIP4 H1   HW0      0.679100        1.0080           
    7139 A    8794 TIP4 H2   HW0      0.679100        1.0080           
    7140 A    8794 TIP4 BD1  LP0     -1.358200        0.0000           
    7141 A    8795 TIP4 O1   OW0      0.000000       15.9990           
    7142 A    8795 TIP4 H1   HW0      0.679100        1.0080           
    7143 A    8795 TIP4 H2   HW0      0.679100        1.0080           
    7144 A    8795 TIP4 BD1  LP0     -1.358200        0.0000           
    7145 A    8796 TIP4 O1   OW0      0.000000       15.9990           
    7146 A    8796 TIP4 H1   HW0      0.679100        1.0080           
    7147 A    8796 TIP4 H2   HW0      0.679100        1.0080           
    7148 A    8796 TIP4 BD1  LP0     -1.358200        0.0000           
    7149 A    8797 TIP4 O1   OW0      0.000000       15.9990           
    7150 A    8797 TIP4 H1   HW0      0.679100        1.0080           
    7151 A    8797 TIP4 H2   HW0      0.679100        1.0080           
    7152 A    8797 TIP4 BD1  LP0     -1.358200        0.0000           
    7153 A    8798 TIP4 O1   OW0      0.000000       15.9990           
    7154 A    8798 TIP4 H1   HW0      0.679100        1.0080           
    7155 A    8798 TIP4 H2   HW0      0.679100        1.0080           
    7156 A    8798 TIP4 BD1  LP0     -1.358200        0.0000           
    7157 A    8799 TIP4 O1   OW0      0.000000       15.9990           
    7158 A    8799 TIP4 H1   HW0      0.679100        1.0080           
    7159 A    8799 TIP4 H2   HW0      0.679100        1.0080           
    7160 A    8799 TIP4 BD1  LP0     -1.358200        0.0000           
    7161 A    8800 TIP4 O1   OW0      0.000000       15.9990           
    7162 A    8800 TIP4 H1   HW0      0.679100        1.0080           
    7163 A    8800 TIP4 H2   HW0      0.679100        1.0080           
    7164 A    8800 TIP4 BD1  LP0     -1.358200        0.0000           
    7165 A    8801 TIP4 O1   OW0      0.000000       15.9990           
    7166 A    8801 TIP4 H1   HW0      0.679100        1.0080           
    7167 A    8801 TIP4 H2   HW0      0.679100        1.0080           
    7168 A    8801 TIP4 BD1  LP0     -1.358200        0.0000           
    7169 A    8802 TIP4 O1   OW0      0.000000       15.9990           
    7170 A    8802 TIP4 H1   HW0      0.679100        1.0080           
    7171 A    8802 TIP4 H2   HW0      0.679100        1.0080           
    7172 A    8802 TIP4 BD1  LP0     -1.358200        0.0000           
    7173 A    8803 TIP4 O1   OW0      0.000000       15.9990           
    7174 A    8803 TIP4 H1   HW0      0.679100        1.0080           
    7175 A    8803 TIP4 H2   HW0      0.679100        1.0080           
    7176 A    8803 TIP4 BD1  LP0     -1.358200        0.0000           
    7177 A    8804 TIP4 O1   OW0      0.000000       15.9990           
    7178 A    8804 TIP4 H1   HW0      0.679100        1.0080           
    7179 A    8804 TIP4 H2   HW0      0.679100        1.0080           
    7180 A    8804 TIP4 BD1  LP0     -1.358200        0.0000           
    7181 A    8805 TIP4 O1   OW0      0.000000       15.9990           
    7182 A    8805 TIP4 H1   HW0      0.679100        1.0080           
    7183 A    8805 TIP4 H2   HW0      0.679100        1.0080           
    7184 A    8805 TIP4 BD1  LP0     -1.358200        0.0000           
    7185 A    8806 TIP4 O1   OW0      0.000000       15.9990           
    7186 A    8806 TIP4 H1   HW0      0.679100        1.0080           
    7187 A    8806 TIP4 H2   HW0      0.679100        1.0080           
    7188 A    8806 TIP4 BD1  LP0     -1.358200        0.0000           
    7189 A    8807 TIP4 O1   OW0      0.000000       15.9990           
    7190 A    8807 TIP4 H1   HW0      0.679100        1.0080           
    7191 A    8807 TIP4 H2   HW0      0.679100        1.0080           
    7192 A    8807 TIP4 BD1  LP0     -1.358200        0.0000           
    7193 A    8808 TIP4 O1   OW0      0.000000       15.9990           
    7194 A    8808 TIP4 H1   HW0      0.679100        1.0080           
    7195 A    8808 TIP4 H2   HW0      0.679100        1.0080           
    7196 A    8808 TIP4 BD1  LP0     -1.358200        0.0000           
    7197 A    8809 TIP4 O1   OW0      0.000000       15.9990           
    7198 A    8809 TIP4 H1   HW0      0.679100        1.0080           
    7199 A    8809 TIP4 H2   HW0      0.679100        1.0080           
    7200 A    8809 TIP4 BD1  LP0     -1.358200        0.0000           
    7201 A    8810 TIP4 O1   OW0      0.000000       15.9990           
    7202 A    8810 TIP4 H1   HW0      0.679100        1.0080           
    7203 A    8810 TIP4 H2   HW0      0.679100        1.0080           
    7204 A    8810 TIP4 BD1  LP0     -1.358200        0.0000           
    7205 A    8811 TIP4 O1   OW0      0.000000       15.9990           
    7206 A    8811 TIP4 H1   HW0      0.679100        1.0080           
    7207 A    8811 TIP4 H2   HW0      0.679100        1.0080           
    7208 A    8811 TIP4 BD1  LP0     -1.358200        0.0000           
    7209 A    8812 TIP4 O1   OW0      0.000000       15.9990           
    7210 A    8812 TIP4 H1   HW0      0.679100        1.0080           
    7211 A    8812 TIP4 H2   HW0      0.679100        1.0080           
    7212 A    8812 TIP4 BD1  LP0     -1.358200        0.0000           
    7213 A    8813 TIP4 O1   OW0      0.000000       15.9990           
    7214 A    8813 TIP4 H1   HW0      0.679100        1.0080           
    7215 A    8813 TIP4 H2   HW0      0.679100        1.0080           
    7216 A    8813 TIP4 BD1  LP0     -1.358200        0.0000           
    7217 A    8814 TIP4 O1   OW0      0.000000       15.9990           
    7218 A    8814 TIP4 H1   HW0      0.679100        1.0080           
    7219 A    8814 TIP4 H2   HW0      0.679100        1.0080           
    7220 A    8814 TIP4 BD1  LP0     -1.358200        0.0000           
    7221 A    8815 TIP4 O1   OW0      0.000000       15.9990           
    7222 A    8815 TIP4 H1   HW0      0.679100        1.0080           
    7223 A    8815 TIP4 H2   HW0      0.679100        1.0080           
    7224 A    8815 TIP4 BD1  LP0     -1.358200        0.0000           
    7225 A    8816 TIP4 O1   OW0      0.000000       15.9990           
    7226 A    8816 TIP4 H1   HW0      0.679100        1.0080           
    7227 A    8816 TIP4 H2   HW0      0.679100        1.0080           
    7228 A    8816 TIP4 BD1  LP0     -1.358200        0.0000           
    7229 A    8817 TIP4 O1   OW0      0.000000       15.9990           
    7230 A    8817 TIP4 H1   HW0      0.679100        1.0080           
    7231 A    8817 TIP4 H2   HW0      0.679100        1.0080           
    7232 A    8817 TIP4 BD1  LP0     -1.358200        0.0000           
    7233 A    8818 TIP4 O1   OW0      0.000000       15.9990           
    7234 A    8818 TIP4 H1   HW0      0.679100        1.0080           
    7235 A    8818 TIP4 H2   HW0      0.679100        1.0080           
    7236 A    8818 TIP4 BD1  LP0     -1.358200        0.0000           
    7237 A    8819 TIP4 O1   OW0      0.000000       15.9990           
    7238 A    8819 TIP4 H1   HW0      0.679100        1.0080           
    7239 A    8819 TIP4 H2   HW0      0.679100        1.0080           
    7240 A    8819 TIP4 BD1  LP0     -1.358200        0.0000           
    7241 A    8820 TIP4 O1   OW0      0.000000       15.9990           
    7242 A    8820 TIP4 H1   HW0      0.679100        1.0080           
    7243 A    8820 TIP4 H2   HW0      0.679100        1.0080           
    7244 A    8820 TIP4 BD1  LP0     -1.358200        0.0000           
    7245 A    8821 TIP4 O1   OW0      0.000000       15.9990           
    7246 A    8821 TIP4 H1   HW0      0.679100        1.0080           
    7247 A    8821 TIP4 H2   HW0      0.679100        1.0080           
    7248 A    8821 TIP4 BD1  LP0     -1.358200        0.0000           
    7249 A    8822 TIP4 O1   OW0      0.000000       15.9990           
    7250 A    8822 TIP4 H1   HW0      0.679100        1.0080           
    7251 A    8822 TIP4 H2   HW0      0.679100        1.0080           
    7252 A    8822 TIP4 BD1  LP0     -1.358200        0.0000           
    7253 A    8823 TIP4 O1   OW0      0.000000       15.9990           
    7254 A    8823 TIP4 H1   HW0      0.679100        1.0080           
    7255 A    8823 TIP4 H2   HW0      0.679100        1.0080           
    7256 A    8823 TIP4 BD1  LP0     -1.358200        0.0000           
    7257 A    8824 TIP4 O1   OW0      0.000000       15.9990           
    7258 A    8824 TIP4 H1   HW0      0.679100        1.0080           
    7259 A    8824 TIP4 H2   HW0      0.679100        1.0080           
    7260 A    8824 TIP4 BD1  LP0     -1.358200        0.0000           
    7261 A    8825 TIP4 O1   OW0      0.000000       15.9990           
    7262 A    8825 TIP4 H1   HW0      0.679100        1.0080           
    7263 A    8825 TIP4 H2   HW0      0.679100        1.0080           
    7264 A    8825 TIP4 BD1  LP0     -1.358200        0.0000           
    7265 A    8826 TIP4 O1   OW0      0.000000       15.9990           
    7266 A    8826 TIP4 H1   HW0      0.679100        1.0080           
    7267 A    8826 TIP4 H2   HW0      0.679100        1.0080           
    7268 A    8826 TIP4 BD1  LP0     -1.358200        0.0000           
    7269 A    8827 TIP4 O1   OW0      0.000000       15.9990           
    7270 A    8827 TIP4 H1   HW0      0.679100        1.0080           
    7271 A    8827 TIP4 H2   HW0      0.679100        1.0080           
    7272 A    8827 TIP4 BD1  LP0     -1.358200        0.0000           
    7273 A    8828 TIP4 O1   OW0      0.000000       15.9990           
    7274 A    8828 TIP4 H1   HW0      0.679100        1.0080           
    7275 A    8828 TIP4 H2   HW0      0.679100        1.0080           
    7276 A    8828 TIP4 BD1  LP0     -1.358200        0.0000           
    7277 A    8829 TIP4 O1   OW0      0.000000       15.9990           
    7278 A    8829 TIP4 H1   HW0      0.679100        1.0080           
    7279 A    8829 TIP4 H2   HW0      0.679100        1.0080           
    7280 A    8829 TIP4 BD1  LP0     -1.358200        0.0000           
    7281 A    8830 TIP4 O1   OW0      0.000000       15.9990           
    7282 A    8830 TIP4 H1   HW0      0.679100        1.0080           
    7283 A    8830 TIP4 H2   HW0      0.679100        1.0080           
    7284 A    8830 TIP4 BD1  LP0     -1.358200        0.0000           
    7285 A    8831 TIP4 O1   OW0      0.000000       15.9990           
    7286 A    8831 TIP4 H1   HW0      0.679100        1.0080           
    7287 A    8831 TIP4 H2   HW0      0.679100        1.0080           
    7288 A    8831 TIP4 BD1  LP0     -1.358200        0.0000           
    7289 A    8832 TIP4 O1   OW0      0.000000       15.9990           
    7290 A    8832 TIP4 H1   HW0      0.679100        1.0080           
    7291 A    8832 TIP4 H2   HW0      0.679100        1.0080           
    7292 A    8832 TIP4 BD1  LP0     -1.358200        0.0000           
    7293 A    8833 TIP4 O1   OW0      0.000000       15.9990           
    7294 A    8833 TIP4 H1   HW0      0.679100        1.0080           
    7295 A    8833 TIP4 H2   HW0      0.679100        1.0080           
    7296 A    8833 TIP4 BD1  LP0     -1.358200        0.0000           
    7297 A    8834 TIP4 O1   OW0      0.000000       15.9990           
    7298 A    8834 TIP4 H1   HW0      0.679100        1.0080           
    7299 A    8834 TIP4 H2   HW0      0.679100        1.0080           
    7300 A    8834 TIP4 BD1  LP0     -1.358200        0.0000           
    7301 A    8835 TIP4 O1   OW0      0.000000       15.9990           
    7302 A    8835 TIP4 H1   HW0      0.679100        1.0080           
    7303 A    8835 TIP4 H2   HW0      0.679100        1.0080           
    7304 A    8835 TIP4 BD1  LP0     -1.358200        0.0000           
    7305 A    8836 TIP4 O1   OW0      0.000000       15.9990           
    7306 A    8836 TIP4 H1   HW0      0.679100        1.0080           
    7307 A    8836 TIP4 H2   HW0      0.679100        1.0080           
    7308 A    8836 TIP4 BD1  LP0     -1.358200        0.0000           
    7309 A    8837 TIP4 O1   OW0      0.000000       15.9990           
    7310 A    8837 TIP4 H1   HW0      0.679100        1.0080           
    7311 A    8837 TIP4 H2   HW0      0.679100        1.0080           
    7312 A    8837 TIP4 BD1  LP0     -1.358200        0.0000           
    7313 A    8838 TIP4 O1   OW0      0.000000       15.9990           
    7314 A    8838 TIP4 H1   HW0      0.679100        1.0080           
    7315 A    8838 TIP4 H2   HW0      0.679100        1.0080           
    7316 A    8838 TIP4 BD1  LP0     -1.358200        0.0000           
    7317 A    8839 TIP4 O1   OW0      0.000000       15.9990           
    7318 A    8839 TIP4 H1   HW0      0.679100        1.0080           
    7319 A    8839 TIP4 H2   HW0      0.679100        1.0080           
    7320 A    8839 TIP4 BD1  LP0     -1.358200        0.0000           
    7321 A    8840 TIP4 O1   OW0      0.000000       15.9990           
    7322 A    8840 TIP4 H1   HW0      0.679100        1.0080           
    7323 A    8840 TIP4 H2   HW0      0.679100        1.0080           
    7324 A    8840 TIP4 BD1  LP0     -1.358200        0.0000           
    7325 A    8841 TIP4 O1   OW0      0.000000       15.9990           
    7326 A    8841 TIP4 H1   HW0      0.679100        1.0080           
    7327 A    8841 TIP4 H2   HW0      0.679100        1.0080           
    7328 A    8841 TIP4 BD1  LP0     -1.358200        0.0000           
    7329 A    8842 TIP4 O1   OW0      0.000000       15.9990           
    7330 A    8842 TIP4 H1   HW0      0.679100        1.0080           
    7331 A    8842 TIP4 H2   HW0      0.679100        1.0080           
    7332 A    8842 TIP4 BD1  LP0     -1.358200        0.0000           
    7333 A    8843 TIP4 O1   OW0      0.000000       15.9990           
    7334 A    8843 TIP4 H1   HW0      0.679100        1.0080           
    7335 A    8843 TIP4 H2   HW0      0.679100        1.0080           
    7336 A    8843 TIP4 BD1  LP0     -1.358200        0.0000           
    7337 A    8844 TIP4 O1   OW0      0.000000       15.9990           
    7338 A    8844 TIP4 H1   HW0      0.679100        1.0080           
    7339 A    8844 TIP4 H2   HW0      0.679100        1.0080           
    7340 A    8844 TIP4 BD1  LP0     -1.358200        0.0000           
    7341 A    8845 TIP4 O1   OW0      0.000000       15.9990           
    7342 A    8845 TIP4 H1   HW0      0.679100        1.0080           
    7343 A    8845 TIP4 H2   HW0      0.679100        1.0080           
    7344 A    8845 TIP4 BD1  LP0     -1.358200        0.0000           
    7345 A    8846 TIP4 O1   OW0      0.000000       15.9990           
    7346 A    8846 TIP4 H1   HW0      0.679100        1.0080           
    7347 A    8846 TIP4 H2   HW0      0.679100        1.0080           
    7348 A    8846 TIP4 BD1  LP0     -1.358200        0.0000           
    7349 A    8847 TIP4 O1   OW0      0.000000       15.9990           
    7350 A    8847 TIP4 H1   HW0      0.679100        1.0080           
    7351 A    8847 TIP4 H2   HW0      0.679100        1.0080           
    7352 A    8847 TIP4 BD1  LP0     -1.358200        0.0000           
    7353 A    8848 TIP4 O1   OW0      0.000000       15.9990           
    7354 A    8848 TIP4 H1   HW0      0.679100        1.0080           
    7355 A    8848 TIP4 H2   HW0      0.679100        1.0080           
    7356 A    8848 TIP4 BD1  LP0     -1.358200        0.0000           
    7357 A    8849 TIP4 O1   OW0      0.000000       15.9990           
    7358 A    8849 TIP4 H1   HW0      0.679100        1.0080           
    7359 A    8849 TIP4 H2   HW0      0.679100        1.0080           
    7360 A    8849 TIP4 BD1  LP0     -1.358200        0.0000           
    7361 A    8850 TIP4 O1   OW0      0.000000       15.9990           
    7362 A    8850 TIP4 H1   HW0      0.679100        1.0080           
    7363 A    8850 TIP4 H2   HW0      0.679100        1.0080           
    7364 A    8850 TIP4 BD1  LP0     -1.358200        0.0000           
    7365 A    8851 TIP4 O1   OW0      0.000000       15.9990           
    7366 A    8851 TIP4 H1   HW0      0.679100        1.0080           
    7367 A    8851 TIP4 H2   HW0      0.679100        1.0080           
    7368 A    8851 TIP4 BD1  LP0     -1.358200        0.0000           
    7369 A    8852 TIP4 O1   OW0      0.000000       15.9990           
    7370 A    8852 TIP4 H1   HW0      0.679100        1.0080           
    7371 A    8852 TIP4 H2   HW0      0.679100        1.0080           
    7372 A    8852 TIP4 BD1  LP0     -1.358200        0.0000           
    7373 A    8853 TIP4 O1   OW0      0.000000       15.9990           
    7374 A    8853 TIP4 H1   HW0      0.679100        1.0080           
    7375 A    8853 TIP4 H2   HW0      0.679100        1.0080           
    7376 A    8853 TIP4 BD1  LP0     -1.358200        0.0000           
    7377 A    8854 TIP4 O1   OW0      0.000000       15.9990           
    7378 A    8854 TIP4 H1   HW0      0.679100        1.0080           
    7379 A    8854 TIP4 H2   HW0      0.679100        1.0080           
    7380 A    8854 TIP4 BD1  LP0     -1.358200        0.0000           
    7381 A    8855 TIP4 O1   OW0      0.000000       15.9990           
    7382 A    8855 TIP4 H1   HW0      0.679100        1.0080           
    7383 A    8855 TIP4 H2   HW0      0.679100        1.0080           
    7384 A    8855 TIP4 BD1  LP0     -1.358200        0.0000           
    7385 A    8856 TIP4 O1   OW0      0.000000       15.9990           
    7386 A    8856 TIP4 H1   HW0      0.679100        1.0080           
    7387 A    8856 TIP4 H2   HW0      0.679100        1.0080           
    7388 A    8856 TIP4 BD1  LP0     -1.358200        0.0000           
    7389 A    8857 TIP4 O1   OW0      0.000000       15.9990           
    7390 A    8857 TIP4 H1   HW0      0.679100        1.0080           
    7391 A    8857 TIP4 H2   HW0      0.679100        1.0080           
    7392 A    8857 TIP4 BD1  LP0     -1.358200        0.0000           
    7393 A    8858 TIP4 O1   OW0      0.000000       15.9990           
    7394 A    8858 TIP4 H1   HW0      0.679100        1.0080           
    7395 A    8858 TIP4 H2   HW0      0.679100        1.0080           
    7396 A    8858 TIP4 BD1  LP0     -1.358200        0.0000           
    7397 A    8859 TIP4 O1   OW0      0.000000       15.9990           
    7398 A    8859 TIP4 H1   HW0      0.679100        1.0080           
    7399 A    8859 TIP4 H2   HW0      0.679100        1.0080           
    7400 A    8859 TIP4 BD1  LP0     -1.358200        0.0000           
    7401 A    8860 TIP4 O1   OW0      0.000000       15.9990           
    7402 A    8860 TIP4 H1   HW0      0.679100        1.0080           
    7403 A    8860 TIP4 H2   HW0      0.679100        1.0080           
    7404 A    8860 TIP4 BD1  LP0     -1.358200        0.0000           
    7405 A    8861 TIP4 O1   OW0      0.000000       15.9990           
    7406 A    8861 TIP4 H1   HW0      0.679100        1.0080           
    7407 A    8861 TIP4 H2   HW0      0.679100        1.0080           
    7408 A    8861 TIP4 BD1  LP0     -1.358200        0.0000           
    7409 A    8862 TIP4 O1   OW0      0.000000       15.9990           
    7410 A    8862 TIP4 H1   HW0      0.679100        1.0080           
    7411 A    8862 TIP4 H2   HW0      0.679100        1.0080           
    7412 A    8862 TIP4 BD1  LP0     -1.358200        0.0000           
    7413 A    8863 TIP4 O1   OW0      0.000000       15.9990           
    7414 A    8863 TIP4 H1   HW0      0.679100        1.0080           
    7415 A    8863 TIP4 H2   HW0      0.679100        1.0080           
    7416 A    8863 TIP4 BD1  LP0     -1.358200        0.0000           
    7417 A    8864 TIP4 O1   OW0      0.000000       15.9990           
    7418 A    8864 TIP4 H1   HW0      0.679100        1.0080           
    7419 A    8864 TIP4 H2   HW0      0.679100        1.0080           
    7420 A    8864 TIP4 BD1  LP0     -1.358200        0.0000           
    7421 A    8865 TIP4 O1   OW0      0.000000       15.9990           
    7422 A    8865 TIP4 H1   HW0      0.679100        1.0080           
    7423 A    8865 TIP4 H2   HW0      0.679100        1.0080           
    7424 A    8865 TIP4 BD1  LP0     -1.358200        0.0000           
    7425 A    8866 TIP4 O1   OW0      0.000000       15.9990           
    7426 A    8866 TIP4 H1   HW0      0.679100        1.0080           
    7427 A    8866 TIP4 H2   HW0      0.679100        1.0080           
    7428 A    8866 TIP4 BD1  LP0     -1.358200        0.0000           
    7429 A    8867 TIP4 O1   OW0      0.000000       15.9990           
    7430 A    8867 TIP4 H1   HW0      0.679100        1.0080           
    7431 A    8867 TIP4 H2   HW0      0.679100        1.0080           
    7432 A    8867 TIP4 BD1  LP0     -1.358200        0.0000           
    7433 A    8868 TIP4 O1   OW0      0.000000       15.9990           
    7434 A    8868 TIP4 H1   HW0      0.679100        1.0080           
    7435 A    8868 TIP4 H2   HW0      0.679100        1.0080           
    7436 A    8868 TIP4 BD1  LP0     -1.358200        0.0000           
    7437 A    8869 TIP4 O1   OW0      0.000000       15.9990           
    7438 A    8869 TIP4 H1   HW0      0.679100        1.0080           
    7439 A    8869 TIP4 H2   HW0      0.679100        1.0080           
    7440 A    8869 TIP4 BD1  LP0     -1.358200        0.0000           
    7441 A    8870 TIP4 O1   OW0      0.000000       15.9990           
    7442 A    8870 TIP4 H1   HW0      0.679100        1.0080           
    7443 A    8870 TIP4 H2   HW0      0.679100        1.0080           
    7444 A    8870 TIP4 BD1  LP0     -1.358200        0.0000           
    7445 A    8871 TIP4 O1   OW0      0.000000       15.9990           
    7446 A    8871 TIP4 H1   HW0      0.679100        1.0080           
    7447 A    8871 TIP4 H2   HW0      0.679100        1.0080           
    7448 A    8871 TIP4 BD1  LP0     -1.358200        0.0000           
    7449 A    8872 TIP4 O1   OW0      0.000000       15.9990           
    7450 A    8872 TIP4 H1   HW0      0.679100        1.0080           
    7451 A    8872 TIP4 H2   HW0      0.679100        1.0080           
    7452 A    8872 TIP4 BD1  LP0     -1.358200        0.0000           
    7453 A    8873 TIP4 O1   OW0      0.000000       15.9990           
    7454 A    8873 TIP4 H1   HW0      0.679100        1.0080           
    7455 A    8873 TIP4 H2   HW0      0.679100        1.0080           
    7456 A    8873 TIP4 BD1  LP0     -1.358200        0.0000           
    7457 A    8874 TIP4 O1   OW0      0.000000       15.9990           
    7458 A    8874 TIP4 H1   HW0      0.679100        1.0080           
    7459 A    8874 TIP4 H2   HW0      0.679100        1.0080           
    7460 A    8874 TIP4 BD1  LP0     -1.358200        0.0000           
    7461 A    8875 TIP4 O1   OW0      0.000000       15.9990           
    7462 A    8875 TIP4 H1   HW0      0.679100        1.0080           
    7463 A    8875 TIP4 H2   HW0      0.679100        1.0080           
    7464 A    8875 TIP4 BD1  LP0     -1.358200        0.0000           
    7465 A    8876 TIP4 O1   OW0      0.000000       15.9990           
    7466 A    8876 TIP4 H1   HW0      0.679100        1.0080           
    7467 A    8876 TIP4 H2   HW0      0.679100        1.0080           
    7468 A    8876 TIP4 BD1  LP0     -1.358200        0.0000           
    7469 A    8877 TIP4 O1   OW0      0.000000       15.9990           
    7470 A    8877 TIP4 H1   HW0      0.679100        1.0080           
    7471 A    8877 TIP4 H2   HW0      0.679100        1.0080           
    7472 A    8877 TIP4 BD1  LP0     -1.358200        0.0000           
    7473 A    8878 TIP4 O1   OW0      0.000000       15.9990           
    7474 A    8878 TIP4 H1   HW0      0.679100        1.0080           
    7475 A    8878 TIP4 H2   HW0      0.679100        1.0080           
    7476 A    8878 TIP4 BD1  LP0     -1.358200        0.0000           
    7477 A    8879 TIP4 O1   OW0      0.000000       15.9990           
    7478 A    8879 TIP4 H1   HW0      0.679100        1.0080           
    7479 A    8879 TIP4 H2   HW0      0.679100        1.0080           
    7480 A    8879 TIP4 BD1  LP0     -1.358200        0.0000           
    7481 A    8880 TIP4 O1   OW0      0.000000       15.9990           
    7482 A    8880 TIP4 H1   HW0      0.679100        1.0080           
    7483 A    8880 TIP4 H2   HW0      0.679100        1.0080           
    7484 A    8880 TIP4 BD1  LP0     -1.358200        0.0000           
    7485 A    8881 TIP4 O1   OW0      0.000000       15.9990           
    7486 A    8881 TIP4 H1   HW0      0.679100        1.0080           
    7487 A    8881 TIP4 H2   HW0      0.679100        1.0080           
    7488 A    8881 TIP4 BD1  LP0     -1.358200        0.0000           
    7489 A    8882 TIP4 O1   OW0      0.000000       15.9990           
    7490 A    8882 TIP4 H1   HW0      0.679100        1.0080           
    7491 A    8882 TIP4 H2   HW0      0.679100        1.0080           
    7492 A    8882 TIP4 BD1  LP0     -1.358200        0.0000           
    7493 A    8883 TIP4 O1   OW0      0.000000       15.9990           
    7494 A    8883 TIP4 H1   HW0      0.679100        1.0080           
    7495 A    8883 TIP4 H2   HW0      0.679100        1.0080           
    7496 A    8883 TIP4 BD1  LP0     -1.358200        0.0000           
    7497 A    8884 TIP4 O1   OW0      0.000000       15.9990           
    7498 A    8884 TIP4 H1   HW0      0.679100        1.0080           
    7499 A    8884 TIP4 H2   HW0      0.679100        1.0080           
    7500 A    8884 TIP4 BD1  LP0     -1.358200        0.0000           
    7501 A    8885 TIP4 O1   OW0      0.000000       15.9990           
    7502 A    8885 TIP4 H1   HW0      0.679100        1.0080           
    7503 A    8885 TIP4 H2   HW0      0.679100        1.0080           
    7504 A    8885 TIP4 BD1  LP0     -1.358200        0.0000           
    7505 A    8886 TIP4 O1   OW0      0.000000       15.9990           
    7506 A    8886 TIP4 H1   HW0      0.679100        1.0080           
    7507 A    8886 TIP4 H2   HW0      0.679100        1.0080           
    7508 A    8886 TIP4 BD1  LP0     -1.358200        0.0000           
    7509 A    8887 TIP4 O1   OW0      0.000000       15.9990           
    7510 A    8887 TIP4 H1   HW0      0.679100        1.0080           
    7511 A    8887 TIP4 H2   HW0      0.679100        1.0080           
    7512 A    8887 TIP4 BD1  LP0     -1.358200        0.0000           
    7513 A    8888 TIP4 O1   OW0      0.000000       15.9990           
    7514 A    8888 TIP4 H1   HW0      0.679100        1.0080           
    7515 A    8888 TIP4 H2   HW0      0.679100        1.0080           
    7516 A    8888 TIP4 BD1  LP0     -1.358200        0.0000           
    7517 A    8889 TIP4 O1   OW0      0.000000       15.9990           
    7518 A    8889 TIP4 H1   HW0      0.679100        1.0080           
    7519 A    8889 TIP4 H2   HW0      0.679100        1.0080           
    7520 A    8889 TIP4 BD1  LP0     -1.358200        0.0000           
    7521 A    8890 TIP4 O1   OW0      0.000000       15.9990           
    7522 A    8890 TIP4 H1   HW0      0.679100        1.0080           
    7523 A    8890 TIP4 H2   HW0      0.679100        1.0080           
    7524 A    8890 TIP4 BD1  LP0     -1.358200        0.0000           
    7525 A    8891 TIP4 O1   OW0      0.000000       15.9990           
    7526 A    8891 TIP4 H1   HW0      0.679100        1.0080           
    7527 A    8891 TIP4 H2   HW0      0.679100        1.0080           
    7528 A    8891 TIP4 BD1  LP0     -1.358200        0.0000           
    7529 A    8892 TIP4 O1   OW0      0.000000       15.9990           
    7530 A    8892 TIP4 H1   HW0      0.679100        1.0080           
    7531 A    8892 TIP4 H2   HW0      0.679100        1.0080           
    7532 A    8892 TIP4 BD1  LP0     -1.358200        0.0000           
    7533 A    8893 TIP4 O1   OW0      0.000000       15.9990           
    7534 A    8893 TIP4 H1   HW0      0.679100        1.0080           
    7535 A    8893 TIP4 H2   HW0      0.679100        1.0080           
    7536 A    8893 TIP4 BD1  LP0     -1.358200        0.0000           
    7537 A    8894 TIP4 O1   OW0      0.000000       15.9990           
    7538 A    8894 TIP4 H1   HW0      0.679100        1.0080           
    7539 A    8894 TIP4 H2   HW0      0.679100        1.0080           
    7540 A    8894 TIP4 BD1  LP0     -1.358200        0.0000           
    7541 A    8895 TIP4 O1   OW0      0.000000       15.9990           
    7542 A    8895 TIP4 H1   HW0      0.679100        1.0080           
    7543 A    8895 TIP4 H2   HW0      0.679100        1.0080           
    7544 A    8895 TIP4 BD1  LP0     -1.358200        0.0000           
    7545 A    8896 TIP4 O1   OW0      0.000000       15.9990           
    7546 A    8896 TIP4 H1   HW0      0.679100        1.0080           
    7547 A    8896 TIP4 H2   HW0      0.679100        1.0080           
    7548 A    8896 TIP4 BD1  LP0     -1.358200        0.0000           
    7549 A    8897 TIP4 O1   OW0      0.000000       15.9990           
    7550 A    8897 TIP4 H1   HW0      0.679100        1.0080           
    7551 A    8897 TIP4 H2   HW0      0.679100        1.0080           
    7552 A    8897 TIP4 BD1  LP0     -1.358200        0.0000           
    7553 A    8898 TIP4 O1   OW0      0.000000       15.9990           
    7554 A    8898 TIP4 H1   HW0      0.679100        1.0080           
    7555 A    8898 TIP4 H2   HW0      0.679100        1.0080           
    7556 A    8898 TIP4 BD1  LP0     -1.358200        0.0000           
    7557 A    8899 TIP4 O1   OW0      0.000000       15.9990           
    7558 A    8899 TIP4 H1   HW0      0.679100        1.0080           
    7559 A    8899 TIP4 H2   HW0      0.679100        1.0080           
    7560 A    8899 TIP4 BD1  LP0     -1.358200        0.0000           
    7561 A    8900 TIP4 O1   OW0      0.000000       15.9990           
    7562 A    8900 TIP4 H1   HW0      0.679100        1.0080           
    7563 A    8900 TIP4 H2   HW0      0.679100        1.0080           
    7564 A    8900 TIP4 BD1  LP0     -1.358200        0.0000           
    7565 A    8901 TIP4 O1   OW0      0.000000       15.9990           
    7566 A    8901 TIP4 H1   HW0      0.679100        1.0080           
    7567 A    8901 TIP4 H2   HW0      0.679100        1.0080           
    7568 A    8901 TIP4 BD1  LP0     -1.358200        0.0000           
    7569 A    8902 TIP4 O1   OW0      0.000000       15.9990           
    7570 A    8902 TIP4 H1   HW0      0.679100        1.0080           
    7571 A    8902 TIP4 H2   HW0      0.679100        1.0080           
    7572 A    8902 TIP4 BD1  LP0     -1.358200        0.0000           
    7573 A    8903 TIP4 O1   OW0      0.000000       15.9990           
    7574 A    8903 TIP4 H1   HW0      0.679100        1.0080           
    7575 A    8903 TIP4 H2   HW0      0.679100        1.0080           
    7576 A    8903 TIP4 BD1  LP0     -1.358200        0.0000           
    7577 A    8904 TIP4 O1   OW0      0.000000       15.9990           
    7578 A    8904 TIP4 H1   HW0      0.679100        1.0080           
    7579 A    8904 TIP4 H2   HW0      0.679100        1.0080           
    7580 A    8904 TIP4 BD1  LP0     -1.358200        0.0000           
    7581 A    8905 TIP4 O1   OW0      0.000000       15.9990           
    7582 A    8905 TIP4 H1   HW0      0.679100        1.0080           
    7583 A    8905 TIP4 H2   HW0      0.679100        1.0080           
    7584 A    8905 TIP4 BD1  LP0     -1.358200        0.0000           
    7585 A    8906 TIP4 O1   OW0      0.000000       15.9990           
    7586 A    8906 TIP4 H1   HW0      0.679100        1.0080           
    7587 A    8906 TIP4 H2   HW0      0.679100        1.0080           
    7588 A    8906 TIP4 BD1  LP0     -1.358200        0.0000           
    7589 A    8907 TIP4 O1   OW0      0.000000       15.9990           
    7590 A    8907 TIP4 H1   HW0      0.679100        1.0080           
    7591 A    8907 TIP4 H2   HW0      0.679100        1.0080           
    7592 A    8907 TIP4 BD1  LP0     -1.358200        0.0000           
    7593 A    8908 TIP4 O1   OW0      0.000000       15.9990           
    7594 A    8908 TIP4 H1   HW0      0.679100        1.0080           
    7595 A    8908 TIP4 H2   HW0      0.679100        1.0080           
    7596 A    8908 TIP4 BD1  LP0     -1.358200        0.0000           
    7597 A    8909 TIP4 O1   OW0      0.000000       15.9990           
    7598 A    8909 TIP4 H1   HW0      0.679100        1.0080           
    7599 A    8909 TIP4 H2   HW0      0.679100        1.0080           
    7600 A    8909 TIP4 BD1  LP0     -1.358200        0.0000           
    7601 A    8910 TIP4 O1   OW0      0.000000       15.9990           
    7602 A    8910 TIP4 H1   HW0      0.679100        1.0080           
    7603 A    8910 TIP4 H2   HW0      0.679100        1.0080           
    7604 A    8910 TIP4 BD1  LP0     -1.358200        0.0000           
    7605 A    8911 TIP4 O1   OW0      0.000000       15.9990           
    7606 A    8911 TIP4 H1   HW0      0.679100        1.0080           
    7607 A    8911 TIP4 H2   HW0      0.679100        1.0080           
    7608 A    8911 TIP4 BD1  LP0     -1.358200        0.0000           
    7609 A    8912 TIP4 O1   OW0      0.000000       15.9990           
    7610 A    8912 TIP4 H1   HW0      0.679100        1.0080           
    7611 A    8912 TIP4 H2   HW0      0.679100        1.0080           
    7612 A    8912 TIP4 BD1  LP0     -1.358200        0.0000           
    7613 A    8913 TIP4 O1   OW0      0.000000       15.9990           
    7614 A    8913 TIP4 H1   HW0      0.679100        1.0080           
    7615 A    8913 TIP4 H2   HW0      0.679100        1.0080           
    7616 A    8913 TIP4 BD1  LP0     -1.358200        0.0000           
    7617 A    8914 TIP4 O1   OW0      0.000000       15.9990           
    7618 A    8914 TIP4 H1   HW0      0.679100        1.0080           
    7619 A    8914 TIP4 H2   HW0      0.679100        1.0080           
    7620 A    8914 TIP4 BD1  LP0     -1.358200        0.0000           
    7621 A    8915 TIP4 O1   OW0      0.000000       15.9990           
    7622 A    8915 TIP4 H1   HW0      0.679100        1.0080           
    7623 A    8915 TIP4 H2   HW0      0.679100        1.0080           
    7624 A    8915 TIP4 BD1  LP0     -1.358200        0.0000           
    7625 A    8916 TIP4 O1   OW0      0.000000       15.9990           
    7626 A    8916 TIP4 H1   HW0      0.679100        1.0080           
    7627 A    8916 TIP4 H2   HW0      0.679100        1.0080           
    7628 A    8916 TIP4 BD1  LP0     -1.358200        0.0000           
    7629 A    8917 TIP4 O1   OW0      0.000000       15.9990           
    7630 A    8917 TIP4 H1   HW0      0.679100        1.0080           
    7631 A    8917 TIP4 H2   HW0      0.679100        1.0080           
    7632 A    8917 TIP4 BD1  LP0     -1.358200        0.0000           
    7633 A    8918 TIP4 O1   OW0      0.000000       15.9990           
    7634 A    8918 TIP4 H1   HW0      0.679100        1.0080           
    7635 A    8918 TIP4 H2   HW0      0.679100        1.0080           
    7636 A    8918 TIP4 BD1  LP0     -1.358200        0.0000           
    7637 A    8919 TIP4 O1   OW0      0.000000       15.9990           
    7638 A    8919 TIP4 H1   HW0      0.679100        1.0080           
    7639 A    8919 TIP4 H2   HW0      0.679100        1.0080           
    7640 A    8919 TIP4 BD1  LP0     -1.358200        0.0000           
    7641 A    8920 TIP4 O1   OW0      0.000000       15.9990           
    7642 A    8920 TIP4 H1   HW0      0.679100        1.0080           
    7643 A    8920 TIP4 H2   HW0      0.679100        1.0080           
    7644 A    8920 TIP4 BD1  LP0     -1.358200        0.0000           
    7645 A    8921 TIP4 O1   OW0      0.000000       15.9990           
    7646 A    8921 TIP4 H1   HW0      0.679100        1.0080           
    7647 A    8921 TIP4 H2   HW0      0.679100        1.0080           
    7648 A    8921 TIP4 BD1  LP0     -1.358200        0.0000           
    7649 A    8922 TIP4 O1   OW0      0.000000       15.9990           
    7650 A    8922 TIP4 H1   HW0      0.679100        1.0080           
    7651 A    8922 TIP4 H2   HW0      0.679100        1.0080           
    7652 A    8922 TIP4 BD1  LP0     -1.358200        0.0000           
    7653 A    8923 TIP4 O1   OW0      0.000000       15.9990           
    7654 A    8923 TIP4 H1   HW0      0.679100        1.0080           
    7655 A    8923 TIP4 H2   HW0      0.679100        1.0080           
    7656 A    8923 TIP4 BD1  LP0     -1.358200        0.0000           
    7657 A    8924 TIP4 O1   OW0      0.000000       15.9990           
    7658 A    8924 TIP4 H1   HW0      0.679100        1.0080           
    7659 A    8924 TIP4 H2   HW0      0.679100        1.0080           
    7660 A    8924 TIP4 BD1  LP0     -1.358200        0.0000           
    7661 A    8925 TIP4 O1   OW0      0.000000       15.9990           
    7662 A    8925 TIP4 H1   HW0      0.679100        1.0080           
    7663 A    8925 TIP4 H2   HW0      0.679100        1.0080           
    7664 A    8925 TIP4 BD1  LP0     -1.358200        0.0000           
    7665 A    8926 TIP4 O1   OW0      0.000000       15.9990           
    7666 A    8926 TIP4 H1   HW0      0.679100        1.0080           
    7667 A    8926 TIP4 H2   HW0      0.679100        1.0080           
    7668 A    8926 TIP4 BD1  LP0     -1.358200        0.0000           
    7669 A    8927 TIP4 O1   OW0      0.000000       15.9990           
    7670 A    8927 TIP4 H1   HW0      0.679100        1.0080           
    7671 A    8927 TIP4 H2   HW0      0.679100        1.0080           
    7672 A    8927 TIP4 BD1  LP0     -1.358200        0.0000           
    7673 A    8928 TIP4 O1   OW0      0.000000       15.9990           
    7674 A    8928 TIP4 H1   HW0      0.679100        1.0080           
    7675 A    8928 TIP4 H2   HW0      0.679100        1.0080           
    7676 A    8928 TIP4 BD1  LP0     -1.358200        0.0000           
    7677 A    8929 TIP4 O1   OW0      0.000000       15.9990           
    7678 A    8929 TIP4 H1   HW0      0.679100        1.0080           
    7679 A    8929 TIP4 H2   HW0      0.679100        1.0080           
    7680 A    8929 TIP4 BD1  LP0     -1.358200        0.0000           
    7681 A    8930 TIP4 O1   OW0      0.000000       15.9990           
    7682 A    8930 TIP4 H1   HW0      0.679100        1.0080           
    7683 A    8930 TIP4 H2   HW0      0.679100        1.0080           
    7684 A    8930 TIP4 BD1  LP0     -1.358200        0.0000           
    7685 A    8931 TIP4 O1   OW0      0.000000       15.9990           
    7686 A    8931 TIP4 H1   HW0      0.679100        1.0080           
    7687 A    8931 TIP4 H2   HW0      0.679100        1.0080           
    7688 A    8931 TIP4 BD1  LP0     -1.358200        0.0000           
    7689 A    8932 TIP4 O1   OW0      0.000000       15.9990           
    7690 A    8932 TIP4 H1   HW0      0.679100        1.0080           
    7691 A    8932 TIP4 H2   HW0      0.679100        1.0080           
    7692 A    8932 TIP4 BD1  LP0     -1.358200        0.0000           
    7693 A    8933 TIP4 O1   OW0      0.000000       15.9990           
    7694 A    8933 TIP4 H1   HW0      0.679100        1.0080           
    7695 A    8933 TIP4 H2   HW0      0.679100        1.0080           
    7696 A    8933 TIP4 BD1  LP0     -1.358200        0.0000           
    7697 A    8934 TIP4 O1   OW0      0.000000       15.9990           
    7698 A    8934 TIP4 H1   HW0      0.679100        1.0080           
    7699 A    8934 TIP4 H2   HW0      0.679100        1.0080           
    7700 A    8934 TIP4 BD1  LP0     -1.358200        0.0000           
    7701 A    8935 TIP4 O1   OW0      0.000000       15.9990           
    7702 A    8935 TIP4 H1   HW0      0.679100        1.0080           
    7703 A    8935 TIP4 H2   HW0      0.679100        1.0080           
    7704 A    8935 TIP4 BD1  LP0     -1.358200        0.0000           
    7705 A    8936 TIP4 O1   OW0      0.000000       15.9990           
    7706 A    8936 TIP4 H1   HW0      0.679100        1.0080           
    7707 A    8936 TIP4 H2   HW0      0.679100        1.0080           
    7708 A    8936 TIP4 BD1  LP0     -1.358200        0.0000           
    7709 A    8937 TIP4 O1   OW0      0.000000       15.9990           
    7710 A    8937 TIP4 H1   HW0      0.679100        1.0080           
    7711 A    8937 TIP4 H2   HW0      0.679100        1.0080           
    7712 A    8937 TIP4 BD1  LP0     -1.358200        0.0000           
    7713 A    8938 TIP4 O1   OW0      0.000000       15.9990           
    7714 A    8938 TIP4 H1   HW0      0.679100        1.0080           
    7715 A    8938 TIP4 H2   HW0      0.679100        1.0080           
    7716 A    8938 TIP4 BD1  LP0     -1.358200        0.0000           
    7717 A    8939 TIP4 O1   OW0      0.000000       15.9990           
    7718 A    8939 TIP4 H1   HW0      0.679100        1.0080           
    7719 A    8939 TIP4 H2   HW0      0.679100        1.0080           
    7720 A    8939 TIP4 BD1  LP0     -1.358200        0.0000           
    7721 A    8940 TIP4 O1   OW0      0.000000       15.9990           
    7722 A    8940 TIP4 H1   HW0      0.679100        1.0080           
    7723 A    8940 TIP4 H2   HW0      0.679100        1.0080           
    7724 A    8940 TIP4 BD1  LP0     -1.358200        0.0000           
    7725 A    8941 TIP4 O1   OW0      0.000000       15.9990           
    7726 A    8941 TIP4 H1   HW0      0.679100        1.0080           
    7727 A    8941 TIP4 H2   HW0      0.679100        1.0080           
    7728 A    8941 TIP4 BD1  LP0     -1.358200        0.0000           
    7729 A    8942 TIP4 O1   OW0      0.000000       15.9990           
    7730 A    8942 TIP4 H1   HW0      0.679100        1.0080           
    7731 A    8942 TIP4 H2   HW0      0.679100        1.0080           
    7732 A    8942 TIP4 BD1  LP0     -1.358200        0.0000           
    7733 A    8943 TIP4 O1   OW0      0.000000       15.9990           
    7734 A    8943 TIP4 H1   HW0      0.679100        1.0080           
    7735 A    8943 TIP4 H2   HW0      0.679100        1.0080           
    7736 A    8943 TIP4 BD1  LP0     -1.358200        0.0000           
    7737 A    8944 TIP4 O1   OW0      0.000000       15.9990           
    7738 A    8944 TIP4 H1   HW0      0.679100        1.0080           
    7739 A    8944 TIP4 H2   HW0      0.679100        1.0080           
    7740 A    8944 TIP4 BD1  LP0     -1.358200        0.0000           
    7741 A    8945 TIP4 O1   OW0      0.000000       15.9990           
    7742 A    8945 TIP4 H1   HW0      0.679100        1.0080           
    7743 A    8945 TIP4 H2   HW0      0.679100        1.0080           
    7744 A    8945 TIP4 BD1  LP0     -1.358200        0.0000           
    7745 A    8946 TIP4 O1   OW0      0.000000       15.9990           
    7746 A    8946 TIP4 H1   HW0      0.679100        1.0080           
    7747 A    8946 TIP4 H2   HW0      0.679100        1.0080           
    7748 A    8946 TIP4 BD1  LP0     -1.358200        0.0000           
    7749 A    8947 TIP4 O1   OW0      0.000000       15.9990           
    7750 A    8947 TIP4 H1   HW0      0.679100        1.0080           
    7751 A    8947 TIP4 H2   HW0      0.679100        1.0080           
    7752 A    8947 TIP4 BD1  LP0     -1.358200        0.0000           
    7753 A    8948 TIP4 O1   OW0      0.000000       15.9990           
    7754 A    8948 TIP4 H1   HW0      0.679100        1.0080           
    7755 A    8948 TIP4 H2   HW0      0.679100        1.0080           
    7756 A    8948 TIP4 BD1  LP0     -1.358200        0.0000           
    7757 A    8949 TIP4 O1   OW0      0.000000       15.9990           
    7758 A    8949 TIP4 H1   HW0      0.679100        1.0080           
    7759 A    8949 TIP4 H2   HW0      0.679100        1.0080           
    7760 A    8949 TIP4 BD1  LP0     -1.358200        0.0000           
    7761 A    8950 TIP4 O1   OW0      0.000000       15.9990           
    7762 A    8950 TIP4 H1   HW0      0.679100        1.0080           
    7763 A    8950 TIP4 H2   HW0      0.679100        1.0080           
    7764 A    8950 TIP4 BD1  LP0     -1.358200        0.0000           
    7765 A    8951 TIP4 O1   OW0      0.000000       15.9990           
    7766 A    8951 TIP4 H1   HW0      0.679100        1.0080           
    7767 A    8951 TIP4 H2   HW0      0.679100        1.0080           
    7768 A    8951 TIP4 BD1  LP0     -1.358200        0.0000           
    7769 A    8952 TIP4 O1   OW0      0.000000       15.9990           
    7770 A    8952 TIP4 H1   HW0      0.679100        1.0080           
    7771 A    8952 TIP4 H2   HW0      0.679100        1.0080           
    7772 A    8952 TIP4 BD1  LP0     -1.358200        0.0000           
    7773 A    8953 TIP4 O1   OW0      0.000000       15.9990           
    7774 A    8953 TIP4 H1   HW0      0.679100        1.0080           
    7775 A    8953 TIP4 H2   HW0      0.679100        1.0080           
    7776 A    8953 TIP4 BD1  LP0     -1.358200        0.0000           
    7777 A    8954 TIP4 O1   OW0      0.000000       15.9990           
    7778 A    8954 TIP4 H1   HW0      0.679100        1.0080           
    7779 A    8954 TIP4 H2   HW0      0.679100        1.0080           
    7780 A    8954 TIP4 BD1  LP0     -1.358200        0.0000           
    7781 A    8955 TIP4 O1   OW0      0.000000       15.9990           
    7782 A    8955 TIP4 H1   HW0      0.679100        1.0080           
    7783 A    8955 TIP4 H2   HW0      0.679100        1.0080           
    7784 A    8955 TIP4 BD1  LP0     -1.358200        0.0000           
    7785 A    8956 TIP4 O1   OW0      0.000000       15.9990           
    7786 A    8956 TIP4 H1   HW0      0.679100        1.0080           
    7787 A    8956 TIP4 H2   HW0      0.679100        1.0080           
    7788 A    8956 TIP4 BD1  LP0     -1.358200        0.0000           
    7789 A    8957 TIP4 O1   OW0      0.000000       15.9990           
    7790 A    8957 TIP4 H1   HW0      0.679100        1.0080           
    7791 A    8957 TIP4 H2   HW0      0.679100        1.0080           
    7792 A    8957 TIP4 BD1  LP0     -1.358200        0.0000           
    7793 A    8958 TIP4 O1   OW0      0.000000       15.9990           
    7794 A    8958 TIP4 H1   HW0      0.679100        1.0080           
    7795 A    8958 TIP4 H2   HW0      0.679100        1.0080           
    7796 A    8958 TIP4 BD1  LP0     -1.358200        0.0000           
    7797 A    8959 TIP4 O1   OW0      0.000000       15.9990           
    7798 A    8959 TIP4 H1   HW0      0.679100        1.0080           
    7799 A    8959 TIP4 H2   HW0      0.679100        1.0080           
    7800 A    8959 TIP4 BD1  LP0     -1.358200        0.0000           
    7801 A    8960 TIP4 O1   OW0      0.000000       15.9990           
    7802 A    8960 TIP4 H1   HW0      0.679100        1.0080           
    7803 A    8960 TIP4 H2   HW0      0.679100        1.0080           
    7804 A    8960 TIP4 BD1  LP0     -1.358200        0.0000           
    7805 A    8961 TIP4 O1   OW0      0.000000       15.9990           
    7806 A    8961 TIP4 H1   HW0      0.679100        1.0080           
    7807 A    8961 TIP4 H2   HW0      0.679100        1.0080           
    7808 A    8961 TIP4 BD1  LP0     -1.358200        0.0000           
    7809 A    8962 TIP4 O1   OW0      0.000000       15.9990           
    7810 A    8962 TIP4 H1   HW0      0.679100        1.0080           
    7811 A    8962 TIP4 H2   HW0      0.679100        1.0080           
    7812 A    8962 TIP4 BD1  LP0     -1.358200        0.0000           
    7813 A    8963 TIP4 O1   OW0      0.000000       15.9990           
    7814 A    8963 TIP4 H1   HW0      0.679100        1.0080           
    7815 A    8963 TIP4 H2   HW0      0.679100        1.0080           
    7816 A    8963 TIP4 BD1  LP0     -1.358200        0.0000           
    7817 A    8964 TIP4 O1   OW0      0.000000       15.9990           
    7818 A    8964 TIP4 H1   HW0      0.679100        1.0080           
    7819 A    8964 TIP4 H2   HW0      0.679100        1.0080           
    7820 A    8964 TIP4 BD1  LP0     -1.358200        0.0000           
    7821 A    8965 TIP4 O1   OW0      0.000000       15.9990           
    7822 A    8965 TIP4 H1   HW0      0.679100        1.0080           
    7823 A    8965 TIP4 H2   HW0      0.679100        1.0080           
    7824 A    8965 TIP4 BD1  LP0     -1.358200        0.0000           
    7825 A    8966 TIP4 O1   OW0      0.000000       15.9990           
    7826 A    8966 TIP4 H1   HW0      0.679100        1.0080           
    7827 A    8966 TIP4 H2   HW0      0.679100        1.0080           
    7828 A    8966 TIP4 BD1  LP0     -1.358200        0.0000           
    7829 A    8967 TIP4 O1   OW0      0.000000       15.9990           
    7830 A    8967 TIP4 H1   HW0      0.679100        1.0080           
    7831 A    8967 TIP4 H2   HW0      0.679100        1.0080           
    7832 A    8967 TIP4 BD1  LP0     -1.358200        0.0000           
    7833 A    8968 TIP4 O1   OW0      0.000000       15.9990           
    7834 A    8968 TIP4 H1   HW0      0.679100        1.0080           
    7835 A    8968 TIP4 H2   HW0      0.679100        1.0080           
    7836 A    8968 TIP4 BD1  LP0     -1.358200        0.0000           
    7837 A    8969 TIP4 O1   OW0      0.000000       15.9990           
    7838 A    8969 TIP4 H1   HW0      0.679100        1.0080           
    7839 A    8969 TIP4 H2   HW0      0.679100        1.0080           
    7840 A    8969 TIP4 BD1  LP0     -1.358200        0.0000           
    7841 A    8970 TIP4 O1   OW0      0.000000       15.9990           
    7842 A    8970 TIP4 H1   HW0      0.679100        1.0080           
    7843 A    8970 TIP4 H2   HW0      0.679100        1.0080           
    7844 A    8970 TIP4 BD1  LP0     -1.358200        0.0000           
    7845 A    8971 TIP4 O1   OW0      0.000000       15.9990           
    7846 A    8971 TIP4 H1   HW0      0.679100        1.0080           
    7847 A    8971 TIP4 H2   HW0      0.679100        1.0080           
    7848 A    8971 TIP4 BD1  LP0     -1.358200        0.0000           
    7849 A    8972 TIP4 O1   OW0      0.000000       15.9990           
    7850 A    8972 TIP4 H1   HW0      0.679100        1.0080           
    7851 A    8972 TIP4 H2   HW0      0.679100        1.0080           
    7852 A    8972 TIP4 BD1  LP0     -1.358200        0.0000           
    7853 A    8973 TIP4 O1   OW0      0.000000       15.9990           
    7854 A    8973 TIP4 H1   HW0      0.679100        1.0080           
    7855 A    8973 TIP4 H2   HW0      0.679100        1.0080           
    7856 A    8973 TIP4 BD1  LP0     -1.358200        0.0000           
    7857 A    8974 TIP4 O1   OW0      0.000000       15.9990           
    7858 A    8974 TIP4 H1   HW0      0.679100        1.0080           
    7859 A    8974 TIP4 H2   HW0      0.679100        1.0080           
    7860 A    8974 TIP4 BD1  LP0     -1.358200        0.0000           
    7861 A    8975 TIP4 O1   OW0      0.000000       15.9990           
    7862 A    8975 TIP4 H1   HW0      0.679100        1.0080           
    7863 A    8975 TIP4 H2   HW0      0.679100        1.0080           
    7864 A    8975 TIP4 BD1  LP0     -1.358200        0.0000           
    7865 A    8976 TIP4 O1   OW0      0.000000       15.9990           
    7866 A    8976 TIP4 H1   HW0      0.679100        1.0080           
    7867 A    8976 TIP4 H2   HW0      0.679100        1.0080           
    7868 A    8976 TIP4 BD1  LP0     -1.358200        0.0000           
    7869 A    8977 TIP4 O1   OW0      0.000000       15.9990           
    7870 A    8977 TIP4 H1   HW0      0.679100        1.0080           
    7871 A    8977 TIP4 H2   HW0      0.679100        1.0080           
    7872 A    8977 TIP4 BD1  LP0     -1.358200        0.0000           
    7873 A    8978 TIP4 O1   OW0      0.000000       15.9990           
    7874 A    8978 TIP4 H1   HW0      0.679100        1.0080           
    7875 A    8978 TIP4 H2   HW0      0.679100        1.0080           
    7876 A    8978 TIP4 BD1  LP0     -1.358200        0.0000           
    7877 A    8979 TIP4 O1   OW0      0.000000       15.9990           
    7878 A    8979 TIP4 H1   HW0      0.679100        1.0080           
    7879 A    8979 TIP4 H2   HW0      0.679100        1.0080           
    7880 A    8979 TIP4 BD1  LP0     -1.358200        0.0000           
    7881 A    8980 TIP4 O1   OW0      0.000000       15.9990           
    7882 A    8980 TIP4 H1   HW0      0.679100        1.0080           
    7883 A    8980 TIP4 H2   HW0      0.679100        1.0080           
    7884 A    8980 TIP4 BD1  LP0     -1.358200        0.0000           
    7885 A    8981 TIP4 O1   OW0      0.000000       15.9990           
    7886 A    8981 TIP4 H1   HW0      0.679100        1.0080           
    7887 A    8981 TIP4 H2   HW0      0.679100        1.0080           
    7888 A    8981 TIP4 BD1  LP0     -1.358200        0.0000           
    7889 A    8982 TIP4 O1   OW0      0.000000       15.9990           
    7890 A    8982 TIP4 H1   HW0      0.679100        1.0080           
    7891 A    8982 TIP4 H2   HW0      0.679100        1.0080           
    7892 A    8982 TIP4 BD1  LP0     -1.358200        0.0000           
    7893 A    8983 TIP4 O1   OW0      0.000000       15.9990           
    7894 A    8983 TIP4 H1   HW0      0.679100        1.0080           
    7895 A    8983 TIP4 H2   HW0      0.679100        1.0080           
    7896 A    8983 TIP4 BD1  LP0     -1.358200        0.0000           
    7897 A    8984 TIP4 O1   OW0      0.000000       15.9990           
    7898 A    8984 TIP4 H1   HW0      0.679100        1.0080           
    7899 A    8984 TIP4 H2   HW0      0.679100        1.0080           
    7900 A    8984 TIP4 BD1  LP0     -1.358200        0.0000           
    7901 A    8985 TIP4 O1   OW0      0.000000       15.9990           
    7902 A    8985 TIP4 H1   HW0      0.679100        1.0080           
    7903 A    8985 TIP4 H2   HW0      0.679100        1.0080           
    7904 A    8985 TIP4 BD1  LP0     -1.358200        0.0000           
    7905 A    8986 TIP4 O1   OW0      0.000000       15.9990           
    7906 A    8986 TIP4 H1   HW0      0.679100        1.0080           
    7907 A    8986 TIP4 H2   HW0      0.679100        1.0080           
    7908 A    8986 TIP4 BD1  LP0     -1.358200        0.0000           
    7909 A    8987 TIP4 O1   OW0      0.000000       15.9990           
    7910 A    8987 TIP4 H1   HW0      0.679100        1.0080           
    7911 A    8987 TIP4 H2   HW0      0.679100        1.0080           
    7912 A    8987 TIP4 BD1  LP0     -1.358200        0.0000           
    7913 A    8988 TIP4 O1   OW0      0.000000       15.9990           
    7914 A    8988 TIP4 H1   HW0      0.679100        1.0080           
    7915 A    8988 TIP4 H2   HW0      0.679100        1.0080           
    7916 A    8988 TIP4 BD1  LP0     -1.358200        0.0000           
    7917 A    8989 TIP4 O1   OW0      0.000000       15.9990           
    7918 A    8989 TIP4 H1   HW0      0.679100        1.0080           
    7919 A    8989 TIP4 H2   HW0      0.679100        1.0080           
    7920 A    8989 TIP4 BD1  LP0     -1.358200        0.0000           
    7921 A    8990 TIP4 O1   OW0      0.000000       15.9990           
    7922 A    8990 TIP4 H1   HW0      0.679100        1.0080           
    7923 A    8990 TIP4 H2   HW0      0.679100        1.0080           
    7924 A    8990 TIP4 BD1  LP0     -1.358200        0.0000           
    7925 A    8991 TIP4 O1   OW0      0.000000       15.9990           
    7926 A    8991 TIP4 H1   HW0      0.679100        1.0080           
    7927 A    8991 TIP4 H2   HW0      0.679100        1.0080           
    7928 A    8991 TIP4 BD1  LP0     -1.358200        0.0000           
    7929 A    8992 TIP4 O1   OW0      0.000000       15.9990           
    7930 A    8992 TIP4 H1   HW0      0.679100        1.0080           
    7931 A    8992 TIP4 H2   HW0      0.679100        1.0080           
    7932 A    8992 TIP4 BD1  LP0     -1.358200        0.0000           
    7933 A    8993 TIP4 O1   OW0      0.000000       15.9990           
    7934 A    8993 TIP4 H1   HW0      0.679100        1.0080           
    7935 A    8993 TIP4 H2   HW0      0.679100        1.0080           
    7936 A    8993 TIP4 BD1  LP0     -1.358200        0.0000           
    7937 A    8994 TIP4 O1   OW0      0.000000       15.9990           
    7938 A    8994 TIP4 H1   HW0      0.679100        1.0080           
    7939 A    8994 TIP4 H2   HW0      0.679100        1.0080           
    7940 A    8994 TIP4 BD1  LP0     -1.358200        0.0000           
    7941 A    8995 TIP4 O1   OW0      0.000000       15.9990           
    7942 A    8995 TIP4 H1   HW0      0.679100        1.0080           
    7943 A    8995 TIP4 H2   HW0      0.679100        1.0080           
    7944 A    8995 TIP4 BD1  LP0     -1.358200        0.0000           
    7945 A    8996 TIP4 O1   OW0      0.000000       15.9990           
    7946 A    8996 TIP4 H1   HW0      0.679100        1.0080           
    7947 A    8996 TIP4 H2   HW0      0.679100        1.0080           
    7948 A    8996 TIP4 BD1  LP0     -1.358200        0.0000           
    7949 A    8997 TIP4 O1   OW0      0.000000       15.9990           
    7950 A    8997 TIP4 H1   HW0      0.679100        1.0080           
    7951 A    8997 TIP4 H2   HW0      0.679100        1.0080           
    7952 A    8997 TIP4 BD1  LP0     -1.358200        0.0000           
    7953 A    8998 TIP4 O1   OW0      0.000000       15.9990           
    7954 A    8998 TIP4 H1   HW0      0.679100        1.0080           
    7955 A    8998 TIP4 H2   HW0      0.679100        1.0080           
    7956 A    8998 TIP4 BD1  LP0     -1.358200        0.0000           
    7957 A    8999 TIP4 O1   OW0      0.000000       15.9990           
    7958 A    8999 TIP4 H1   HW0      0.679100        1.0080           
    7959 A    8999 TIP4 H2   HW0      0.679100        1.0080           
    7960 A    8999 TIP4 BD1  LP0     -1.358200        0.0000           
    7961 A    9000 TIP4 O1   OW0      0.000000       15.9990           
    7962 A    9000 TIP4 H1   HW0      0.679100        1.0080           
    7963 A    9000 TIP4 H2   HW0      0.679100        1.0080           
    7964 A    9000 TIP4 BD1  LP0     -1.358200        0.0000           
    7965 A    9001 TIP4 O1   OW0      0.000000       15.9990           
    7966 A    9001 TIP4 H1   HW0      0.679100        1.0080           
    7967 A    9001 TIP4 H2   HW0      0.679100        1.0080           
    7968 A    9001 TIP4 BD1  LP0     -1.358200        0.0000           
    7969 A    9002 TIP4 O1   OW0      0.000000       15.9990           
    7970 A    9002 TIP4 H1   HW0      0.679100        1.0080           
    7971 A    9002 TIP4 H2   HW0      0.679100        1.0080           
    7972 A    9002 TIP4 BD1  LP0     -1.358200        0.0000           
    7973 A    9003 TIP4 O1   OW0      0.000000       15.9990           
    7974 A    9003 TIP4 H1   HW0      0.679100        1.0080           
    7975 A    9003 TIP4 H2   HW0      0.679100        1.0080           
    7976 A    9003 TIP4 BD1  LP0     -1.358200        0.0000           
    7977 A    9004 TIP4 O1   OW0      0.000000       15.9990           
    7978 A    9004 TIP4 H1   HW0      0.679100        1.0080           
    7979 A    9004 TIP4 H2   HW0      0.679100        1.0080           
    7980 A    9004 TIP4 BD1  LP0     -1.358200        0.0000           
    7981 A    9005 TIP4 O1   OW0      0.000000       15.9990           
    7982 A    9005 TIP4 H1   HW0      0.679100        1.0080           
    7983 A    9005 TIP4 H2   HW0      0.679100        1.0080           
    7984 A    9005 TIP4 BD1  LP0     -1.358200        0.0000           
    7985 A    9006 TIP4 O1   OW0      0.000000       15.9990           
    7986 A    9006 TIP4 H1   HW0      0.679100        1.0080           
    7987 A    9006 TIP4 H2   HW0      0.679100        1.0080           
    7988 A    9006 TIP4 BD1  LP0     -1.358200        0.0000           
    7989 A    9007 TIP4 O1   OW0      0.000000       15.9990           
    7990 A    9007 TIP4 H1   HW0      0.679100        1.0080           
    7991 A    9007 TIP4 H2   HW0      0.679100        1.0080           
    7992 A    9007 TIP4 BD1  LP0     -1.358200        0.0000           
    7993 A    9008 TIP4 O1   OW0      0.000000       15.9990           
    7994 A    9008 TIP4 H1   HW0      0.679100        1.0080           
    7995 A    9008 TIP4 H2   HW0      0.679100        1.0080           
    7996 A    9008 TIP4 BD1  LP0     -1.358200        0.0000           
    7997 A    9009 TIP4 O1   OW0      0.000000       15.9990           
    7998 A    9009 TIP4 H1   HW0      0.679100        1.0080           
    7999 A    9009 TIP4 H2   HW0      0.679100        1.0080           
    8000 A    9009 TIP4 BD1  LP0     -1.358200        0.0000           
    8001 A    9010 TIP4 O1   OW0      0.000000       15.9990           
    8002 A    9010 TIP4 H1   HW0      0.679100        1.0080           
    8003 A    9010 TIP4 H2   HW0      0.679100        1.0080           
    8004 A    9010 TIP4 BD1  LP0     -1.358200        0.0000           
    8005 A    9011 TIP4 O1   OW0      0.000000       15.9990           
    8006 A    9011 TIP4 H1   HW0      0.679100        1.0080           
    8007 A    9011 TIP4 H2   HW0      0.679100        1.0080           
    8008 A    9011 TIP4 BD1  LP0     -1.358200        0.0000           
    8009 A    9012 TIP4 O1   OW0      0.000000       15.9990           
    8010 A    9012 TIP4 H1   HW0      0.679100        1.0080           
    8011 A    9012 TIP4 H2   HW0      0.679100        1.0080           
    8012 A    9012 TIP4 BD1  LP0     -1.358200        0.0000           
    8013 A    9013 TIP4 O1   OW0      0.000000       15.9990           
    8014 A    9013 TIP4 H1   HW0      0.679100        1.0080           
    8015 A    9013 TIP4 H2   HW0      0.679100        1.0080           
    8016 A    9013 TIP4 BD1  LP0     -1.358200        0.0000           
    8017 A    9014 TIP4 O1   OW0      0.000000       15.9990           
    8018 A    9014 TIP4 H1   HW0      0.679100        1.0080           
    8019 A    9014 TIP4 H2   HW0      0.679100        1.0080           
    8020 A    9014 TIP4 BD1  LP0     -1.358200        0.0000           
    8021 A    9015 TIP4 O1   OW0      0.000000       15.9990           
    8022 A    9015 TIP4 H1   HW0      0.679100        1.0080           
    8023 A    9015 TIP4 H2   HW0      0.679100        1.0080           
    8024 A    9015 TIP4 BD1  LP0     -1.358200        0.0000           
    8025 A    9016 TIP4 O1   OW0      0.000000       15.9990           
    8026 A    9016 TIP4 H1   HW0      0.679100        1.0080           
    8027 A    9016 TIP4 H2   HW0      0.679100        1.0080           
    8028 A    9016 TIP4 BD1  LP0     -1.358200        0.0000           
    8029 A    9017 TIP4 O1   OW0      0.000000       15.9990           
    8030 A    9017 TIP4 H1   HW0      0.679100        1.0080           
    8031 A    9017 TIP4 H2   HW0      0.679100        1.0080           
    8032 A    9017 TIP4 BD1  LP0     -1.358200        0.0000           
    8033 A    9018 TIP4 O1   OW0      0.000000       15.9990           
    8034 A    9018 TIP4 H1   HW0      0.679100        1.0080           
    8035 A    9018 TIP4 H2   HW0      0.679100        1.0080           
    8036 A    9018 TIP4 BD1  LP0     -1.358200        0.0000           
    8037 A    9019 TIP4 O1   OW0      0.000000       15.9990           
    8038 A    9019 TIP4 H1   HW0      0.679100        1.0080           
    8039 A    9019 TIP4 H2   HW0      0.679100        1.0080           
    8040 A    9019 TIP4 BD1  LP0     -1.358200        0.0000           
    8041 A    9020 TIP4 O1   OW0      0.000000       15.9990           
    8042 A    9020 TIP4 H1   HW0      0.679100        1.0080           
    8043 A    9020 TIP4 H2   HW0      0.679100        1.0080           
    8044 A    9020 TIP4 BD1  LP0     -1.358200        0.0000           
    8045 A    9021 TIP4 O1   OW0      0.000000       15.9990           
    8046 A    9021 TIP4 H1   HW0      0.679100        1.0080           
    8047 A    9021 TIP4 H2   HW0      0.679100        1.0080           
    8048 A    9021 TIP4 BD1  LP0     -1.358200        0.0000           
    8049 A    9022 TIP4 O1   OW0      0.000000       15.9990           
    8050 A    9022 TIP4 H1   HW0      0.679100        1.0080           
    8051 A    9022 TIP4 H2   HW0      0.679100        1.0080           
    8052 A    9022 TIP4 BD1  LP0     -1.358200        0.0000           
    8053 A    9023 TIP4 O1   OW0      0.000000       15.9990           
    8054 A    9023 TIP4 H1   HW0      0.679100        1.0080           
    8055 A    9023 TIP4 H2   HW0      0.679100        1.0080           
    8056 A    9023 TIP4 BD1  LP0     -1.358200        0.0000           
    8057 A    9024 TIP4 O1   OW0      0.000000       15.9990           
    8058 A    9024 TIP4 H1   HW0      0.679100        1.0080           
    8059 A    9024 TIP4 H2   HW0      0.679100        1.0080           
    8060 A    9024 TIP4 BD1  LP0     -1.358200        0.0000           
    8061 A    9025 TIP4 O1   OW0      0.000000       15.9990           
    8062 A    9025 TIP4 H1   HW0      0.679100        1.0080           
    8063 A    9025 TIP4 H2   HW0      0.679100        1.0080           
    8064 A    9025 TIP4 BD1  LP0     -1.358200        0.0000           
    8065 A    9026 TIP4 O1   OW0      0.000000       15.9990           
    8066 A    9026 TIP4 H1   HW0      0.679100        1.0080           
    8067 A    9026 TIP4 H2   HW0      0.679100        1.0080           
    8068 A    9026 TIP4 BD1  LP0     -1.358200        0.0000           
    8069 A    9027 TIP4 O1   OW0      0.000000       15.9990           
    8070 A    9027 TIP4 H1   HW0      0.679100        1.0080           
    8071 A    9027 TIP4 H2   HW0      0.679100        1.0080           
    8072 A    9027 TIP4 BD1  LP0     -1.358200        0.0000           
    8073 A    9028 TIP4 O1   OW0      0.000000       15.9990           
    8074 A    9028 TIP4 H1   HW0      0.679100        1.0080           
    8075 A    9028 TIP4 H2   HW0      0.679100        1.0080           
    8076 A    9028 TIP4 BD1  LP0     -1.358200        0.0000           
    8077 A    9029 TIP4 O1   OW0      0.000000       15.9990           
    8078 A    9029 TIP4 H1   HW0      0.679100        1.0080           
    8079 A    9029 TIP4 H2   HW0      0.679100        1.0080           
    8080 A    9029 TIP4 BD1  LP0     -1.358200        0.0000           
    8081 A    9030 TIP4 O1   OW0      0.000000       15.9990           
    8082 A    9030 TIP4 H1   HW0      0.679100        1.0080           
    8083 A    9030 TIP4 H2   HW0      0.679100        1.0080           
    8084 A    9030 TIP4 BD1  LP0     -1.358200        0.0000           
    8085 A    9031 TIP4 O1   OW0      0.000000       15.9990           
    8086 A    9031 TIP4 H1   HW0      0.679100        1.0080           
    8087 A    9031 TIP4 H2   HW0      0.679100        1.0080           
    8088 A    9031 TIP4 BD1  LP0     -1.358200        0.0000           
    8089 A    9032 TIP4 O1   OW0      0.000000       15.9990           
    8090 A    9032 TIP4 H1   HW0      0.679100        1.0080           
    8091 A    9032 TIP4 H2   HW0      0.679100        1.0080           
    8092 A    9032 TIP4 BD1  LP0     -1.358200        0.0000           
    8093 A    9033 TIP4 O1   OW0      0.000000       15.9990           
    8094 A    9033 TIP4 H1   HW0      0.679100        1.0080           
    8095 A    9033 TIP4 H2   HW0      0.679100        1.0080           
    8096 A    9033 TIP4 BD1  LP0     -1.358200        0.0000           
    8097 A    9034 TIP4 O1   OW0      0.000000       15.9990           
    8098 A    9034 TIP4 H1   HW0      0.679100        1.0080           
    8099 A    9034 TIP4 H2   HW0      0.679100        1.0080           
    8100 A    9034 TIP4 BD1  LP0     -1.358200        0.0000           
    8101 A    9035 TIP4 O1   OW0      0.000000       15.9990           
    8102 A    9035 TIP4 H1   HW0      0.679100        1.0080           
    8103 A    9035 TIP4 H2   HW0      0.679100        1.0080           
    8104 A    9035 TIP4 BD1  LP0     -1.358200        0.0000           
    8105 A    9036 TIP4 O1   OW0      0.000000       15.9990           
    8106 A    9036 TIP4 H1   HW0      0.679100        1.0080           
    8107 A    9036 TIP4 H2   HW0      0.679100        1.0080           
    8108 A    9036 TIP4 BD1  LP0     -1.358200        0.0000           
    8109 A    9037 TIP4 O1   OW0      0.000000       15.9990           
    8110 A    9037 TIP4 H1   HW0      0.679100        1.0080           
    8111 A    9037 TIP4 H2   HW0      0.679100        1.0080           
    8112 A    9037 TIP4 BD1  LP0     -1.358200        0.0000           
    8113 A    9038 TIP4 O1   OW0      0.000000       15.9990           
    8114 A    9038 TIP4 H1   HW0      0.679100        1.0080           
    8115 A    9038 TIP4 H2   HW0      0.679100        1.0080           
    8116 A    9038 TIP4 BD1  LP0     -1.358200        0.0000           
    8117 A    9039 TIP4 O1   OW0      0.000000       15.9990           
    8118 A    9039 TIP4 H1   HW0      0.679100        1.0080           
    8119 A    9039 TIP4 H2   HW0      0.679100        1.0080           
    8120 A    9039 TIP4 BD1  LP0     -1.358200        0.0000           
    8121 A    9040 TIP4 O1   OW0      0.000000       15.9990           
    8122 A    9040 TIP4 H1   HW0      0.679100        1.0080           
    8123 A    9040 TIP4 H2   HW0      0.679100        1.0080           
    8124 A    9040 TIP4 BD1  LP0     -1.358200        0.0000           
    8125 A    9041 TIP4 O1   OW0      0.000000       15.9990           
    8126 A    9041 TIP4 H1   HW0      0.679100        1.0080           
    8127 A    9041 TIP4 H2   HW0      0.679100        1.0080           
    8128 A    9041 TIP4 BD1  LP0     -1.358200        0.0000           
    8129 A    9042 TIP4 O1   OW0      0.000000       15.9990           
    8130 A    9042 TIP4 H1   HW0      0.679100        1.0080           
    8131 A    9042 TIP4 H2   HW0      0.679100        1.0080           
    8132 A    9042 TIP4 BD1  LP0     -1.358200        0.0000           
    8133 A    9043 TIP4 O1   OW0      0.000000       15.9990           
    8134 A    9043 TIP4 H1   HW0      0.679100        1.0080           
    8135 A    9043 TIP4 H2   HW0      0.679100        1.0080           
    8136 A    9043 TIP4 BD1  LP0     -1.358200        0.0000           
    8137 A    9044 TIP4 O1   OW0      0.000000       15.9990           
    8138 A    9044 TIP4 H1   HW0      0.679100        1.0080           
    8139 A    9044 TIP4 H2   HW0      0.679100        1.0080           
    8140 A    9044 TIP4 BD1  LP0     -1.358200        0.0000           
    8141 A    9045 TIP4 O1   OW0      0.000000       15.9990           
    8142 A    9045 TIP4 H1   HW0      0.679100        1.0080           
    8143 A    9045 TIP4 H2   HW0      0.679100        1.0080           
    8144 A    9045 TIP4 BD1  LP0     -1.358200        0.0000           
    8145 A    9046 TIP4 O1   OW0      0.000000       15.9990           
    8146 A    9046 TIP4 H1   HW0      0.679100        1.0080           
    8147 A    9046 TIP4 H2   HW0      0.679100        1.0080           
    8148 A    9046 TIP4 BD1  LP0     -1.358200        0.0000           
    8149 A    9047 TIP4 O1   OW0      0.000000       15.9990           
    8150 A    9047 TIP4 H1   HW0      0.679100        1.0080           
    8151 A    9047 TIP4 H2   HW0      0.679100        1.0080           
    8152 A    9047 TIP4 BD1  LP0     -1.358200        0.0000           
    8153 A    9048 TIP4 O1   OW0      0.000000       15.9990           
    8154 A    9048 TIP4 H1   HW0      0.679100        1.0080           
    8155 A    9048 TIP4 H2   HW0      0.679100        1.0080           
    8156 A    9048 TIP4 BD1  LP0     -1.358200        0.0000           
    8157 A    9049 TIP4 O1   OW0      0.000000       15.9990           
    8158 A    9049 TIP4 H1   HW0      0.679100        1.0080           
    8159 A    9049 TIP4 H2   HW0      0.679100        1.0080           
    8160 A    9049 TIP4 BD1  LP0     -1.358200        0.0000           
    8161 A    9050 TIP4 O1   OW0      0.000000       15.9990           
    8162 A    9050 TIP4 H1   HW0      0.679100        1.0080           
    8163 A    9050 TIP4 H2   HW0      0.679100        1.0080           
    8164 A    9050 TIP4 BD1  LP0     -1.358200        0.0000           
    8165 A    9051 TIP4 O1   OW0      0.000000       15.9990           
    8166 A    9051 TIP4 H1   HW0      0.679100        1.0080           
    8167 A    9051 TIP4 H2   HW0      0.679100        1.0080           
    8168 A    9051 TIP4 BD1  LP0     -1.358200        0.0000           
    8169 A    9052 TIP4 O1   OW0      0.000000       15.9990           
    8170 A    9052 TIP4 H1   HW0      0.679100        1.0080           
    8171 A    9052 TIP4 H2   HW0      0.679100        1.0080           
    8172 A    9052 TIP4 BD1  LP0     -1.358200        0.0000           
    8173 A    9053 TIP4 O1   OW0      0.000000       15.9990           
    8174 A    9053 TIP4 H1   HW0      0.679100        1.0080           
    8175 A    9053 TIP4 H2   HW0      0.679100        1.0080           
    8176 A    9053 TIP4 BD1  LP0     -1.358200        0.0000           
    8177 A    9054 TIP4 O1   OW0      0.000000       15.9990           
    8178 A    9054 TIP4 H1   HW0      0.679100        1.0080           
    8179 A    9054 TIP4 H2   HW0      0.679100        1.0080           
    8180 A    9054 TIP4 BD1  LP0     -1.358200        0.0000           
    8181 A    9055 TIP4 O1   OW0      0.000000       15.9990           
    8182 A    9055 TIP4 H1   HW0      0.679100        1.0080           
    8183 A    9055 TIP4 H2   HW0      0.679100        1.0080           
    8184 A    9055 TIP4 BD1  LP0     -1.358200        0.0000           
    8185 A    9056 TIP4 O1   OW0      0.000000       15.9990           
    8186 A    9056 TIP4 H1   HW0      0.679100        1.0080           
    8187 A    9056 TIP4 H2   HW0      0.679100        1.0080           
    8188 A    9056 TIP4 BD1  LP0     -1.358200        0.0000           
    8189 A    9057 TIP4 O1   OW0      0.000000       15.9990           
    8190 A    9057 TIP4 H1   HW0      0.679100        1.0080           
    8191 A    9057 TIP4 H2   HW0      0.679100        1.0080           
    8192 A    9057 TIP4 BD1  LP0     -1.358200        0.0000           
    8193 A    9058 TIP4 O1   OW0      0.000000       15.9990           
    8194 A    9058 TIP4 H1   HW0      0.679100        1.0080           
    8195 A    9058 TIP4 H2   HW0      0.679100        1.0080           
    8196 A    9058 TIP4 BD1  LP0     -1.358200        0.0000           
    8197 A    9059 TIP4 O1   OW0      0.000000       15.9990           
    8198 A    9059 TIP4 H1   HW0      0.679100        1.0080           
    8199 A    9059 TIP4 H2   HW0      0.679100        1.0080           
    8200 A    9059 TIP4 BD1  LP0     -1.358200        0.0000           
    8201 A    9060 TIP4 O1   OW0      0.000000       15.9990           
    8202 A    9060 TIP4 H1   HW0      0.679100        1.0080           
    8203 A    9060 TIP4 H2   HW0      0.679100        1.0080           
    8204 A    9060 TIP4 BD1  LP0     -1.358200        0.0000           
    8205 A    9061 TIP4 O1   OW0      0.000000       15.9990           
    8206 A    9061 TIP4 H1   HW0      0.679100        1.0080           
    8207 A    9061 TIP4 H2   HW0      0.679100        1.0080           
    8208 A    9061 TIP4 BD1  LP0     -1.358200        0.0000           
    8209 A    9062 TIP4 O1   OW0      0.000000       15.9990           
    8210 A    9062 TIP4 H1   HW0      0.679100        1.0080           
    8211 A    9062 TIP4 H2   HW0      0.679100        1.0080           
    8212 A    9062 TIP4 BD1  LP0     -1.358200        0.0000           
    8213 A    9063 TIP4 O1   OW0      0.000000       15.9990           
    8214 A    9063 TIP4 H1   HW0      0.679100        1.0080           
    8215 A    9063 TIP4 H2   HW0      0.679100        1.0080           
    8216 A    9063 TIP4 BD1  LP0     -1.358200        0.0000           
    8217 A    9064 TIP4 O1   OW0      0.000000       15.9990           
    8218 A    9064 TIP4 H1   HW0      0.679100        1.0080           
    8219 A    9064 TIP4 H2   HW0      0.679100        1.0080           
    8220 A    9064 TIP4 BD1  LP0     -1.358200        0.0000           
    8221 A    9065 TIP4 O1   OW0      0.000000       15.9990           
    8222 A    9065 TIP4 H1   HW0      0.679100        1.0080           
    8223 A    9065 TIP4 H2   HW0      0.679100        1.0080           
    8224 A    9065 TIP4 BD1  LP0     -1.358200        0.0000           
    8225 A    9066 TIP4 O1   OW0      0.000000       15.9990           
    8226 A    9066 TIP4 H1   HW0      0.679100        1.0080           
    8227 A    9066 TIP4 H2   HW0      0.679100        1.0080           
    8228 A    9066 TIP4 BD1  LP0     -1.358200        0.0000           
    8229 A    9067 TIP4 O1   OW0      0.000000       15.9990           
    8230 A    9067 TIP4 H1   HW0      0.679100        1.0080           
    8231 A    9067 TIP4 H2   HW0      0.679100        1.0080           
    8232 A    9067 TIP4 BD1  LP0     -1.358200        0.0000           
    8233 A    9068 TIP4 O1   OW0      0.000000       15.9990           
    8234 A    9068 TIP4 H1   HW0      0.679100        1.0080           
    8235 A    9068 TIP4 H2   HW0      0.679100        1.0080           
    8236 A    9068 TIP4 BD1  LP0     -1.358200        0.0000           
    8237 A    9069 TIP4 O1   OW0      0.000000       15.9990           
    8238 A    9069 TIP4 H1   HW0      0.679100        1.0080           
    8239 A    9069 TIP4 H2   HW0      0.679100        1.0080           
    8240 A    9069 TIP4 BD1  LP0     -1.358200        0.0000           
    8241 A    9070 TIP4 O1   OW0      0.000000       15.9990           
    8242 A    9070 TIP4 H1   HW0      0.679100        1.0080           
    8243 A    9070 TIP4 H2   HW0      0.679100        1.0080           
    8244 A    9070 TIP4 BD1  LP0     -1.358200        0.0000           
    8245 A    9071 TIP4 O1   OW0      0.000000       15.9990           
    8246 A    9071 TIP4 H1   HW0      0.679100        1.0080           
    8247 A    9071 TIP4 H2   HW0      0.679100        1.0080           
    8248 A    9071 TIP4 BD1  LP0     -1.358200        0.0000           
    8249 A    9072 TIP4 O1   OW0      0.000000       15.9990           
    8250 A    9072 TIP4 H1   HW0      0.679100        1.0080           
    8251 A    9072 TIP4 H2   HW0      0.679100        1.0080           
    8252 A    9072 TIP4 BD1  LP0     -1.358200        0.0000           
    8253 A    9073 TIP4 O1   OW0      0.000000       15.9990           
    8254 A    9073 TIP4 H1   HW0      0.679100        1.0080           
    8255 A    9073 TIP4 H2   HW0      0.679100        1.0080           
    8256 A    9073 TIP4 BD1  LP0     -1.358200        0.0000           
    8257 A    9074 TIP4 O1   OW0      0.000000       15.9990           
    8258 A    9074 TIP4 H1   HW0      0.679100        1.0080           
    8259 A    9074 TIP4 H2   HW0      0.679100        1.0080           
    8260 A    9074 TIP4 BD1  LP0     -1.358200        0.0000           
    8261 A    9075 TIP4 O1   OW0      0.000000       15.9990           
    8262 A    9075 TIP4 H1   HW0      0.679100        1.0080           
    8263 A    9075 TIP4 H2   HW0      0.679100        1.0080           
    8264 A    9075 TIP4 BD1  LP0     -1.358200        0.0000           
    8265 A    9076 TIP4 O1   OW0      0.000000       15.9990           
    8266 A    9076 TIP4 H1   HW0      0.679100        1.0080           
    8267 A    9076 TIP4 H2   HW0      0.679100        1.0080           
    8268 A    9076 TIP4 BD1  LP0     -1.358200        0.0000           
    8269 A    9077 TIP4 O1   OW0      0.000000       15.9990           
    8270 A    9077 TIP4 H1   HW0      0.679100        1.0080           
    8271 A    9077 TIP4 H2   HW0      0.679100        1.0080           
    8272 A    9077 TIP4 BD1  LP0     -1.358200        0.0000           
    8273 A    9078 TIP4 O1   OW0      0.000000       15.9990           
    8274 A    9078 TIP4 H1   HW0      0.679100        1.0080           
    8275 A    9078 TIP4 H2   HW0      0.679100        1.0080           
    8276 A    9078 TIP4 BD1  LP0     -1.358200        0.0000           
    8277 A    9079 TIP4 O1   OW0      0.000000       15.9990           
    8278 A    9079 TIP4 H1   HW0      0.679100        1.0080           
    8279 A    9079 TIP4 H2   HW0      0.679100        1.0080           
    8280 A    9079 TIP4 BD1  LP0     -1.358200        0.0000           
    8281 A    9080 TIP4 O1   OW0      0.000000       15.9990           
    8282 A    9080 TIP4 H1   HW0      0.679100        1.0080           
    8283 A    9080 TIP4 H2   HW0      0.679100        1.0080           
    8284 A    9080 TIP4 BD1  LP0     -1.358200        0.0000           
    8285 A    9081 TIP4 O1   OW0      0.000000       15.9990           
    8286 A    9081 TIP4 H1   HW0      0.679100        1.0080           
    8287 A    9081 TIP4 H2   HW0      0.679100        1.0080           
    8288 A    9081 TIP4 BD1  LP0     -1.358200        0.0000           
    8289 A    9082 TIP4 O1   OW0      0.000000       15.9990           
    8290 A    9082 TIP4 H1   HW0      0.679100        1.0080           
    8291 A    9082 TIP4 H2   HW0      0.679100        1.0080           
    8292 A    9082 TIP4 BD1  LP0     -1.358200        0.0000           
    8293 A    9083 TIP4 O1   OW0      0.000000       15.9990           
    8294 A    9083 TIP4 H1   HW0      0.679100        1.0080           
    8295 A    9083 TIP4 H2   HW0      0.679100        1.0080           
    8296 A    9083 TIP4 BD1  LP0     -1.358200        0.0000           
    8297 A    9084 TIP4 O1   OW0      0.000000       15.9990           
    8298 A    9084 TIP4 H1   HW0      0.679100        1.0080           
    8299 A    9084 TIP4 H2   HW0      0.679100        1.0080           
    8300 A    9084 TIP4 BD1  LP0     -1.358200        0.0000           
    8301 A    9085 TIP4 O1   OW0      0.000000       15.9990           
    8302 A    9085 TIP4 H1   HW0      0.679100        1.0080           
    8303 A    9085 TIP4 H2   HW0      0.679100        1.0080           
    8304 A    9085 TIP4 BD1  LP0     -1.358200        0.0000           
    8305 A    9086 TIP4 O1   OW0      0.000000       15.9990           
    8306 A    9086 TIP4 H1   HW0      0.679100        1.0080           
    8307 A    9086 TIP4 H2   HW0      0.679100        1.0080           
    8308 A    9086 TIP4 BD1  LP0     -1.358200        0.0000           
    8309 A    9087 TIP4 O1   OW0      0.000000       15.9990           
    8310 A    9087 TIP4 H1   HW0      0.679100        1.0080           
    8311 A    9087 TIP4 H2   HW0      0.679100        1.0080           
    8312 A    9087 TIP4 BD1  LP0     -1.358200        0.0000           
    8313 A    9088 TIP4 O1   OW0      0.000000       15.9990           
    8314 A    9088 TIP4 H1   HW0      0.679100        1.0080           
    8315 A    9088 TIP4 H2   HW0      0.679100        1.0080           
    8316 A    9088 TIP4 BD1  LP0     -1.358200        0.0000           
    8317 A    9089 TIP4 O1   OW0      0.000000       15.9990           
    8318 A    9089 TIP4 H1   HW0      0.679100        1.0080           
    8319 A    9089 TIP4 H2   HW0      0.679100        1.0080           
    8320 A    9089 TIP4 BD1  LP0     -1.358200        0.0000           
    8321 A    9090 TIP4 O1   OW0      0.000000       15.9990           
    8322 A    9090 TIP4 H1   HW0      0.679100        1.0080           
    8323 A    9090 TIP4 H2   HW0      0.679100        1.0080           
    8324 A    9090 TIP4 BD1  LP0     -1.358200        0.0000           
    8325 A    9091 TIP4 O1   OW0      0.000000       15.9990           
    8326 A    9091 TIP4 H1   HW0      0.679100        1.0080           
    8327 A    9091 TIP4 H2   HW0      0.679100        1.0080           
    8328 A    9091 TIP4 BD1  LP0     -1.358200        0.0000           
    8329 A    9092 TIP4 O1   OW0      0.000000       15.9990           
    8330 A    9092 TIP4 H1   HW0      0.679100        1.0080           
    8331 A    9092 TIP4 H2   HW0      0.679100        1.0080           
    8332 A    9092 TIP4 BD1  LP0     -1.358200        0.0000           
    8333 A    9093 TIP4 O1   OW0      0.000000       15.9990           
    8334 A    9093 TIP4 H1   HW0      0.679100        1.0080           
    8335 A    9093 TIP4 H2   HW0      0.679100        1.0080           
    8336 A    9093 TIP4 BD1  LP0     -1.358200        0.0000           
    8337 A    9094 TIP4 O1   OW0      0.000000       15.9990           
    8338 A    9094 TIP4 H1   HW0      0.679100        1.0080           
    8339 A    9094 TIP4 H2   HW0      0.679100        1.0080           
    8340 A    9094 TIP4 BD1  LP0     -1.358200        0.0000           
    8341 A    9095 TIP4 O1   OW0      0.000000       15.9990           
    8342 A    9095 TIP4 H1   HW0      0.679100        1.0080           
    8343 A    9095 TIP4 H2   HW0      0.679100        1.0080           
    8344 A    9095 TIP4 BD1  LP0     -1.358200        0.0000           
    8345 A    9096 TIP4 O1   OW0      0.000000       15.9990           
    8346 A    9096 TIP4 H1   HW0      0.679100        1.0080           
    8347 A    9096 TIP4 H2   HW0      0.679100        1.0080           
    8348 A    9096 TIP4 BD1  LP0     -1.358200        0.0000           
    8349 A    9097 TIP4 O1   OW0      0.000000       15.9990           
    8350 A    9097 TIP4 H1   HW0      0.679100        1.0080           
    8351 A    9097 TIP4 H2   HW0      0.679100        1.0080           
    8352 A    9097 TIP4 BD1  LP0     -1.358200        0.0000           
    8353 A    9098 TIP4 O1   OW0      0.000000       15.9990           
    8354 A    9098 TIP4 H1   HW0      0.679100        1.0080           
    8355 A    9098 TIP4 H2   HW0      0.679100        1.0080           
    8356 A    9098 TIP4 BD1  LP0     -1.358200        0.0000           
    8357 A    9099 TIP4 O1   OW0      0.000000       15.9990           
    8358 A    9099 TIP4 H1   HW0      0.679100        1.0080           
    8359 A    9099 TIP4 H2   HW0      0.679100        1.0080           
    8360 A    9099 TIP4 BD1  LP0     -1.358200        0.0000           
    8361 A    9100 TIP4 O1   OW0      0.000000       15.9990           
    8362 A    9100 TIP4 H1   HW0      0.679100        1.0080           
    8363 A    9100 TIP4 H2   HW0      0.679100        1.0080           
    8364 A    9100 TIP4 BD1  LP0     -1.358200        0.0000           
    8365 A    9101 TIP4 O1   OW0      0.000000       15.9990           
    8366 A    9101 TIP4 H1   HW0      0.679100        1.0080           
    8367 A    9101 TIP4 H2   HW0      0.679100        1.0080           
    8368 A    9101 TIP4 BD1  LP0     -1.358200        0.0000           
    8369 A    9102 TIP4 O1   OW0      0.000000       15.9990           
    8370 A    9102 TIP4 H1   HW0      0.679100        1.0080           
    8371 A    9102 TIP4 H2   HW0      0.679100        1.0080           
    8372 A    9102 TIP4 BD1  LP0     -1.358200        0.0000           
    8373 A    9103 TIP4 O1   OW0      0.000000       15.9990           
    8374 A    9103 TIP4 H1   HW0      0.679100        1.0080           
    8375 A    9103 TIP4 H2   HW0      0.679100        1.0080           
    8376 A    9103 TIP4 BD1  LP0     -1.358200        0.0000           
    8377 A    9104 TIP4 O1   OW0      0.000000       15.9990           
    8378 A    9104 TIP4 H1   HW0      0.679100        1.0080           
    8379 A    9104 TIP4 H2   HW0      0.679100        1.0080           
    8380 A    9104 TIP4 BD1  LP0     -1.358200        0.0000           
    8381 A    9105 TIP4 O1   OW0      0.000000       15.9990           
    8382 A    9105 TIP4 H1   HW0      0.679100        1.0080           
    8383 A    9105 TIP4 H2   HW0      0.679100        1.0080           
    8384 A    9105 TIP4 BD1  LP0     -1.358200        0.0000           
    8385 A    9106 TIP4 O1   OW0      0.000000       15.9990           
    8386 A    9106 TIP4 H1   HW0      0.679100        1.0080           
    8387 A    9106 TIP4 H2   HW0      0.679100        1.0080           
    8388 A    9106 TIP4 BD1  LP0     -1.358200        0.0000           
    8389 A    9107 TIP4 O1   OW0      0.000000       15.9990           
    8390 A    9107 TIP4 H1   HW0      0.679100        1.0080           
    8391 A    9107 TIP4 H2   HW0      0.679100        1.0080           
    8392 A    9107 TIP4 BD1  LP0     -1.358200        0.0000           
    8393 A    9108 TIP4 O1   OW0      0.000000       15.9990           
    8394 A    9108 TIP4 H1   HW0      0.679100        1.0080           
    8395 A    9108 TIP4 H2   HW0      0.679100        1.0080           
    8396 A    9108 TIP4 BD1  LP0     -1.358200        0.0000           
    8397 A    9109 TIP4 O1   OW0      0.000000       15.9990           
    8398 A    9109 TIP4 H1   HW0      0.679100        1.0080           
    8399 A    9109 TIP4 H2   HW0      0.679100        1.0080           
    8400 A    9109 TIP4 BD1  LP0     -1.358200        0.0000           
    8401 A    9110 TIP4 O1   OW0      0.000000       15.9990           
    8402 A    9110 TIP4 H1   HW0      0.679100        1.0080           
    8403 A    9110 TIP4 H2   HW0      0.679100        1.0080           
    8404 A    9110 TIP4 BD1  LP0     -1.358200        0.0000           
    8405 A    9111 TIP4 O1   OW0      0.000000       15.9990           
    8406 A    9111 TIP4 H1   HW0      0.679100        1.0080           
    8407 A    9111 TIP4 H2   HW0      0.679100        1.0080           
    8408 A    9111 TIP4 BD1  LP0     -1.358200        0.0000           
    8409 A    9112 TIP4 O1   OW0      0.000000       15.9990           
    8410 A    9112 TIP4 H1   HW0      0.679100        1.0080           
    8411 A    9112 TIP4 H2   HW0      0.679100        1.0080           
    8412 A    9112 TIP4 BD1  LP0     -1.358200        0.0000           
    8413 A    9113 TIP4 O1   OW0      0.000000       15.9990           
    8414 A    9113 TIP4 H1   HW0      0.679100        1.0080           
    8415 A    9113 TIP4 H2   HW0      0.679100        1.0080           
    8416 A    9113 TIP4 BD1  LP0     -1.358200        0.0000           
    8417 A    9114 TIP4 O1   OW0      0.000000       15.9990           
    8418 A    9114 TIP4 H1   HW0      0.679100        1.0080           
    8419 A    9114 TIP4 H2   HW0      0.679100        1.0080           
    8420 A    9114 TIP4 BD1  LP0     -1.358200        0.0000           
    8421 A    9115 TIP4 O1   OW0      0.000000       15.9990           
    8422 A    9115 TIP4 H1   HW0      0.679100        1.0080           
    8423 A    9115 TIP4 H2   HW0      0.679100        1.0080           
    8424 A    9115 TIP4 BD1  LP0     -1.358200        0.0000           
    8425 A    9116 TIP4 O1   OW0      0.000000       15.9990           
    8426 A    9116 TIP4 H1   HW0      0.679100        1.0080           
    8427 A    9116 TIP4 H2   HW0      0.679100        1.0080           
    8428 A    9116 TIP4 BD1  LP0     -1.358200        0.0000           
    8429 A    9117 TIP4 O1   OW0      0.000000       15.9990           
    8430 A    9117 TIP4 H1   HW0      0.679100        1.0080           
    8431 A    9117 TIP4 H2   HW0      0.679100        1.0080           
    8432 A    9117 TIP4 BD1  LP0     -1.358200        0.0000           
    8433 A    9118 TIP4 O1   OW0      0.000000       15.9990           
    8434 A    9118 TIP4 H1   HW0      0.679100        1.0080           
    8435 A    9118 TIP4 H2   HW0      0.679100        1.0080           
    8436 A    9118 TIP4 BD1  LP0     -1.358200        0.0000           
    8437 A    9119 TIP4 O1   OW0      0.000000       15.9990           
    8438 A    9119 TIP4 H1   HW0      0.679100        1.0080           
    8439 A    9119 TIP4 H2   HW0      0.679100        1.0080           
    8440 A    9119 TIP4 BD1  LP0     -1.358200        0.0000           
    8441 A    9120 TIP4 O1   OW0      0.000000       15.9990           
    8442 A    9120 TIP4 H1   HW0      0.679100        1.0080           
    8443 A    9120 TIP4 H2   HW0      0.679100        1.0080           
    8444 A    9120 TIP4 BD1  LP0     -1.358200        0.0000           
    8445 A    9121 TIP4 O1   OW0      0.000000       15.9990           
    8446 A    9121 TIP4 H1   HW0      0.679100        1.0080           
    8447 A    9121 TIP4 H2   HW0      0.679100        1.0080           
    8448 A    9121 TIP4 BD1  LP0     -1.358200        0.0000           
    8449 A    9122 TIP4 O1   OW0      0.000000       15.9990           
    8450 A    9122 TIP4 H1   HW0      0.679100        1.0080           
    8451 A    9122 TIP4 H2   HW0      0.679100        1.0080           
    8452 A    9122 TIP4 BD1  LP0     -1.358200        0.0000           
    8453 A    9123 TIP4 O1   OW0      0.000000       15.9990           
    8454 A    9123 TIP4 H1   HW0      0.679100        1.0080           
    8455 A    9123 TIP4 H2   HW0      0.679100        1.0080           
    8456 A    9123 TIP4 BD1  LP0     -1.358200        0.0000           
    8457 A    9124 TIP4 O1   OW0      0.000000       15.9990           
    8458 A    9124 TIP4 H1   HW0      0.679100        1.0080           
    8459 A    9124 TIP4 H2   HW0      0.679100        1.0080           
    8460 A    9124 TIP4 BD1  LP0     -1.358200        0.0000           
    8461 A    9125 TIP4 O1   OW0      0.000000       15.9990           
    8462 A    9125 TIP4 H1   HW0      0.679100        1.0080           
    8463 A    9125 TIP4 H2   HW0      0.679100        1.0080           
    8464 A    9125 TIP4 BD1  LP0     -1.358200        0.0000           
    8465 A    9126 TIP4 O1   OW0      0.000000       15.9990           
    8466 A    9126 TIP4 H1   HW0      0.679100        1.0080           
    8467 A    9126 TIP4 H2   HW0      0.679100        1.0080           
    8468 A    9126 TIP4 BD1  LP0     -1.358200        0.0000           
    8469 A    9127 TIP4 O1   OW0      0.000000       15.9990           
    8470 A    9127 TIP4 H1   HW0      0.679100        1.0080           
    8471 A    9127 TIP4 H2   HW0      0.679100        1.0080           
    8472 A    9127 TIP4 BD1  LP0     -1.358200        0.0000           
    8473 A    9128 TIP4 O1   OW0      0.000000       15.9990           
    8474 A    9128 TIP4 H1   HW0      0.679100        1.0080           
    8475 A    9128 TIP4 H2   HW0      0.679100        1.0080           
    8476 A    9128 TIP4 BD1  LP0     -1.358200        0.0000           
    8477 A    9129 TIP4 O1   OW0      0.000000       15.9990           
    8478 A    9129 TIP4 H1   HW0      0.679100        1.0080           
    8479 A    9129 TIP4 H2   HW0      0.679100        1.0080           
    8480 A    9129 TIP4 BD1  LP0     -1.358200        0.0000           
    8481 A    9130 TIP4 O1   OW0      0.000000       15.9990           
    8482 A    9130 TIP4 H1   HW0      0.679100        1.0080           
    8483 A    9130 TIP4 H2   HW0      0.679100        1.0080           
    8484 A    9130 TIP4 BD1  LP0     -1.358200        0.0000           
    8485 A    9131 TIP4 O1   OW0      0.000000       15.9990           
    8486 A    9131 TIP4 H1   HW0      0.679100        1.0080           
    8487 A    9131 TIP4 H2   HW0      0.679100        1.0080           
    8488 A    9131 TIP4 BD1  LP0     -1.358200        0.0000           
    8489 A    9132 TIP4 O1   OW0      0.000000       15.9990           
    8490 A    9132 TIP4 H1   HW0      0.679100        1.0080           
    8491 A    9132 TIP4 H2   HW0      0.679100        1.0080           
    8492 A    9132 TIP4 BD1  LP0     -1.358200        0.0000           
    8493 A    9133 TIP4 O1   OW0      0.000000       15.9990           
    8494 A    9133 TIP4 H1   HW0      0.679100        1.0080           
    8495 A    9133 TIP4 H2   HW0      0.679100        1.0080           
    8496 A    9133 TIP4 BD1  LP0     -1.358200        0.0000           
    8497 A    9134 TIP4 O1   OW0      0.000000       15.9990           
    8498 A    9134 TIP4 H1   HW0      0.679100        1.0080           
    8499 A    9134 TIP4 H2   HW0      0.679100        1.0080           
    8500 A    9134 TIP4 BD1  LP0     -1.358200        0.0000           
    8501 A    9135 TIP4 O1   OW0      0.000000       15.9990           
    8502 A    9135 TIP4 H1   HW0      0.679100        1.0080           
    8503 A    9135 TIP4 H2   HW0      0.679100        1.0080           
    8504 A    9135 TIP4 BD1  LP0     -1.358200        0.0000           
    8505 A    9136 TIP4 O1   OW0      0.000000       15.9990           
    8506 A    9136 TIP4 H1   HW0      0.679100        1.0080           
    8507 A    9136 TIP4 H2   HW0      0.679100        1.0080           
    8508 A    9136 TIP4 BD1  LP0     -1.358200        0.0000           
    8509 A    9137 TIP4 O1   OW0      0.000000       15.9990           
    8510 A    9137 TIP4 H1   HW0      0.679100        1.0080           
    8511 A    9137 TIP4 H2   HW0      0.679100        1.0080           
    8512 A    9137 TIP4 BD1  LP0     -1.358200        0.0000           
    8513 A    9138 TIP4 O1   OW0      0.000000       15.9990           
    8514 A    9138 TIP4 H1   HW0      0.679100        1.0080           
    8515 A    9138 TIP4 H2   HW0      0.679100        1.0080           
    8516 A    9138 TIP4 BD1  LP0     -1.358200        0.0000           
    8517 A    9139 TIP4 O1   OW0      0.000000       15.9990           
    8518 A    9139 TIP4 H1   HW0      0.679100        1.0080           
    8519 A    9139 TIP4 H2   HW0      0.679100        1.0080           
    8520 A    9139 TIP4 BD1  LP0     -1.358200        0.0000           
    8521 A    9140 TIP4 O1   OW0      0.000000       15.9990           
    8522 A    9140 TIP4 H1   HW0      0.679100        1.0080           
    8523 A    9140 TIP4 H2   HW0      0.679100        1.0080           
    8524 A    9140 TIP4 BD1  LP0     -1.358200        0.0000           
    8525 A    9141 TIP4 O1   OW0      0.000000       15.9990           
    8526 A    9141 TIP4 H1   HW0      0.679100        1.0080           
    8527 A    9141 TIP4 H2   HW0      0.679100        1.0080           
    8528 A    9141 TIP4 BD1  LP0     -1.358200        0.0000           
    8529 A    9142 TIP4 O1   OW0      0.000000       15.9990           
    8530 A    9142 TIP4 H1   HW0      0.679100        1.0080           
    8531 A    9142 TIP4 H2   HW0      0.679100        1.0080           
    8532 A    9142 TIP4 BD1  LP0     -1.358200        0.0000           
    8533 A    9143 TIP4 O1   OW0      0.000000       15.9990           
    8534 A    9143 TIP4 H1   HW0      0.679100        1.0080           
    8535 A    9143 TIP4 H2   HW0      0.679100        1.0080           
    8536 A    9143 TIP4 BD1  LP0     -1.358200        0.0000           
    8537 A    9144 TIP4 O1   OW0      0.000000       15.9990           
    8538 A    9144 TIP4 H1   HW0      0.679100        1.0080           
    8539 A    9144 TIP4 H2   HW0      0.679100        1.0080           
    8540 A    9144 TIP4 BD1  LP0     -1.358200        0.0000           
    8541 A    9145 TIP4 O1   OW0      0.000000       15.9990           
    8542 A    9145 TIP4 H1   HW0      0.679100        1.0080           
    8543 A    9145 TIP4 H2   HW0      0.679100        1.0080           
    8544 A    9145 TIP4 BD1  LP0     -1.358200        0.0000           
    8545 A    9146 TIP4 O1   OW0      0.000000       15.9990           
    8546 A    9146 TIP4 H1   HW0      0.679100        1.0080           
    8547 A    9146 TIP4 H2   HW0      0.679100        1.0080           
    8548 A    9146 TIP4 BD1  LP0     -1.358200        0.0000           
    8549 A    9147 TIP4 O1   OW0      0.000000       15.9990           
    8550 A    9147 TIP4 H1   HW0      0.679100        1.0080           
    8551 A    9147 TIP4 H2   HW0      0.679100        1.0080           
    8552 A    9147 TIP4 BD1  LP0     -1.358200        0.0000           
    8553 A    9148 TIP4 O1   OW0      0.000000       15.9990           
    8554 A    9148 TIP4 H1   HW0      0.679100        1.0080           
    8555 A    9148 TIP4 H2   HW0      0.679100        1.0080           
    8556 A    9148 TIP4 BD1  LP0     -1.358200        0.0000           
    8557 A    9149 TIP4 O1   OW0      0.000000       15.9990           
    8558 A    9149 TIP4 H1   HW0      0.679100        1.0080           
    8559 A    9149 TIP4 H2   HW0      0.679100        1.0080           
    8560 A    9149 TIP4 BD1  LP0     -1.358200        0.0000           
    8561 A    9150 TIP4 O1   OW0      0.000000       15.9990           
    8562 A    9150 TIP4 H1   HW0      0.679100        1.0080           
    8563 A    9150 TIP4 H2   HW0      0.679100        1.0080           
    8564 A    9150 TIP4 BD1  LP0     -1.358200        0.0000           
    8565 A    9151 TIP4 O1   OW0      0.000000       15.9990           
    8566 A    9151 TIP4 H1   HW0      0.679100        1.0080           
    8567 A    9151 TIP4 H2   HW0      0.679100        1.0080           
    8568 A    9151 TIP4 BD1  LP0     -1.358200        0.0000           
    8569 A    9152 TIP4 O1   OW0      0.000000       15.9990           
    8570 A    9152 TIP4 H1   HW0      0.679100        1.0080           
    8571 A    9152 TIP4 H2   HW0      0.679100        1.0080           
    8572 A    9152 TIP4 BD1  LP0     -1.358200        0.0000           
    8573 A    9153 TIP4 O1   OW0      0.000000       15.9990           
    8574 A    9153 TIP4 H1   HW0      0.679100        1.0080           
    8575 A    9153 TIP4 H2   HW0      0.679100        1.0080           
    8576 A    9153 TIP4 BD1  LP0     -1.358200        0.0000           
    8577 A    9154 TIP4 O1   OW0      0.000000       15.9990           
    8578 A    9154 TIP4 H1   HW0      0.679100        1.0080           
    8579 A    9154 TIP4 H2   HW0      0.679100        1.0080           
    8580 A    9154 TIP4 BD1  LP0     -1.358200        0.0000           
    8581 A    9155 TIP4 O1   OW0      0.000000       15.9990           
    8582 A    9155 TIP4 H1   HW0      0.679100        1.0080           
    8583 A    9155 TIP4 H2   HW0      0.679100        1.0080           
    8584 A    9155 TIP4 BD1  LP0     -1.358200        0.0000           
    8585 A    9156 TIP4 O1   OW0      0.000000       15.9990           
    8586 A    9156 TIP4 H1   HW0      0.679100        1.0080           
    8587 A    9156 TIP4 H2   HW0      0.679100        1.0080           
    8588 A    9156 TIP4 BD1  LP0     -1.358200        0.0000           
    8589 A    9157 TIP4 O1   OW0      0.000000       15.9990           
    8590 A    9157 TIP4 H1   HW0      0.679100        1.0080           
    8591 A    9157 TIP4 H2   HW0      0.679100        1.0080           
    8592 A    9157 TIP4 BD1  LP0     -1.358200        0.0000           
    8593 A    9158 TIP4 O1   OW0      0.000000       15.9990           
    8594 A    9158 TIP4 H1   HW0      0.679100        1.0080           
    8595 A    9158 TIP4 H2   HW0      0.679100        1.0080           
    8596 A    9158 TIP4 BD1  LP0     -1.358200        0.0000           
    8597 A    9159 TIP4 O1   OW0      0.000000       15.9990           
    8598 A    9159 TIP4 H1   HW0      0.679100        1.0080           
    8599 A    9159 TIP4 H2   HW0      0.679100        1.0080           
    8600 A    9159 TIP4 BD1  LP0     -1.358200        0.0000           
    8601 A    9160 TIP4 O1   OW0      0.000000       15.9990           
    8602 A    9160 TIP4 H1   HW0      0.679100        1.0080           
    8603 A    9160 TIP4 H2   HW0      0.679100        1.0080           
    8604 A    9160 TIP4 BD1  LP0     -1.358200        0.0000           
    8605 A    9161 TIP4 O1   OW0      0.000000       15.9990           
    8606 A    9161 TIP4 H1   HW0      0.679100        1.0080           
    8607 A    9161 TIP4 H2   HW0      0.679100        1.0080           
    8608 A    9161 TIP4 BD1  LP0     -1.358200        0.0000           
    8609 A    9162 TIP4 O1   OW0      0.000000       15.9990           
    8610 A    9162 TIP4 H1   HW0      0.679100        1.0080           
    8611 A    9162 TIP4 H2   HW0      0.679100        1.0080           
    8612 A    9162 TIP4 BD1  LP0     -1.358200        0.0000           
    8613 A    9163 TIP4 O1   OW0      0.000000       15.9990           
    8614 A    9163 TIP4 H1   HW0      0.679100        1.0080           
    8615 A    9163 TIP4 H2   HW0      0.679100        1.0080           
    8616 A    9163 TIP4 BD1  LP0     -1.358200        0.0000           
    8617 A    9164 TIP4 O1   OW0      0.000000       15.9990           
    8618 A    9164 TIP4 H1   HW0      0.679100        1.0080           
    8619 A    9164 TIP4 H2   HW0      0.679100        1.0080           
    8620 A    9164 TIP4 BD1  LP0     -1.358200        0.0000           
    8621 A    9165 TIP4 O1   OW0      0.000000       15.9990           
    8622 A    9165 TIP4 H1   HW0      0.679100        1.0080           
    8623 A    9165 TIP4 H2   HW0      0.679100        1.0080           
    8624 A    9165 TIP4 BD1  LP0     -1.358200        0.0000           
    8625 A    9166 TIP4 O1   OW0      0.000000       15.9990           
    8626 A    9166 TIP4 H1   HW0      0.679100        1.0080           
    8627 A    9166 TIP4 H2   HW0      0.679100        1.0080           
    8628 A    9166 TIP4 BD1  LP0     -1.358200        0.0000           
    8629 A    9167 TIP4 O1   OW0      0.000000       15.9990           
    8630 A    9167 TIP4 H1   HW0      0.679100        1.0080           
    8631 A    9167 TIP4 H2   HW0      0.679100        1.0080           
    8632 A    9167 TIP4 BD1  LP0     -1.358200        0.0000           
    8633 A    9168 TIP4 O1   OW0      0.000000       15.9990           
    8634 A    9168 TIP4 H1   HW0      0.679100        1.0080           
    8635 A    9168 TIP4 H2   HW0      0.679100        1.0080           
    8636 A    9168 TIP4 BD1  LP0     -1.358200        0.0000           
    8637 A    9169 TIP4 O1   OW0      0.000000       15.9990           
    8638 A    9169 TIP4 H1   HW0      0.679100        1.0080           
    8639 A    9169 TIP4 H2   HW0      0.679100        1.0080           
    8640 A    9169 TIP4 BD1  LP0     -1.358200        0.0000           
    8641 A    9170 TIP4 O1   OW0      0.000000       15.9990           
    8642 A    9170 TIP4 H1   HW0      0.679100        1.0080           
    8643 A    9170 TIP4 H2   HW0      0.679100        1.0080           
    8644 A    9170 TIP4 BD1  LP0     -1.358200        0.0000           
    8645 A    9171 TIP4 O1   OW0      0.000000       15.9990           
    8646 A    9171 TIP4 H1   HW0      0.679100        1.0080           
    8647 A    9171 TIP4 H2   HW0      0.679100        1.0080           
    8648 A    9171 TIP4 BD1  LP0     -1.358200        0.0000           
    8649 A    9172 TIP4 O1   OW0      0.000000       15.9990           
    8650 A    9172 TIP4 H1   HW0      0.679100        1.0080           
    8651 A    9172 TIP4 H2   HW0      0.679100        1.0080           
    8652 A    9172 TIP4 BD1  LP0     -1.358200        0.0000           
    8653 A    9173 TIP4 O1   OW0      0.000000       15.9990           
    8654 A    9173 TIP4 H1   HW0      0.679100        1.0080           
    8655 A    9173 TIP4 H2   HW0      0.679100        1.0080           
    8656 A    9173 TIP4 BD1  LP0     -1.358200        0.0000           
    8657 A    9174 TIP4 O1   OW0      0.000000       15.9990           
    8658 A    9174 TIP4 H1   HW0      0.679100        1.0080           
    8659 A    9174 TIP4 H2   HW0      0.679100        1.0080           
    8660 A    9174 TIP4 BD1  LP0     -1.358200        0.0000           
    8661 A    9175 TIP4 O1   OW0      0.000000       15.9990           
    8662 A    9175 TIP4 H1   HW0      0.679100        1.0080           
    8663 A    9175 TIP4 H2   HW0      0.679100        1.0080           
    8664 A    9175 TIP4 BD1  LP0     -1.358200        0.0000           
    8665 A    9176 TIP4 O1   OW0      0.000000       15.9990           
    8666 A    9176 TIP4 H1   HW0      0.679100        1.0080           
    8667 A    9176 TIP4 H2   HW0      0.679100        1.0080           
    8668 A    9176 TIP4 BD1  LP0     -1.358200        0.0000           
    8669 A    9177 TIP4 O1   OW0      0.000000       15.9990           
    8670 A    9177 TIP4 H1   HW0      0.679100        1.0080           
    8671 A    9177 TIP4 H2   HW0      0.679100        1.0080           
    8672 A    9177 TIP4 BD1  LP0     -1.358200        0.0000           
    8673 A    9178 TIP4 O1   OW0      0.000000       15.9990           
    8674 A    9178 TIP4 H1   HW0      0.679100        1.0080           
    8675 A    9178 TIP4 H2   HW0      0.679100        1.0080           
    8676 A    9178 TIP4 BD1  LP0     -1.358200        0.0000           
    8677 A    9179 TIP4 O1   OW0      0.000000       15.9990           
    8678 A    9179 TIP4 H1   HW0      0.679100        1.0080           
    8679 A    9179 TIP4 H2   HW0      0.679100        1.0080           
    8680 A    9179 TIP4 BD1  LP0     -1.358200        0.0000           
    8681 A    9180 TIP4 O1   OW0      0.000000       15.9990           
    8682 A    9180 TIP4 H1   HW0      0.679100        1.0080           
    8683 A    9180 TIP4 H2   HW0      0.679100        1.0080           
    8684 A    9180 TIP4 BD1  LP0     -1.358200        0.0000           
    8685 A    9181 TIP4 O1   OW0      0.000000       15.9990           
    8686 A    9181 TIP4 H1   HW0      0.679100        1.0080           
    8687 A    9181 TIP4 H2   HW0      0.679100        1.0080           
    8688 A    9181 TIP4 BD1  LP0     -1.358200        0.0000           
    8689 A    9182 TIP4 O1   OW0      0.000000       15.9990           
    8690 A    9182 TIP4 H1   HW0      0.679100        1.0080           
    8691 A    9182 TIP4 H2   HW0      0.679100        1.0080           
    8692 A    9182 TIP4 BD1  LP0     -1.358200        0.0000           
    8693 A    9183 TIP4 O1   OW0      0.000000       15.9990           
    8694 A    9183 TIP4 H1   HW0      0.679100        1.0080           
    8695 A    9183 TIP4 H2   HW0      0.679100        1.0080           
    8696 A    9183 TIP4 BD1  LP0     -1.358200        0.0000           
    8697 A    9184 TIP4 O1   OW0      0.000000       15.9990           
    8698 A    9184 TIP4 H1   HW0      0.679100        1.0080           
    8699 A    9184 TIP4 H2   HW0      0.679100        1.0080           
    8700 A    9184 TIP4 BD1  LP0     -1.358200        0.0000           
    8701 A    9185 TIP4 O1   OW0      0.000000       15.9990           
    8702 A    9185 TIP4 H1   HW0      0.679100        1.0080           
    8703 A    9185 TIP4 H2   HW0      0.679100        1.0080           
    8704 A    9185 TIP4 BD1  LP0     -1.358200        0.0000           
    8705 A    9186 TIP4 O1   OW0      0.000000       15.9990           
    8706 A    9186 TIP4 H1   HW0      0.679100        1.0080           
    8707 A    9186 TIP4 H2   HW0      0.679100        1.0080           
    8708 A    9186 TIP4 BD1  LP0     -1.358200        0.0000           
    8709 A    9187 TIP4 O1   OW0      0.000000       15.9990           
    8710 A    9187 TIP4 H1   HW0      0.679100        1.0080           
    8711 A    9187 TIP4 H2   HW0      0.679100        1.0080           
    8712 A    9187 TIP4 BD1  LP0     -1.358200        0.0000           
    8713 A    9188 TIP4 O1   OW0      0.000000       15.9990           
    8714 A    9188 TIP4 H1   HW0      0.679100        1.0080           
    8715 A    9188 TIP4 H2   HW0      0.679100        1.0080           
    8716 A    9188 TIP4 BD1  LP0     -1.358200        0.0000           
    8717 A    9189 TIP4 O1   OW0      0.000000       15.9990           
    8718 A    9189 TIP4 H1   HW0      0.679100        1.0080           
    8719 A    9189 TIP4 H2   HW0      0.679100        1.0080           
    8720 A    9189 TIP4 BD1  LP0     -1.358200        0.0000           
    8721 A    9190 TIP4 O1   OW0      0.000000       15.9990           
    8722 A    9190 TIP4 H1   HW0      0.679100        1.0080           
    8723 A    9190 TIP4 H2   HW0      0.679100        1.0080           
    8724 A    9190 TIP4 BD1  LP0     -1.358200        0.0000           
    8725 A    9191 TIP4 O1   OW0      0.000000       15.9990           
    8726 A    9191 TIP4 H1   HW0      0.679100        1.0080           
    8727 A    9191 TIP4 H2   HW0      0.679100        1.0080           
    8728 A    9191 TIP4 BD1  LP0     -1.358200        0.0000           
    8729 A    9192 TIP4 O1   OW0      0.000000       15.9990           
    8730 A    9192 TIP4 H1   HW0      0.679100        1.0080           
    8731 A    9192 TIP4 H2   HW0      0.679100        1.0080           
    8732 A    9192 TIP4 BD1  LP0     -1.358200        0.0000           
    8733 A    9193 TIP4 O1   OW0      0.000000       15.9990           
    8734 A    9193 TIP4 H1   HW0      0.679100        1.0080           
    8735 A    9193 TIP4 H2   HW0      0.679100        1.0080           
    8736 A    9193 TIP4 BD1  LP0     -1.358200        0.0000           
    8737 A    9194 TIP4 O1   OW0      0.000000       15.9990           
    8738 A    9194 TIP4 H1   HW0      0.679100        1.0080           
    8739 A    9194 TIP4 H2   HW0      0.679100        1.0080           
    8740 A    9194 TIP4 BD1  LP0     -1.358200        0.0000           
    8741 A    9195 TIP4 O1   OW0      0.000000       15.9990           
    8742 A    9195 TIP4 H1   HW0      0.679100        1.0080           
    8743 A    9195 TIP4 H2   HW0      0.679100        1.0080           
    8744 A    9195 TIP4 BD1  LP0     -1.358200        0.0000           
    8745 A    9196 TIP4 O1   OW0      0.000000       15.9990           
    8746 A    9196 TIP4 H1   HW0      0.679100        1.0080           
    8747 A    9196 TIP4 H2   HW0      0.679100        1.0080           
    8748 A    9196 TIP4 BD1  LP0     -1.358200        0.0000           
    8749 A    9197 TIP4 O1   OW0      0.000000       15.9990           
    8750 A    9197 TIP4 H1   HW0      0.679100        1.0080           
    8751 A    9197 TIP4 H2   HW0      0.679100        1.0080           
    8752 A    9197 TIP4 BD1  LP0     -1.358200        0.0000           
    8753 A    9198 TIP4 O1   OW0      0.000000       15.9990           
    8754 A    9198 TIP4 H1   HW0      0.679100        1.0080           
    8755 A    9198 TIP4 H2   HW0      0.679100        1.0080           
    8756 A    9198 TIP4 BD1  LP0     -1.358200        0.0000           
    8757 A    9199 TIP4 O1   OW0      0.000000       15.9990           
    8758 A    9199 TIP4 H1   HW0      0.679100        1.0080           
    8759 A    9199 TIP4 H2   HW0      0.679100        1.0080           
    8760 A    9199 TIP4 BD1  LP0     -1.358200        0.0000           
    8761 A    9200 TIP4 O1   OW0      0.000000       15.9990           
    8762 A    9200 TIP4 H1   HW0      0.679100        1.0080           
    8763 A    9200 TIP4 H2   HW0      0.679100        1.0080           
    8764 A    9200 TIP4 BD1  LP0     -1.358200        0.0000           
    8765 A    9201 TIP4 O1   OW0      0.000000       15.9990           
    8766 A    9201 TIP4 H1   HW0      0.679100        1.0080           
    8767 A    9201 TIP4 H2   HW0      0.679100        1.0080           
    8768 A    9201 TIP4 BD1  LP0     -1.358200        0.0000           
    8769 A    9202 TIP4 O1   OW0      0.000000       15.9990           
    8770 A    9202 TIP4 H1   HW0      0.679100        1.0080           
    8771 A    9202 TIP4 H2   HW0      0.679100        1.0080           
    8772 A    9202 TIP4 BD1  LP0     -1.358200        0.0000           
    8773 A    9203 TIP4 O1   OW0      0.000000       15.9990           
    8774 A    9203 TIP4 H1   HW0      0.679100        1.0080           
    8775 A    9203 TIP4 H2   HW0      0.679100        1.0080           
    8776 A    9203 TIP4 BD1  LP0     -1.358200        0.0000           
    8777 A    9204 TIP4 O1   OW0      0.000000       15.9990           
    8778 A    9204 TIP4 H1   HW0      0.679100        1.0080           
    8779 A    9204 TIP4 H2   HW0      0.679100        1.0080           
    8780 A    9204 TIP4 BD1  LP0     -1.358200        0.0000           
    8781 A    9205 TIP4 O1   OW0      0.000000       15.9990           
    8782 A    9205 TIP4 H1   HW0      0.679100        1.0080           
    8783 A    9205 TIP4 H2   HW0      0.679100        1.0080           
    8784 A    9205 TIP4 BD1  LP0     -1.358200        0.0000           
    8785 A    9206 TIP4 O1   OW0      0.000000       15.9990           
    8786 A    9206 TIP4 H1   HW0      0.679100        1.0080           
    8787 A    9206 TIP4 H2   HW0      0.679100        1.0080           
    8788 A    9206 TIP4 BD1  LP0     -1.358200        0.0000           
    8789 A    9207 TIP4 O1   OW0      0.000000       15.9990           
    8790 A    9207 TIP4 H1   HW0      0.679100        1.0080           
    8791 A    9207 TIP4 H2   HW0      0.679100        1.0080           
    8792 A    9207 TIP4 BD1  LP0     -1.358200        0.0000           
    8793 A    9208 TIP4 O1   OW0      0.000000       15.9990           
    8794 A    9208 TIP4 H1   HW0      0.679100        1.0080           
    8795 A    9208 TIP4 H2   HW0      0.679100        1.0080           
    8796 A    9208 TIP4 BD1  LP0     -1.358200        0.0000           
    8797 A    9209 TIP4 O1   OW0      0.000000       15.9990           
    8798 A    9209 TIP4 H1   HW0      0.679100        1.0080           
    8799 A    9209 TIP4 H2   HW0      0.679100        1.0080           
    8800 A    9209 TIP4 BD1  LP0     -1.358200        0.0000           
    8801 A    9210 TIP4 O1   OW0      0.000000       15.9990           
    8802 A    9210 TIP4 H1   HW0      0.679100        1.0080           
    8803 A    9210 TIP4 H2   HW0      0.679100        1.0080           
    8804 A    9210 TIP4 BD1  LP0     -1.358200        0.0000           
    8805 A    9211 TIP4 O1   OW0      0.000000       15.9990           
    8806 A    9211 TIP4 H1   HW0      0.679100        1.0080           
    8807 A    9211 TIP4 H2   HW0      0.679100        1.0080           
    8808 A    9211 TIP4 BD1  LP0     -1.358200        0.0000           
    8809 A    9212 TIP4 O1   OW0      0.000000       15.9990           
    8810 A    9212 TIP4 H1   HW0      0.679100        1.0080           
    8811 A    9212 TIP4 H2   HW0      0.679100        1.0080           
    8812 A    9212 TIP4 BD1  LP0     -1.358200        0.0000           
    8813 A    9213 TIP4 O1   OW0      0.000000       15.9990           
    8814 A    9213 TIP4 H1   HW0      0.679100        1.0080           
    8815 A    9213 TIP4 H2   HW0      0.679100        1.0080           
    8816 A    9213 TIP4 BD1  LP0     -1.358200        0.0000           
    8817 A    9214 TIP4 O1   OW0      0.000000       15.9990           
    8818 A    9214 TIP4 H1   HW0      0.679100        1.0080           
    8819 A    9214 TIP4 H2   HW0      0.679100        1.0080           
    8820 A    9214 TIP4 BD1  LP0     -1.358200        0.0000           
    8821 A    9215 TIP4 O1   OW0      0.000000       15.9990           
    8822 A    9215 TIP4 H1   HW0      0.679100        1.0080           
    8823 A    9215 TIP4 H2   HW0      0.679100        1.0080           
    8824 A    9215 TIP4 BD1  LP0     -1.358200        0.0000           
    8825 A    9216 TIP4 O1   OW0      0.000000       15.9990           
    8826 A    9216 TIP4 H1   HW0      0.679100        1.0080           
    8827 A    9216 TIP4 H2   HW0      0.679100        1.0080           
    8828 A    9216 TIP4 BD1  LP0     -1.358200        0.0000           
    8829 A    9217 TIP4 O1   OW0      0.000000       15.9990           
    8830 A    9217 TIP4 H1   HW0      0.679100        1.0080           
    8831 A    9217 TIP4 H2   HW0      0.679100        1.0080           
    8832 A    9217 TIP4 BD1  LP0     -1.358200        0.0000           
    8833 A    9218 TIP4 O1   OW0      0.000000       15.9990           
    8834 A    9218 TIP4 H1   HW0      0.679100        1.0080           
    8835 A    9218 TIP4 H2   HW0      0.679100        1.0080           
    8836 A    9218 TIP4 BD1  LP0     -1.358200        0.0000           
    8837 A    9219 TIP4 O1   OW0      0.000000       15.9990           
    8838 A    9219 TIP4 H1   HW0      0.679100        1.0080           
    8839 A    9219 TIP4 H2   HW0      0.679100        1.0080           
    8840 A    9219 TIP4 BD1  LP0     -1.358200        0.0000           
    8841 A    9220 TIP4 O1   OW0      0.000000       15.9990           
    8842 A    9220 TIP4 H1   HW0      0.679100        1.0080           
    8843 A    9220 TIP4 H2   HW0      0.679100        1.0080           
    8844 A    9220 TIP4 BD1  LP0     -1.358200        0.0000           
    8845 A    9221 TIP4 O1   OW0      0.000000       15.9990           
    8846 A    9221 TIP4 H1   HW0      0.679100        1.0080           
    8847 A    9221 TIP4 H2   HW0      0.679100        1.0080           
    8848 A    9221 TIP4 BD1  LP0     -1.358200        0.0000           
    8849 A    9222 TIP4 O1   OW0      0.000000       15.9990           
    8850 A    9222 TIP4 H1   HW0      0.679100        1.0080           
    8851 A    9222 TIP4 H2   HW0      0.679100        1.0080           
    8852 A    9222 TIP4 BD1  LP0     -1.358200        0.0000           
    8853 A    9223 TIP4 O1   OW0      0.000000       15.9990           
    8854 A    9223 TIP4 H1   HW0      0.679100        1.0080           
    8855 A    9223 TIP4 H2   HW0      0.679100        1.0080           
    8856 A    9223 TIP4 BD1  LP0     -1.358200        0.0000           
    8857 A    9224 TIP4 O1   OW0      0.000000       15.9990           
    8858 A    9224 TIP4 H1   HW0      0.679100        1.0080           
    8859 A    9224 TIP4 H2   HW0      0.679100        1.0080           
    8860 A    9224 TIP4 BD1  LP0     -1.358200        0.0000           
    8861 A    9225 TIP4 O1   OW0      0.000000       15.9990           
    8862 A    9225 TIP4 H1   HW0      0.679100        1.0080           
    8863 A    9225 TIP4 H2   HW0      0.679100        1.0080           
    8864 A    9225 TIP4 BD1  LP0     -1.358200        0.0000           
    8865 A    9226 TIP4 O1   OW0      0.000000       15.9990           
    8866 A    9226 TIP4 H1   HW0      0.679100        1.0080           
    8867 A    9226 TIP4 H2   HW0      0.679100        1.0080           
    8868 A    9226 TIP4 BD1  LP0     -1.358200        0.0000           
    8869 A    9227 TIP4 O1   OW0      0.000000       15.9990           
    8870 A    9227 TIP4 H1   HW0      0.679100        1.0080           
    8871 A    9227 TIP4 H2   HW0      0.679100        1.0080           
    8872 A    9227 TIP4 BD1  LP0     -1.358200        0.0000           
    8873 A    9228 TIP4 O1   OW0      0.000000       15.9990           
    8874 A    9228 TIP4 H1   HW0      0.679100        1.0080           
    8875 A    9228 TIP4 H2   HW0      0.679100        1.0080           
    8876 A    9228 TIP4 BD1  LP0     -1.358200        0.0000           
    8877 A    9229 TIP4 O1   OW0      0.000000       15.9990           
    8878 A    9229 TIP4 H1   HW0      0.679100        1.0080           
    8879 A    9229 TIP4 H2   HW0      0.679100        1.0080           
    8880 A    9229 TIP4 BD1  LP0     -1.358200        0.0000           
    8881 A    9230 TIP4 O1   OW0      0.000000       15.9990           
    8882 A    9230 TIP4 H1   HW0      0.679100        1.0080           
    8883 A    9230 TIP4 H2   HW0      0.679100        1.0080           
    8884 A    9230 TIP4 BD1  LP0     -1.358200        0.0000           
    8885 A    9231 TIP4 O1   OW0      0.000000       15.9990           
    8886 A    9231 TIP4 H1   HW0      0.679100        1.0080           
    8887 A    9231 TIP4 H2   HW0      0.679100        1.0080           
    8888 A    9231 TIP4 BD1  LP0     -1.358200        0.0000           
    8889 A    9232 TIP4 O1   OW0      0.000000       15.9990           
    8890 A    9232 TIP4 H1   HW0      0.679100        1.0080           
    8891 A    9232 TIP4 H2   HW0      0.679100        1.0080           
    8892 A    9232 TIP4 BD1  LP0     -1.358200        0.0000           
    8893 A    9233 TIP4 O1   OW0      0.000000       15.9990           
    8894 A    9233 TIP4 H1   HW0      0.679100        1.0080           
    8895 A    9233 TIP4 H2   HW0      0.679100        1.0080           
    8896 A    9233 TIP4 BD1  LP0     -1.358200        0.0000           
    8897 A    9234 TIP4 O1   OW0      0.000000       15.9990           
    8898 A    9234 TIP4 H1   HW0      0.679100        1.0080           
    8899 A    9234 TIP4 H2   HW0      0.679100        1.0080           
    8900 A    9234 TIP4 BD1  LP0     -1.358200        0.0000           
    8901 A    9235 TIP4 O1   OW0      0.000000       15.9990           
    8902 A    9235 TIP4 H1   HW0      0.679100        1.0080           
    8903 A    9235 TIP4 H2   HW0      0.679100        1.0080           
    8904 A    9235 TIP4 BD1  LP0     -1.358200        0.0000           
    8905 A    9236 TIP4 O1   OW0      0.000000       15.9990           
    8906 A    9236 TIP4 H1   HW0      0.679100        1.0080           
    8907 A    9236 TIP4 H2   HW0      0.679100        1.0080           
    8908 A    9236 TIP4 BD1  LP0     -1.358200        0.0000           
    8909 A    9237 TIP4 O1   OW0      0.000000       15.9990           
    8910 A    9237 TIP4 H1   HW0      0.679100        1.0080           
    8911 A    9237 TIP4 H2   HW0      0.679100        1.0080           
    8912 A    9237 TIP4 BD1  LP0     -1.358200        0.0000           
    8913 A    9238 TIP4 O1   OW0      0.000000       15.9990           
    8914 A    9238 TIP4 H1   HW0      0.679100        1.0080           
    8915 A    9238 TIP4 H2   HW0      0.679100        1.0080           
    8916 A    9238 TIP4 BD1  LP0     -1.358200        0.0000           
    8917 A    9239 TIP4 O1   OW0      0.000000       15.9990           
    8918 A    9239 TIP4 H1   HW0      0.679100        1.0080           
    8919 A    9239 TIP4 H2   HW0      0.679100        1.0080           
    8920 A    9239 TIP4 BD1  LP0     -1.358200        0.0000           
    8921 A    9240 TIP4 O1   OW0      0.000000       15.9990           
    8922 A    9240 TIP4 H1   HW0      0.679100        1.0080           
    8923 A    9240 TIP4 H2   HW0      0.679100        1.0080           
    8924 A    9240 TIP4 BD1  LP0     -1.358200        0.0000           
    8925 A    9241 TIP4 O1   OW0      0.000000       15.9990           
    8926 A    9241 TIP4 H1   HW0      0.679100        1.0080           
    8927 A    9241 TIP4 H2   HW0      0.679100        1.0080           
    8928 A    9241 TIP4 BD1  LP0     -1.358200        0.0000           
    8929 A    9242 TIP4 O1   OW0      0.000000       15.9990           
    8930 A    9242 TIP4 H1   HW0      0.679100        1.0080           
    8931 A    9242 TIP4 H2   HW0      0.679100        1.0080           
    8932 A    9242 TIP4 BD1  LP0     -1.358200        0.0000           
    8933 A    9243 TIP4 O1   OW0      0.000000       15.9990           
    8934 A    9243 TIP4 H1   HW0      0.679100        1.0080           
    8935 A    9243 TIP4 H2   HW0      0.679100        1.0080           
    8936 A    9243 TIP4 BD1  LP0     -1.358200        0.0000           
    8937 A    9244 TIP4 O1   OW0      0.000000       15.9990           
    8938 A    9244 TIP4 H1   HW0      0.679100        1.0080           
    8939 A    9244 TIP4 H2   HW0      0.679100        1.0080           
    8940 A    9244 TIP4 BD1  LP0     -1.358200        0.0000           
    8941 A    9245 TIP4 O1   OW0      0.000000       15.9990           
    8942 A    9245 TIP4 H1   HW0      0.679100        1.0080           
    8943 A    9245 TIP4 H2   HW0      0.679100        1.0080           
    8944 A    9245 TIP4 BD1  LP0     -1.358200        0.0000           
    8945 A    9246 TIP4 O1   OW0      0.000000       15.9990           
    8946 A    9246 TIP4 H1   HW0      0.679100        1.0080           
    8947 A    9246 TIP4 H2   HW0      0.679100        1.0080           
    8948 A    9246 TIP4 BD1  LP0     -1.358200        0.0000           
    8949 A    9247 TIP4 O1   OW0      0.000000       15.9990           
    8950 A    9247 TIP4 H1   HW0      0.679100        1.0080           
    8951 A    9247 TIP4 H2   HW0      0.679100        1.0080           
    8952 A    9247 TIP4 BD1  LP0     -1.358200        0.0000           
    8953 A    9248 TIP4 O1   OW0      0.000000       15.9990           
    8954 A    9248 TIP4 H1   HW0      0.679100        1.0080           
    8955 A    9248 TIP4 H2   HW0      0.679100        1.0080           
    8956 A    9248 TIP4 BD1  LP0     -1.358200        0.0000           
    8957 A    9249 TIP4 O1   OW0      0.000000       15.9990           
    8958 A    9249 TIP4 H1   HW0      0.679100        1.0080           
    8959 A    9249 TIP4 H2   HW0      0.679100        1.0080           
    8960 A    9249 TIP4 BD1  LP0     -1.358200        0.0000           
    8961 A    9250 TIP4 O1   OW0      0.000000       15.9990           
    8962 A    9250 TIP4 H1   HW0      0.679100        1.0080           
    8963 A    9250 TIP4 H2   HW0      0.679100        1.0080           
    8964 A    9250 TIP4 BD1  LP0     -1.358200        0.0000           
    8965 A    9251 TIP4 O1   OW0      0.000000       15.9990           
    8966 A    9251 TIP4 H1   HW0      0.679100        1.0080           
    8967 A    9251 TIP4 H2   HW0      0.679100        1.0080           
    8968 A    9251 TIP4 BD1  LP0     -1.358200        0.0000           
    8969 A    9252 TIP4 O1   OW0      0.000000       15.9990           
    8970 A    9252 TIP4 H1   HW0      0.679100        1.0080           
    8971 A    9252 TIP4 H2   HW0      0.679100        1.0080           
    8972 A    9252 TIP4 BD1  LP0     -1.358200        0.0000           
    8973 A    9253 TIP4 O1   OW0      0.000000       15.9990           
    8974 A    9253 TIP4 H1   HW0      0.679100        1.0080           
    8975 A    9253 TIP4 H2   HW0      0.679100        1.0080           
    8976 A    9253 TIP4 BD1  LP0     -1.358200        0.0000           
    8977 A    9254 TIP4 O1   OW0      0.000000       15.9990           
    8978 A    9254 TIP4 H1   HW0      0.679100        1.0080           
    8979 A    9254 TIP4 H2   HW0      0.679100        1.0080           
    8980 A    9254 TIP4 BD1  LP0     -1.358200        0.0000           
    8981 A    9255 TIP4 O1   OW0      0.000000       15.9990           
    8982 A    9255 TIP4 H1   HW0      0.679100        1.0080           
    8983 A    9255 TIP4 H2   HW0      0.679100        1.0080           
    8984 A    9255 TIP4 BD1  LP0     -1.358200        0.0000           
    8985 A    9256 TIP4 O1   OW0      0.000000       15.9990           
    8986 A    9256 TIP4 H1   HW0      0.679100        1.0080           
    8987 A    9256 TIP4 H2   HW0      0.679100        1.0080           
    8988 A    9256 TIP4 BD1  LP0     -1.358200        0.0000           
    8989 A    9257 TIP4 O1   OW0      0.000000       15.9990           
    8990 A    9257 TIP4 H1   HW0      0.679100        1.0080           
    8991 A    9257 TIP4 H2   HW0      0.679100        1.0080           
    8992 A    9257 TIP4 BD1  LP0     -1.358200        0.0000           
    8993 A    9258 TIP4 O1   OW0      0.000000       15.9990           
    8994 A    9258 TIP4 H1   HW0      0.679100        1.0080           
    8995 A    9258 TIP4 H2   HW0      0.679100        1.0080           
    8996 A    9258 TIP4 BD1  LP0     -1.358200        0.0000           
    8997 A    9259 TIP4 O1   OW0      0.000000       15.9990           
    8998 A    9259 TIP4 H1   HW0      0.679100        1.0080           
    8999 A    9259 TIP4 H2   HW0      0.679100        1.0080           
    9000 A    9259 TIP4 BD1  LP0     -1.358200        0.0000           
    9001 A    9260 TIP4 O1   OW0      0.000000       15.9990           
    9002 A    9260 TIP4 H1   HW0      0.679100        1.0080           
    9003 A    9260 TIP4 H2   HW0      0.679100        1.0080           
    9004 A    9260 TIP4 BD1  LP0     -1.358200        0.0000           
    9005 A    9261 TIP4 O1   OW0      0.000000       15.9990           
    9006 A    9261 TIP4 H1   HW0      0.679100        1.0080           
    9007 A    9261 TIP4 H2   HW0      0.679100        1.0080           
    9008 A    9261 TIP4 BD1  LP0     -1.358200        0.0000           
    9009 A    9262 TIP4 O1   OW0      0.000000       15.9990           
    9010 A    9262 TIP4 H1   HW0      0.679100        1.0080           
    9011 A    9262 TIP4 H2   HW0      0.679100        1.0080           
    9012 A    9262 TIP4 BD1  LP0     -1.358200        0.0000           
    9013 A    9263 TIP4 O1   OW0      0.000000       15.9990           
    9014 A    9263 TIP4 H1   HW0      0.679100        1.0080           
    9015 A    9263 TIP4 H2   HW0      0.679100        1.0080           
    9016 A    9263 TIP4 BD1  LP0     -1.358200        0.0000           
    9017 A    9264 TIP4 O1   OW0      0.000000       15.9990           
    9018 A    9264 TIP4 H1   HW0      0.679100        1.0080           
    9019 A    9264 TIP4 H2   HW0      0.679100        1.0080           
    9020 A    9264 TIP4 BD1  LP0     -1.358200        0.0000           
    9021 A    9265 TIP4 O1   OW0      0.000000       15.9990           
    9022 A    9265 TIP4 H1   HW0      0.679100        1.0080           
    9023 A    9265 TIP4 H2   HW0      0.679100        1.0080           
    9024 A    9265 TIP4 BD1  LP0     -1.358200        0.0000           
    9025 A    9266 TIP4 O1   OW0      0.000000       15.9990           
    9026 A    9266 TIP4 H1   HW0      0.679100        1.0080           
    9027 A    9266 TIP4 H2   HW0      0.679100        1.0080           
    9028 A    9266 TIP4 BD1  LP0     -1.358200        0.0000           
    9029 A    9267 TIP4 O1   OW0      0.000000       15.9990           
    9030 A    9267 TIP4 H1   HW0      0.679100        1.0080           
    9031 A    9267 TIP4 H2   HW0      0.679100        1.0080           
    9032 A    9267 TIP4 BD1  LP0     -1.358200        0.0000           
    9033 A    9268 TIP4 O1   OW0      0.000000       15.9990           
    9034 A    9268 TIP4 H1   HW0      0.679100        1.0080           
    9035 A    9268 TIP4 H2   HW0      0.679100        1.0080           
    9036 A    9268 TIP4 BD1  LP0     -1.358200        0.0000           
    9037 A    9269 TIP4 O1   OW0      0.000000       15.9990           
    9038 A    9269 TIP4 H1   HW0      0.679100        1.0080           
    9039 A    9269 TIP4 H2   HW0      0.679100        1.0080           
    9040 A    9269 TIP4 BD1  LP0     -1.358200        0.0000           
    9041 A    9270 TIP4 O1   OW0      0.000000       15.9990           
    9042 A    9270 TIP4 H1   HW0      0.679100        1.0080           
    9043 A    9270 TIP4 H2   HW0      0.679100        1.0080           
    9044 A    9270 TIP4 BD1  LP0     -1.358200        0.0000           
    9045 A    9271 TIP4 O1   OW0      0.000000       15.9990           
    9046 A    9271 TIP4 H1   HW0      0.679100        1.0080           
    9047 A    9271 TIP4 H2   HW0      0.679100        1.0080           
    9048 A    9271 TIP4 BD1  LP0     -1.358200        0.0000           
    9049 A    9272 TIP4 O1   OW0      0.000000       15.9990           
    9050 A    9272 TIP4 H1   HW0      0.679100        1.0080           
    9051 A    9272 TIP4 H2   HW0      0.679100        1.0080           
    9052 A    9272 TIP4 BD1  LP0     -1.358200        0.0000           
    9053 A    9273 TIP4 O1   OW0      0.000000       15.9990           
    9054 A    9273 TIP4 H1   HW0      0.679100        1.0080           
    9055 A    9273 TIP4 H2   HW0      0.679100        1.0080           
    9056 A    9273 TIP4 BD1  LP0     -1.358200        0.0000           
    9057 A    9274 TIP4 O1   OW0      0.000000       15.9990           
    9058 A    9274 TIP4 H1   HW0      0.679100        1.0080           
    9059 A    9274 TIP4 H2   HW0      0.679100        1.0080           
    9060 A    9274 TIP4 BD1  LP0     -1.358200        0.0000           
    9061 A    9275 TIP4 O1   OW0      0.000000       15.9990           
    9062 A    9275 TIP4 H1   HW0      0.679100        1.0080           
    9063 A    9275 TIP4 H2   HW0      0.679100        1.0080           
    9064 A    9275 TIP4 BD1  LP0     -1.358200        0.0000           
    9065 A    9276 TIP4 O1   OW0      0.000000       15.9990           
    9066 A    9276 TIP4 H1   HW0      0.679100        1.0080           
    9067 A    9276 TIP4 H2   HW0      0.679100        1.0080           
    9068 A    9276 TIP4 BD1  LP0     -1.358200        0.0000           
    9069 A    9277 TIP4 O1   OW0      0.000000       15.9990           
    9070 A    9277 TIP4 H1   HW0      0.679100        1.0080           
    9071 A    9277 TIP4 H2   HW0      0.679100        1.0080           
    9072 A    9277 TIP4 BD1  LP0     -1.358200        0.0000           
    9073 A    9278 TIP4 O1   OW0      0.000000       15.9990           
    9074 A    9278 TIP4 H1   HW0      0.679100        1.0080           
    9075 A    9278 TIP4 H2   HW0      0.679100        1.0080           
    9076 A    9278 TIP4 BD1  LP0     -1.358200        0.0000           
    9077 A    9279 TIP4 O1   OW0      0.000000       15.9990           
    9078 A    9279 TIP4 H1   HW0      0.679100        1.0080           
    9079 A    9279 TIP4 H2   HW0      0.679100        1.0080           
    9080 A    9279 TIP4 BD1  LP0     -1.358200        0.0000           
    9081 A    9280 TIP4 O1   OW0      0.000000       15.9990           
    9082 A    9280 TIP4 H1   HW0      0.679100        1.0080           
    9083 A    9280 TIP4 H2   HW0      0.679100        1.0080           
    9084 A    9280 TIP4 BD1  LP0     -1.358200        0.0000           
    9085 A    9281 TIP4 O1   OW0      0.000000       15.9990           
    9086 A    9281 TIP4 H1   HW0      0.679100        1.0080           
    9087 A    9281 TIP4 H2   HW0      0.679100        1.0080           
    9088 A    9281 TIP4 BD1  LP0     -1.358200        0.0000           
    9089 A    9282 TIP4 O1   OW0      0.000000       15.9990           
    9090 A    9282 TIP4 H1   HW0      0.679100        1.0080           
    9091 A    9282 TIP4 H2   HW0      0.679100        1.0080           
    9092 A    9282 TIP4 BD1  LP0     -1.358200        0.0000           
    9093 A    9283 TIP4 O1   OW0      0.000000       15.9990           
    9094 A    9283 TIP4 H1   HW0      0.679100        1.0080           
    9095 A    9283 TIP4 H2   HW0      0.679100        1.0080           
    9096 A    9283 TIP4 BD1  LP0     -1.358200        0.0000           
    9097 A    9284 TIP4 O1   OW0      0.000000       15.9990           
    9098 A    9284 TIP4 H1   HW0      0.679100        1.0080           
    9099 A    9284 TIP4 H2   HW0      0.679100        1.0080           
    9100 A    9284 TIP4 BD1  LP0     -1.358200        0.0000           
    9101 A    9285 TIP4 O1   OW0      0.000000       15.9990           
    9102 A    9285 TIP4 H1   HW0      0.679100        1.0080           
    9103 A    9285 TIP4 H2   HW0      0.679100        1.0080           
    9104 A    9285 TIP4 BD1  LP0     -1.358200        0.0000           
    9105 A    9286 TIP4 O1   OW0      0.000000       15.9990           
    9106 A    9286 TIP4 H1   HW0      0.679100        1.0080           
    9107 A    9286 TIP4 H2   HW0      0.679100        1.0080           
    9108 A    9286 TIP4 BD1  LP0     -1.358200        0.0000           
    9109 A    9287 TIP4 O1   OW0      0.000000       15.9990           
    9110 A    9287 TIP4 H1   HW0      0.679100        1.0080           
    9111 A    9287 TIP4 H2   HW0      0.679100        1.0080           
    9112 A    9287 TIP4 BD1  LP0     -1.358200        0.0000           
    9113 A    9288 TIP4 O1   OW0      0.000000       15.9990           
    9114 A    9288 TIP4 H1   HW0      0.679100        1.0080           
    9115 A    9288 TIP4 H2   HW0      0.679100        1.0080           
    9116 A    9288 TIP4 BD1  LP0     -1.358200        0.0000           
    9117 A    9289 TIP4 O1   OW0      0.000000       15.9990           
    9118 A    9289 TIP4 H1   HW0      0.679100        1.0080           
    9119 A    9289 TIP4 H2   HW0      0.679100        1.0080           
    9120 A    9289 TIP4 BD1  LP0     -1.358200        0.0000           
    9121 A    9290 TIP4 O1   OW0      0.000000       15.9990           
    9122 A    9290 TIP4 H1   HW0      0.679100        1.0080           
    9123 A    9290 TIP4 H2   HW0      0.679100        1.0080           
    9124 A    9290 TIP4 BD1  LP0     -1.358200        0.0000           
    9125 A    9291 TIP4 O1   OW0      0.000000       15.9990           
    9126 A    9291 TIP4 H1   HW0      0.679100        1.0080           
    9127 A    9291 TIP4 H2   HW0      0.679100        1.0080           
    9128 A    9291 TIP4 BD1  LP0     -1.358200        0.0000           
    9129 A    9292 TIP4 O1   OW0      0.000000       15.9990           
    9130 A    9292 TIP4 H1   HW0      0.679100        1.0080           
    9131 A    9292 TIP4 H2   HW0      0.679100        1.0080           
    9132 A    9292 TIP4 BD1  LP0     -1.358200        0.0000           
    9133 A    9293 TIP4 O1   OW0      0.000000       15.9990           
    9134 A    9293 TIP4 H1   HW0      0.679100        1.0080           
    9135 A    9293 TIP4 H2   HW0      0.679100        1.0080           
    9136 A    9293 TIP4 BD1  LP0     -1.358200        0.0000           
    9137 A    9294 TIP4 O1   OW0      0.000000       15.9990           
    9138 A    9294 TIP4 H1   HW0      0.679100        1.0080           
    9139 A    9294 TIP4 H2   HW0      0.679100        1.0080           
    9140 A    9294 TIP4 BD1  LP0     -1.358200        0.0000           
    9141 A    9295 TIP4 O1   OW0      0.000000       15.9990           
    9142 A    9295 TIP4 H1   HW0      0.679100        1.0080           
    9143 A    9295 TIP4 H2   HW0      0.679100        1.0080           
    9144 A    9295 TIP4 BD1  LP0     -1.358200        0.0000           
    9145 A    9296 TIP4 O1   OW0      0.000000       15.9990           
    9146 A    9296 TIP4 H1   HW0      0.679100        1.0080           
    9147 A    9296 TIP4 H2   HW0      0.679100        1.0080           
    9148 A    9296 TIP4 BD1  LP0     -1.358200        0.0000           
    9149 A    9297 TIP4 O1   OW0      0.000000       15.9990           
    9150 A    9297 TIP4 H1   HW0      0.679100        1.0080           
    9151 A    9297 TIP4 H2   HW0      0.679100        1.0080           
    9152 A    9297 TIP4 BD1  LP0     -1.358200        0.0000           
    9153 A    9298 TIP4 O1   OW0      0.000000       15.9990           
    9154 A    9298 TIP4 H1   HW0      0.679100        1.0080           
    9155 A    9298 TIP4 H2   HW0      0.679100        1.0080           
    9156 A    9298 TIP4 BD1  LP0     -1.358200        0.0000           
    9157 A    9299 TIP4 O1   OW0      0.000000       15.9990           
    9158 A    9299 TIP4 H1   HW0      0.679100        1.0080           
    9159 A    9299 TIP4 H2   HW0      0.679100        1.0080           
    9160 A    9299 TIP4 BD1  LP0     -1.358200        0.0000           
    9161 A    9300 TIP4 O1   OW0      0.000000       15.9990           
    9162 A    9300 TIP4 H1   HW0      0.679100        1.0080           
    9163 A    9300 TIP4 H2   HW0      0.679100        1.0080           
    9164 A    9300 TIP4 BD1  LP0     -1.358200        0.0000           
    9165 A    9301 TIP4 O1   OW0      0.000000       15.9990           
    9166 A    9301 TIP4 H1   HW0      0.679100        1.0080           
    9167 A    9301 TIP4 H2   HW0      0.679100        1.0080           
    9168 A    9301 TIP4 BD1  LP0     -1.358200        0.0000           
    9169 A    9302 TIP4 O1   OW0      0.000000       15.9990           
    9170 A    9302 TIP4 H1   HW0      0.679100        1.0080           
    9171 A    9302 TIP4 H2   HW0      0.679100        1.0080           
    9172 A    9302 TIP4 BD1  LP0     -1.358200        0.0000           
    9173 A    9303 TIP4 O1   OW0      0.000000       15.9990           
    9174 A    9303 TIP4 H1   HW0      0.679100        1.0080           
    9175 A    9303 TIP4 H2   HW0      0.679100        1.0080           
    9176 A    9303 TIP4 BD1  LP0     -1.358200        0.0000           
    9177 A    9304 TIP4 O1   OW0      0.000000       15.9990           
    9178 A    9304 TIP4 H1   HW0      0.679100        1.0080           
    9179 A    9304 TIP4 H2   HW0      0.679100        1.0080           
    9180 A    9304 TIP4 BD1  LP0     -1.358200        0.0000           
    9181 A    9305 TIP4 O1   OW0      0.000000       15.9990           
    9182 A    9305 TIP4 H1   HW0      0.679100        1.0080           
    9183 A    9305 TIP4 H2   HW0      0.679100        1.0080           
    9184 A    9305 TIP4 BD1  LP0     -1.358200        0.0000           
    9185 A    9306 TIP4 O1   OW0      0.000000       15.9990           
    9186 A    9306 TIP4 H1   HW0      0.679100        1.0080           
    9187 A    9306 TIP4 H2   HW0      0.679100        1.0080           
    9188 A    9306 TIP4 BD1  LP0     -1.358200        0.0000           
    9189 A    9307 TIP4 O1   OW0      0.000000       15.9990           
    9190 A    9307 TIP4 H1   HW0      0.679100        1.0080           
    9191 A    9307 TIP4 H2   HW0      0.679100        1.0080           
    9192 A    9307 TIP4 BD1  LP0     -1.358200        0.0000           
    9193 A    9308 TIP4 O1   OW0      0.000000       15.9990           
    9194 A    9308 TIP4 H1   HW0      0.679100        1.0080           
    9195 A    9308 TIP4 H2   HW0      0.679100        1.0080           
    9196 A    9308 TIP4 BD1  LP0     -1.358200        0.0000           
    9197 A    9309 TIP4 O1   OW0      0.000000       15.9990           
    9198 A    9309 TIP4 H1   HW0      0.679100        1.0080           
    9199 A    9309 TIP4 H2   HW0      0.679100        1.0080           
    9200 A    9309 TIP4 BD1  LP0     -1.358200        0.0000           
    9201 A    9310 TIP4 O1   OW0      0.000000       15.9990           
    9202 A    9310 TIP4 H1   HW0      0.679100        1.0080           
    9203 A    9310 TIP4 H2   HW0      0.679100        1.0080           
    9204 A    9310 TIP4 BD1  LP0     -1.358200        0.0000           
    9205 A    9311 TIP4 O1   OW0      0.000000       15.9990           
    9206 A    9311 TIP4 H1   HW0      0.679100        1.0080           
    9207 A    9311 TIP4 H2   HW0      0.679100        1.0080           
    9208 A    9311 TIP4 BD1  LP0     -1.358200        0.0000           
    9209 A    9312 TIP4 O1   OW0      0.000000       15.9990           
    9210 A    9312 TIP4 H1   HW0      0.679100        1.0080           
    9211 A    9312 TIP4 H2   HW0      0.679100        1.0080           
    9212 A    9312 TIP4 BD1  LP0     -1.358200        0.0000           
    9213 A    9313 TIP4 O1   OW0      0.000000       15.9990           
    9214 A    9313 TIP4 H1   HW0      0.679100        1.0080           
    9215 A    9313 TIP4 H2   HW0      0.679100        1.0080           
    9216 A    9313 TIP4 BD1  LP0     -1.358200        0.0000           
    9217 A    9314 TIP4 O1   OW0      0.000000       15.9990           
    9218 A    9314 TIP4 H1   HW0      0.679100        1.0080           
    9219 A    9314 TIP4 H2   HW0      0.679100        1.0080           
    9220 A    9314 TIP4 BD1  LP0     -1.358200        0.0000           
    9221 A    9315 TIP4 O1   OW0      0.000000       15.9990           
    9222 A    9315 TIP4 H1   HW0      0.679100        1.0080           
    9223 A    9315 TIP4 H2   HW0      0.679100        1.0080           
    9224 A    9315 TIP4 BD1  LP0     -1.358200        0.0000           
    9225 A    9316 TIP4 O1   OW0      0.000000       15.9990           
    9226 A    9316 TIP4 H1   HW0      0.679100        1.0080           
    9227 A    9316 TIP4 H2   HW0      0.679100        1.0080           
    9228 A    9316 TIP4 BD1  LP0     -1.358200        0.0000           
    9229 A    9317 TIP4 O1   OW0      0.000000       15.9990           
    9230 A    9317 TIP4 H1   HW0      0.679100        1.0080           
    9231 A    9317 TIP4 H2   HW0      0.679100        1.0080           
    9232 A    9317 TIP4 BD1  LP0     -1.358200        0.0000           
    9233 A    9318 TIP4 O1   OW0      0.000000       15.9990           
    9234 A    9318 TIP4 H1   HW0      0.679100        1.0080           
    9235 A    9318 TIP4 H2   HW0      0.679100        1.0080           
    9236 A    9318 TIP4 BD1  LP0     -1.358200        0.0000           
    9237 A    9319 TIP4 O1   OW0      0.000000       15.9990           
    9238 A    9319 TIP4 H1   HW0      0.679100        1.0080           
    9239 A    9319 TIP4 H2   HW0      0.679100        1.0080           
    9240 A    9319 TIP4 BD1  LP0     -1.358200        0.0000           
    9241 A    9320 TIP4 O1   OW0      0.000000       15.9990           
    9242 A    9320 TIP4 H1   HW0      0.679100        1.0080           
    9243 A    9320 TIP4 H2   HW0      0.679100        1.0080           
    9244 A    9320 TIP4 BD1  LP0     -1.358200        0.0000           
    9245 A    9321 TIP4 O1   OW0      0.000000       15.9990           
    9246 A    9321 TIP4 H1   HW0      0.679100        1.0080           
    9247 A    9321 TIP4 H2   HW0      0.679100        1.0080           
    9248 A    9321 TIP4 BD1  LP0     -1.358200        0.0000           
    9249 A    9322 TIP4 O1   OW0      0.000000       15.9990           
    9250 A    9322 TIP4 H1   HW0      0.679100        1.0080           
    9251 A    9322 TIP4 H2   HW0      0.679100        1.0080           
    9252 A    9322 TIP4 BD1  LP0     -1.358200        0.0000           
    9253 A    9323 TIP4 O1   OW0      0.000000       15.9990           
    9254 A    9323 TIP4 H1   HW0      0.679100        1.0080           
    9255 A    9323 TIP4 H2   HW0      0.679100        1.0080           
    9256 A    9323 TIP4 BD1  LP0     -1.358200        0.0000           
    9257 A    9324 TIP4 O1   OW0      0.000000       15.9990           
    9258 A    9324 TIP4 H1   HW0      0.679100        1.0080           
    9259 A    9324 TIP4 H2   HW0      0.679100        1.0080           
    9260 A    9324 TIP4 BD1  LP0     -1.358200        0.0000           
    9261 A    9325 TIP4 O1   OW0      0.000000       15.9990           
    9262 A    9325 TIP4 H1   HW0      0.679100        1.0080           
    9263 A    9325 TIP4 H2   HW0      0.679100        1.0080           
    9264 A    9325 TIP4 BD1  LP0     -1.358200        0.0000           
    9265 A    9326 TIP4 O1   OW0      0.000000       15.9990           
    9266 A    9326 TIP4 H1   HW0      0.679100        1.0080           
    9267 A    9326 TIP4 H2   HW0      0.679100        1.0080           
    9268 A    9326 TIP4 BD1  LP0     -1.358200        0.0000           
    9269 A    9327 TIP4 O1   OW0      0.000000       15.9990           
    9270 A    9327 TIP4 H1   HW0      0.679100        1.0080           
    9271 A    9327 TIP4 H2   HW0      0.679100        1.0080           
    9272 A    9327 TIP4 BD1  LP0     -1.358200        0.0000           
    9273 A    9328 TIP4 O1   OW0      0.000000       15.9990           
    9274 A    9328 TIP4 H1   HW0      0.679100        1.0080           
    9275 A    9328 TIP4 H2   HW0      0.679100        1.0080           
    9276 A    9328 TIP4 BD1  LP0     -1.358200        0.0000           
    9277 A    9329 TIP4 O1   OW0      0.000000       15.9990           
    9278 A    9329 TIP4 H1   HW0      0.679100        1.0080           
    9279 A    9329 TIP4 H2   HW0      0.679100        1.0080           
    9280 A    9329 TIP4 BD1  LP0     -1.358200        0.0000           
    9281 A    9330 TIP4 O1   OW0      0.000000       15.9990           
    9282 A    9330 TIP4 H1   HW0      0.679100        1.0080           
    9283 A    9330 TIP4 H2   HW0      0.679100        1.0080           
    9284 A    9330 TIP4 BD1  LP0     -1.358200        0.0000           
    9285 A    9331 TIP4 O1   OW0      0.000000       15.9990           
    9286 A    9331 TIP4 H1   HW0      0.679100        1.0080           
    9287 A    9331 TIP4 H2   HW0      0.679100        1.0080           
    9288 A    9331 TIP4 BD1  LP0     -1.358200        0.0000           
    9289 A    9332 TIP4 O1   OW0      0.000000       15.9990           
    9290 A    9332 TIP4 H1   HW0      0.679100        1.0080           
    9291 A    9332 TIP4 H2   HW0      0.679100        1.0080           
    9292 A    9332 TIP4 BD1  LP0     -1.358200        0.0000           
    9293 A    9333 TIP4 O1   OW0      0.000000       15.9990           
    9294 A    9333 TIP4 H1   HW0      0.679100        1.0080           
    9295 A    9333 TIP4 H2   HW0      0.679100        1.0080           
    9296 A    9333 TIP4 BD1  LP0     -1.358200        0.0000           
    9297 A    9334 TIP4 O1   OW0      0.000000       15.9990           
    9298 A    9334 TIP4 H1   HW0      0.679100        1.0080           
    9299 A    9334 TIP4 H2   HW0      0.679100        1.0080           
    9300 A    9334 TIP4 BD1  LP0     -1.358200        0.0000           
    9301 A    9335 TIP4 O1   OW0      0.000000       15.9990           
    9302 A    9335 TIP4 H1   HW0      0.679100        1.0080           
    9303 A    9335 TIP4 H2   HW0      0.679100        1.0080           
    9304 A    9335 TIP4 BD1  LP0     -1.358200        0.0000           
    9305 A    9336 TIP4 O1   OW0      0.000000       15.9990           
    9306 A    9336 TIP4 H1   HW0      0.679100        1.0080           
    9307 A    9336 TIP4 H2   HW0      0.679100        1.0080           
    9308 A    9336 TIP4 BD1  LP0     -1.358200        0.0000           
    9309 A    9337 TIP4 O1   OW0      0.000000       15.9990           
    9310 A    9337 TIP4 H1   HW0      0.679100        1.0080           
    9311 A    9337 TIP4 H2   HW0      0.679100        1.0080           
    9312 A    9337 TIP4 BD1  LP0     -1.358200        0.0000           
    9313 A    9338 TIP4 O1   OW0      0.000000       15.9990           
    9314 A    9338 TIP4 H1   HW0      0.679100        1.0080           
    9315 A    9338 TIP4 H2   HW0      0.679100        1.0080           
    9316 A    9338 TIP4 BD1  LP0     -1.358200        0.0000           
    9317 A    9339 TIP4 O1   OW0      0.000000       15.9990           
    9318 A    9339 TIP4 H1   HW0      0.679100        1.0080           
    9319 A    9339 TIP4 H2   HW0      0.679100        1.0080           
    9320 A    9339 TIP4 BD1  LP0     -1.358200        0.0000           
    9321 A    9340 TIP4 O1   OW0      0.000000       15.9990           
    9322 A    9340 TIP4 H1   HW0      0.679100        1.0080           
    9323 A    9340 TIP4 H2   HW0      0.679100        1.0080           
    9324 A    9340 TIP4 BD1  LP0     -1.358200        0.0000           
    9325 A    9341 TIP4 O1   OW0      0.000000       15.9990           
    9326 A    9341 TIP4 H1   HW0      0.679100        1.0080           
    9327 A    9341 TIP4 H2   HW0      0.679100        1.0080           
    9328 A    9341 TIP4 BD1  LP0     -1.358200        0.0000           
    9329 A    9342 TIP4 O1   OW0      0.000000       15.9990           
    9330 A    9342 TIP4 H1   HW0      0.679100        1.0080           
    9331 A    9342 TIP4 H2   HW0      0.679100        1.0080           
    9332 A    9342 TIP4 BD1  LP0     -1.358200        0.0000           
    9333 A    9343 TIP4 O1   OW0      0.000000       15.9990           
    9334 A    9343 TIP4 H1   HW0      0.679100        1.0080           
    9335 A    9343 TIP4 H2   HW0      0.679100        1.0080           
    9336 A    9343 TIP4 BD1  LP0     -1.358200        0.0000           
    9337 A    9344 TIP4 O1   OW0      0.000000       15.9990           
    9338 A    9344 TIP4 H1   HW0      0.679100        1.0080           
    9339 A    9344 TIP4 H2   HW0      0.679100        1.0080           
    9340 A    9344 TIP4 BD1  LP0     -1.358200        0.0000           
    9341 A    9345 TIP4 O1   OW0      0.000000       15.9990           
    9342 A    9345 TIP4 H1   HW0      0.679100        1.0080           
    9343 A    9345 TIP4 H2   HW0      0.679100        1.0080           
    9344 A    9345 TIP4 BD1  LP0     -1.358200        0.0000           
    9345 A    9346 TIP4 O1   OW0      0.000000       15.9990           
    9346 A    9346 TIP4 H1   HW0      0.679100        1.0080           
    9347 A    9346 TIP4 H2   HW0      0.679100        1.0080           
    9348 A    9346 TIP4 BD1  LP0     -1.358200        0.0000           
    9349 A    9347 TIP4 O1   OW0      0.000000       15.9990           
    9350 A    9347 TIP4 H1   HW0      0.679100        1.0080           
    9351 A    9347 TIP4 H2   HW0      0.679100        1.0080           
    9352 A    9347 TIP4 BD1  LP0     -1.358200        0.0000           
    9353 A    9348 TIP4 O1   OW0      0.000000       15.9990           
    9354 A    9348 TIP4 H1   HW0      0.679100        1.0080           
    9355 A    9348 TIP4 H2   HW0      0.679100        1.0080           
    9356 A    9348 TIP4 BD1  LP0     -1.358200        0.0000           
    9357 A    9349 TIP4 O1   OW0      0.000000       15.9990           
    9358 A    9349 TIP4 H1   HW0      0.679100        1.0080           
    9359 A    9349 TIP4 H2   HW0      0.679100        1.0080           
    9360 A    9349 TIP4 BD1  LP0     -1.358200        0.0000           
    9361 A    9350 TIP4 O1   OW0      0.000000       15.9990           
    9362 A    9350 TIP4 H1   HW0      0.679100        1.0080           
    9363 A    9350 TIP4 H2   HW0      0.679100        1.0080           
    9364 A    9350 TIP4 BD1  LP0     -1.358200        0.0000           
    9365 A    9351 TIP4 O1   OW0      0.000000       15.9990           
    9366 A    9351 TIP4 H1   HW0      0.679100        1.0080           
    9367 A    9351 TIP4 H2   HW0      0.679100        1.0080           
    9368 A    9351 TIP4 BD1  LP0     -1.358200        0.0000           
    9369 A    9352 TIP4 O1   OW0      0.000000       15.9990           
    9370 A    9352 TIP4 H1   HW0      0.679100        1.0080           
    9371 A    9352 TIP4 H2   HW0      0.679100        1.0080           
    9372 A    9352 TIP4 BD1  LP0     -1.358200        0.0000           
    9373 A    9353 TIP4 O1   OW0      0.000000       15.9990           
    9374 A    9353 TIP4 H1   HW0      0.679100        1.0080           
    9375 A    9353 TIP4 H2   HW0      0.679100        1.0080           
    9376 A    9353 TIP4 BD1  LP0     -1.358200        0.0000           
    9377 A    9354 TIP4 O1   OW0      0.000000       15.9990           
    9378 A    9354 TIP4 H1   HW0      0.679100        1.0080           
    9379 A    9354 TIP4 H2   HW0      0.679100        1.0080           
    9380 A    9354 TIP4 BD1  LP0     -1.358200        0.0000           
    9381 A    9355 TIP4 O1   OW0      0.000000       15.9990           
    9382 A    9355 TIP4 H1   HW0      0.679100        1.0080           
    9383 A    9355 TIP4 H2   HW0      0.679100        1.0080           
    9384 A    9355 TIP4 BD1  LP0     -1.358200        0.0000           
    9385 A    9356 TIP4 O1   OW0      0.000000       15.9990           
    9386 A    9356 TIP4 H1   HW0      0.679100        1.0080           
    9387 A    9356 TIP4 H2   HW0      0.679100        1.0080           
    9388 A    9356 TIP4 BD1  LP0     -1.358200        0.0000           
    9389 A    9357 TIP4 O1   OW0      0.000000       15.9990           
    9390 A    9357 TIP4 H1   HW0      0.679100        1.0080           
    9391 A    9357 TIP4 H2   HW0      0.679100        1.0080           
    9392 A    9357 TIP4 BD1  LP0     -1.358200        0.0000           
    9393 A    9358 TIP4 O1   OW0      0.000000       15.9990           
    9394 A    9358 TIP4 H1   HW0      0.679100        1.0080           
    9395 A    9358 TIP4 H2   HW0      0.679100        1.0080           
    9396 A    9358 TIP4 BD1  LP0     -1.358200        0.0000           
    9397 A    9359 TIP4 O1   OW0      0.000000       15.9990           
    9398 A    9359 TIP4 H1   HW0      0.679100        1.0080           
    9399 A    9359 TIP4 H2   HW0      0.679100        1.0080           
    9400 A    9359 TIP4 BD1  LP0     -1.358200        0.0000           
    9401 A    9360 TIP4 O1   OW0      0.000000       15.9990           
    9402 A    9360 TIP4 H1   HW0      0.679100        1.0080           
    9403 A    9360 TIP4 H2   HW0      0.679100        1.0080           
    9404 A    9360 TIP4 BD1  LP0     -1.358200        0.0000           
    9405 A    9361 TIP4 O1   OW0      0.000000       15.9990           
    9406 A    9361 TIP4 H1   HW0      0.679100        1.0080           
    9407 A    9361 TIP4 H2   HW0      0.679100        1.0080           
    9408 A    9361 TIP4 BD1  LP0     -1.358200        0.0000           
    9409 A    9362 TIP4 O1   OW0      0.000000       15.9990           
    9410 A    9362 TIP4 H1   HW0      0.679100        1.0080           
    9411 A    9362 TIP4 H2   HW0      0.679100        1.0080           
    9412 A    9362 TIP4 BD1  LP0     -1.358200        0.0000           
    9413 A    9363 TIP4 O1   OW0      0.000000       15.9990           
    9414 A    9363 TIP4 H1   HW0      0.679100        1.0080           
    9415 A    9363 TIP4 H2   HW0      0.679100        1.0080           
    9416 A    9363 TIP4 BD1  LP0     -1.358200        0.0000           
    9417 A    9364 TIP4 O1   OW0      0.000000       15.9990           
    9418 A    9364 TIP4 H1   HW0      0.679100        1.0080           
    9419 A    9364 TIP4 H2   HW0      0.679100        1.0080           
    9420 A    9364 TIP4 BD1  LP0     -1.358200        0.0000           
    9421 A    9365 TIP4 O1   OW0      0.000000       15.9990           
    9422 A    9365 TIP4 H1   HW0      0.679100        1.0080           
    9423 A    9365 TIP4 H2   HW0      0.679100        1.0080           
    9424 A    9365 TIP4 BD1  LP0     -1.358200        0.0000           
    9425 A    9366 TIP4 O1   OW0      0.000000       15.9990           
    9426 A    9366 TIP4 H1   HW0      0.679100        1.0080           
    9427 A    9366 TIP4 H2   HW0      0.679100        1.0080           
    9428 A    9366 TIP4 BD1  LP0     -1.358200        0.0000           
    9429 A    9367 TIP4 O1   OW0      0.000000       15.9990           
    9430 A    9367 TIP4 H1   HW0      0.679100        1.0080           
    9431 A    9367 TIP4 H2   HW0      0.679100        1.0080           
    9432 A    9367 TIP4 BD1  LP0     -1.358200        0.0000           
    9433 A    9368 TIP4 O1   OW0      0.000000       15.9990           
    9434 A    9368 TIP4 H1   HW0      0.679100        1.0080           
    9435 A    9368 TIP4 H2   HW0      0.679100        1.0080           
    9436 A    9368 TIP4 BD1  LP0     -1.358200        0.0000           
    9437 A    9369 TIP4 O1   OW0      0.000000       15.9990           
    9438 A    9369 TIP4 H1   HW0      0.679100        1.0080           
    9439 A    9369 TIP4 H2   HW0      0.679100        1.0080           
    9440 A    9369 TIP4 BD1  LP0     -1.358200        0.0000           
    9441 A    9370 TIP4 O1   OW0      0.000000       15.9990           
    9442 A    9370 TIP4 H1   HW0      0.679100        1.0080           
    9443 A    9370 TIP4 H2   HW0      0.679100        1.0080           
    9444 A    9370 TIP4 BD1  LP0     -1.358200        0.0000           
    9445 A    9371 TIP4 O1   OW0      0.000000       15.9990           
    9446 A    9371 TIP4 H1   HW0      0.679100        1.0080           
    9447 A    9371 TIP4 H2   HW0      0.679100        1.0080           
    9448 A    9371 TIP4 BD1  LP0     -1.358200        0.0000           
    9449 A    9372 TIP4 O1   OW0      0.000000       15.9990           
    9450 A    9372 TIP4 H1   HW0      0.679100        1.0080           
    9451 A    9372 TIP4 H2   HW0      0.679100        1.0080           
    9452 A    9372 TIP4 BD1  LP0     -1.358200        0.0000           
    9453 A    9373 TIP4 O1   OW0      0.000000       15.9990           
    9454 A    9373 TIP4 H1   HW0      0.679100        1.0080           
    9455 A    9373 TIP4 H2   HW0      0.679100        1.0080           
    9456 A    9373 TIP4 BD1  LP0     -1.358200        0.0000           
    9457 A    9374 TIP4 O1   OW0      0.000000       15.9990           
    9458 A    9374 TIP4 H1   HW0      0.679100        1.0080           
    9459 A    9374 TIP4 H2   HW0      0.679100        1.0080           
    9460 A    9374 TIP4 BD1  LP0     -1.358200        0.0000           
    9461 A    9375 TIP4 O1   OW0      0.000000       15.9990           
    9462 A    9375 TIP4 H1   HW0      0.679100        1.0080           
    9463 A    9375 TIP4 H2   HW0      0.679100        1.0080           
    9464 A    9375 TIP4 BD1  LP0     -1.358200        0.0000           
    9465 A    9376 TIP4 O1   OW0      0.000000       15.9990           
    9466 A    9376 TIP4 H1   HW0      0.679100        1.0080           
    9467 A    9376 TIP4 H2   HW0      0.679100        1.0080           
    9468 A    9376 TIP4 BD1  LP0     -1.358200        0.0000           
    9469 A    9377 TIP4 O1   OW0      0.000000       15.9990           
    9470 A    9377 TIP4 H1   HW0      0.679100        1.0080           
    9471 A    9377 TIP4 H2   HW0      0.679100        1.0080           
    9472 A    9377 TIP4 BD1  LP0     -1.358200        0.0000           
    9473 A    9378 TIP4 O1   OW0      0.000000       15.9990           
    9474 A    9378 TIP4 H1   HW0      0.679100        1.0080           
    9475 A    9378 TIP4 H2   HW0      0.679100        1.0080           
    9476 A    9378 TIP4 BD1  LP0     -1.358200        0.0000           
    9477 A    9379 TIP4 O1   OW0      0.000000       15.9990           
    9478 A    9379 TIP4 H1   HW0      0.679100        1.0080           
    9479 A    9379 TIP4 H2   HW0      0.679100        1.0080           
    9480 A    9379 TIP4 BD1  LP0     -1.358200        0.0000           
    9481 A    9380 TIP4 O1   OW0      0.000000       15.9990           
    9482 A    9380 TIP4 H1   HW0      0.679100        1.0080           
    9483 A    9380 TIP4 H2   HW0      0.679100        1.0080           
    9484 A    9380 TIP4 BD1  LP0     -1.358200        0.0000           
    9485 A    9381 TIP4 O1   OW0      0.000000       15.9990           
    9486 A    9381 TIP4 H1   HW0      0.679100        1.0080           
    9487 A    9381 TIP4 H2   HW0      0.679100        1.0080           
    9488 A    9381 TIP4 BD1  LP0     -1.358200        0.0000           
    9489 A    9382 TIP4 O1   OW0      0.000000       15.9990           
    9490 A    9382 TIP4 H1   HW0      0.679100        1.0080           
    9491 A    9382 TIP4 H2   HW0      0.679100        1.0080           
    9492 A    9382 TIP4 BD1  LP0     -1.358200        0.0000           
    9493 A    9383 TIP4 O1   OW0      0.000000       15.9990           
    9494 A    9383 TIP4 H1   HW0      0.679100        1.0080           
    9495 A    9383 TIP4 H2   HW0      0.679100        1.0080           
    9496 A    9383 TIP4 BD1  LP0     -1.358200        0.0000           
    9497 A    9384 TIP4 O1   OW0      0.000000       15.9990           
    9498 A    9384 TIP4 H1   HW0      0.679100        1.0080           
    9499 A    9384 TIP4 H2   HW0      0.679100        1.0080           
    9500 A    9384 TIP4 BD1  LP0     -1.358200        0.0000           
    9501 A    9385 TIP4 O1   OW0      0.000000       15.9990           
    9502 A    9385 TIP4 H1   HW0      0.679100        1.0080           
    9503 A    9385 TIP4 H2   HW0      0.679100        1.0080           
    9504 A    9385 TIP4 BD1  LP0     -1.358200        0.0000           
    9505 A    9386 TIP4 O1   OW0      0.000000       15.9990           
    9506 A    9386 TIP4 H1   HW0      0.679100        1.0080           
    9507 A    9386 TIP4 H2   HW0      0.679100        1.0080           
    9508 A    9386 TIP4 BD1  LP0     -1.358200        0.0000           
    9509 A    9387 TIP4 O1   OW0      0.000000       15.9990           
    9510 A    9387 TIP4 H1   HW0      0.679100        1.0080           
    9511 A    9387 TIP4 H2   HW0      0.679100        1.0080           
    9512 A    9387 TIP4 BD1  LP0     -1.358200        0.0000           
    9513 A    9388 TIP4 O1   OW0      0.000000       15.9990           
    9514 A    9388 TIP4 H1   HW0      0.679100        1.0080           
    9515 A    9388 TIP4 H2   HW0      0.679100        1.0080           
    9516 A    9388 TIP4 BD1  LP0     -1.358200        0.0000           
    9517 A    9389 TIP4 O1   OW0      0.000000       15.9990           
    9518 A    9389 TIP4 H1   HW0      0.679100        1.0080           
    9519 A    9389 TIP4 H2   HW0      0.679100        1.0080           
    9520 A    9389 TIP4 BD1  LP0     -1.358200        0.0000           
    9521 A    9390 TIP4 O1   OW0      0.000000       15.9990           
    9522 A    9390 TIP4 H1   HW0      0.679100        1.0080           
    9523 A    9390 TIP4 H2   HW0      0.679100        1.0080           
    9524 A    9390 TIP4 BD1  LP0     -1.358200        0.0000           
    9525 A    9391 TIP4 O1   OW0      0.000000       15.9990           
    9526 A    9391 TIP4 H1   HW0      0.679100        1.0080           
    9527 A    9391 TIP4 H2   HW0      0.679100        1.0080           
    9528 A    9391 TIP4 BD1  LP0     -1.358200        0.0000           
    9529 A    9392 TIP4 O1   OW0      0.000000       15.9990           
    9530 A    9392 TIP4 H1   HW0      0.679100        1.0080           
    9531 A    9392 TIP4 H2   HW0      0.679100        1.0080           
    9532 A    9392 TIP4 BD1  LP0     -1.358200        0.0000           
    9533 A    9393 TIP4 O1   OW0      0.000000       15.9990           
    9534 A    9393 TIP4 H1   HW0      0.679100        1.0080           
    9535 A    9393 TIP4 H2   HW0      0.679100        1.0080           
    9536 A    9393 TIP4 BD1  LP0     -1.358200        0.0000           
    9537 A    9394 TIP4 O1   OW0      0.000000       15.9990           
    9538 A    9394 TIP4 H1   HW0      0.679100        1.0080           
    9539 A    9394 TIP4 H2   HW0      0.679100        1.0080           
    9540 A    9394 TIP4 BD1  LP0     -1.358200        0.0000           
    9541 A    9395 TIP4 O1   OW0      0.000000       15.9990           
    9542 A    9395 TIP4 H1   HW0      0.679100        1.0080           
    9543 A    9395 TIP4 H2   HW0      0.679100        1.0080           
    9544 A    9395 TIP4 BD1  LP0     -1.358200        0.0000           
    9545 A    9396 TIP4 O1   OW0      0.000000       15.9990           
    9546 A    9396 TIP4 H1   HW0      0.679100        1.0080           
    9547 A    9396 TIP4 H2   HW0      0.679100        1.0080           
    9548 A    9396 TIP4 BD1  LP0     -1.358200        0.0000           
    9549 A    9397 TIP4 O1   OW0      0.000000       15.9990           
    9550 A    9397 TIP4 H1   HW0      0.679100        1.0080           
    9551 A    9397 TIP4 H2   HW0      0.679100        1.0080           
    9552 A    9397 TIP4 BD1  LP0     -1.358200        0.0000           
    9553 A    9398 TIP4 O1   OW0      0.000000       15.9990           
    9554 A    9398 TIP4 H1   HW0      0.679100        1.0080           
    9555 A    9398 TIP4 H2   HW0      0.679100        1.0080           
    9556 A    9398 TIP4 BD1  LP0     -1.358200        0.0000           
    9557 A    9399 TIP4 O1   OW0      0.000000       15.9990           
    9558 A    9399 TIP4 H1   HW0      0.679100        1.0080           
    9559 A    9399 TIP4 H2   HW0      0.679100        1.0080           
    9560 A    9399 TIP4 BD1  LP0     -1.358200        0.0000           
    9561 A    9400 TIP4 O1   OW0      0.000000       15.9990           
    9562 A    9400 TIP4 H1   HW0      0.679100        1.0080           
    9563 A    9400 TIP4 H2   HW0      0.679100        1.0080           
    9564 A    9400 TIP4 BD1  LP0     -1.358200        0.0000           
    9565 A    9401 TIP4 O1   OW0      0.000000       15.9990           
    9566 A    9401 TIP4 H1   HW0      0.679100        1.0080           
    9567 A    9401 TIP4 H2   HW0      0.679100        1.0080           
    9568 A    9401 TIP4 BD1  LP0     -1.358200        0.0000           
    9569 A    9402 TIP4 O1   OW0      0.000000       15.9990           
    9570 A    9402 TIP4 H1   HW0      0.679100        1.0080           
    9571 A    9402 TIP4 H2   HW0      0.679100        1.0080           
    9572 A    9402 TIP4 BD1  LP0     -1.358200        0.0000           
    9573 A    9403 TIP4 O1   OW0      0.000000       15.9990           
    9574 A    9403 TIP4 H1   HW0      0.679100        1.0080           
    9575 A    9403 TIP4 H2   HW0      0.679100        1.0080           
    9576 A    9403 TIP4 BD1  LP0     -1.358200        0.0000           
    9577 A    9404 TIP4 O1   OW0      0.000000       15.9990           
    9578 A    9404 TIP4 H1   HW0      0.679100        1.0080           
    9579 A    9404 TIP4 H2   HW0      0.679100        1.0080           
    9580 A    9404 TIP4 BD1  LP0     -1.358200        0.0000           
    9581 A    9405 TIP4 O1   OW0      0.000000       15.9990           
    9582 A    9405 TIP4 H1   HW0      0.679100        1.0080           
    9583 A    9405 TIP4 H2   HW0      0.679100        1.0080           
    9584 A    9405 TIP4 BD1  LP0     -1.358200        0.0000           
    9585 A    9406 TIP4 O1   OW0      0.000000       15.9990           
    9586 A    9406 TIP4 H1   HW0      0.679100        1.0080           
    9587 A    9406 TIP4 H2   HW0      0.679100        1.0080           
    9588 A    9406 TIP4 BD1  LP0     -1.358200        0.0000           
    9589 A    9407 TIP4 O1   OW0      0.000000       15.9990           
    9590 A    9407 TIP4 H1   HW0      0.679100        1.0080           
    9591 A    9407 TIP4 H2   HW0      0.679100        1.0080           
    9592 A    9407 TIP4 BD1  LP0     -1.358200        0.0000           
    9593 A    9408 TIP4 O1   OW0      0.000000       15.9990           
    9594 A    9408 TIP4 H1   HW0      0.679100        1.0080           
    9595 A    9408 TIP4 H2   HW0      0.679100        1.0080           
    9596 A    9408 TIP4 BD1  LP0     -1.358200        0.0000           
    9597 A    9409 TIP4 O1   OW0      0.000000       15.9990           
    9598 A    9409 TIP4 H1   HW0      0.679100        1.0080           
    9599 A    9409 TIP4 H2   HW0      0.679100        1.0080           
    9600 A    9409 TIP4 BD1  LP0     -1.358200        0.0000           
    9601 A    9410 TIP4 O1   OW0      0.000000       15.9990           
    9602 A    9410 TIP4 H1   HW0      0.679100        1.0080           
    9603 A    9410 TIP4 H2   HW0      0.679100        1.0080           
    9604 A    9410 TIP4 BD1  LP0     -1.358200        0.0000           
    9605 A    9411 TIP4 O1   OW0      0.000000       15.9990           
    9606 A    9411 TIP4 H1   HW0      0.679100        1.0080           
    9607 A    9411 TIP4 H2   HW0      0.679100        1.0080           
    9608 A    9411 TIP4 BD1  LP0     -1.358200        0.0000           
    9609 A    9412 TIP4 O1   OW0      0.000000       15.9990           
    9610 A    9412 TIP4 H1   HW0      0.679100        1.0080           
    9611 A    9412 TIP4 H2   HW0      0.679100        1.0080           
    9612 A    9412 TIP4 BD1  LP0     -1.358200        0.0000           
    9613 A    9413 TIP4 O1   OW0      0.000000       15.9990           
    9614 A    9413 TIP4 H1   HW0      0.679100        1.0080           
    9615 A    9413 TIP4 H2   HW0      0.679100        1.0080           
    9616 A    9413 TIP4 BD1  LP0     -1.358200        0.0000           
    9617 A    9414 TIP4 O1   OW0      0.000000       15.9990           
    9618 A    9414 TIP4 H1   HW0      0.679100        1.0080           
    9619 A    9414 TIP4 H2   HW0      0.679100        1.0080           
    9620 A    9414 TIP4 BD1  LP0     -1.358200        0.0000           
    9621 A    9415 TIP4 O1   OW0      0.000000       15.9990           
    9622 A    9415 TIP4 H1   HW0      0.679100        1.0080           
    9623 A    9415 TIP4 H2   HW0      0.679100        1.0080           
    9624 A    9415 TIP4 BD1  LP0     -1.358200        0.0000           
    9625 A    9416 TIP4 O1   OW0      0.000000       15.9990           
    9626 A    9416 TIP4 H1   HW0      0.679100        1.0080           
    9627 A    9416 TIP4 H2   HW0      0.679100        1.0080           
    9628 A    9416 TIP4 BD1  LP0     -1.358200        0.0000           
    9629 A    9417 TIP4 O1   OW0      0.000000       15.9990           
    9630 A    9417 TIP4 H1   HW0      0.679100        1.0080           
    9631 A    9417 TIP4 H2   HW0      0.679100        1.0080           
    9632 A    9417 TIP4 BD1  LP0     -1.358200        0.0000           
    9633 A    9418 TIP4 O1   OW0      0.000000       15.9990           
    9634 A    9418 TIP4 H1   HW0      0.679100        1.0080           
    9635 A    9418 TIP4 H2   HW0      0.679100        1.0080           
    9636 A    9418 TIP4 BD1  LP0     -1.358200        0.0000           
    9637 A    9419 TIP4 O1   OW0      0.000000       15.9990           
    9638 A    9419 TIP4 H1   HW0      0.679100        1.0080           
    9639 A    9419 TIP4 H2   HW0      0.679100        1.0080           
    9640 A    9419 TIP4 BD1  LP0     -1.358200        0.0000           
    9641 A    9420 TIP4 O1   OW0      0.000000       15.9990           
    9642 A    9420 TIP4 H1   HW0      0.679100        1.0080           
    9643 A    9420 TIP4 H2   HW0      0.679100        1.0080           
    9644 A    9420 TIP4 BD1  LP0     -1.358200        0.0000           
    9645 A    9421 TIP4 O1   OW0      0.000000       15.9990           
    9646 A    9421 TIP4 H1   HW0      0.679100        1.0080           
    9647 A    9421 TIP4 H2   HW0      0.679100        1.0080           
    9648 A    9421 TIP4 BD1  LP0     -1.358200        0.0000           
    9649 A    9422 TIP4 O1   OW0      0.000000       15.9990           
    9650 A    9422 TIP4 H1   HW0      0.679100        1.0080           
    9651 A    9422 TIP4 H2   HW0      0.679100        1.0080           
    9652 A    9422 TIP4 BD1  LP0     -1.358200        0.0000           
    9653 A    9423 TIP4 O1   OW0      0.000000       15.9990           
    9654 A    9423 TIP4 H1   HW0      0.679100        1.0080           
    9655 A    9423 TIP4 H2   HW0      0.679100        1.0080           
    9656 A    9423 TIP4 BD1  LP0     -1.358200        0.0000           
    9657 A    9424 TIP4 O1   OW0      0.000000       15.9990           
    9658 A    9424 TIP4 H1   HW0      0.679100        1.0080           
    9659 A    9424 TIP4 H2   HW0      0.679100        1.0080           
    9660 A    9424 TIP4 BD1  LP0     -1.358200        0.0000           
    9661 A    9425 TIP4 O1   OW0      0.000000       15.9990           
    9662 A    9425 TIP4 H1   HW0      0.679100        1.0080           
    9663 A    9425 TIP4 H2   HW0      0.679100        1.0080           
    9664 A    9425 TIP4 BD1  LP0     -1.358200        0.0000           
    9665 A    9426 TIP4 O1   OW0      0.000000       15.9990           
    9666 A    9426 TIP4 H1   HW0      0.679100        1.0080           
    9667 A    9426 TIP4 H2   HW0      0.679100        1.0080           
    9668 A    9426 TIP4 BD1  LP0     -1.358200        0.0000           
    9669 A    9427 TIP4 O1   OW0      0.000000       15.9990           
    9670 A    9427 TIP4 H1   HW0      0.679100        1.0080           
    9671 A    9427 TIP4 H2   HW0      0.679100        1.0080           
    9672 A    9427 TIP4 BD1  LP0     -1.358200        0.0000           
    9673 A    9428 TIP4 O1   OW0      0.000000       15.9990           
    9674 A    9428 TIP4 H1   HW0      0.679100        1.0080           
    9675 A    9428 TIP4 H2   HW0      0.679100        1.0080           
    9676 A    9428 TIP4 BD1  LP0     -1.358200        0.0000           
    9677 A    9429 TIP4 O1   OW0      0.000000       15.9990           
    9678 A    9429 TIP4 H1   HW0      0.679100        1.0080           
    9679 A    9429 TIP4 H2   HW0      0.679100        1.0080           
    9680 A    9429 TIP4 BD1  LP0     -1.358200        0.0000           
    9681 A    9430 TIP4 O1   OW0      0.000000       15.9990           
    9682 A    9430 TIP4 H1   HW0      0.679100        1.0080           
    9683 A    9430 TIP4 H2   HW0      0.679100        1.0080           
    9684 A    9430 TIP4 BD1  LP0     -1.358200        0.0000           
    9685 A    9431 TIP4 O1   OW0      0.000000       15.9990           
    9686 A    9431 TIP4 H1   HW0      0.679100        1.0080           
    9687 A    9431 TIP4 H2   HW0      0.679100        1.0080           
    9688 A    9431 TIP4 BD1  LP0     -1.358200        0.0000           
    9689 A    9432 TIP4 O1   OW0      0.000000       15.9990           
    9690 A    9432 TIP4 H1   HW0      0.679100        1.0080           
    9691 A    9432 TIP4 H2   HW0      0.679100        1.0080           
    9692 A    9432 TIP4 BD1  LP0     -1.358200        0.0000           
    9693 A    9433 TIP4 O1   OW0      0.000000       15.9990           
    9694 A    9433 TIP4 H1   HW0      0.679100        1.0080           
    9695 A    9433 TIP4 H2   HW0      0.679100        1.0080           
    9696 A    9433 TIP4 BD1  LP0     -1.358200        0.0000           
    9697 A    9434 TIP4 O1   OW0      0.000000       15.9990           
    9698 A    9434 TIP4 H1   HW0      0.679100        1.0080           
    9699 A    9434 TIP4 H2   HW0      0.679100        1.0080           
    9700 A    9434 TIP4 BD1  LP0     -1.358200        0.0000           
    9701 A    9435 TIP4 O1   OW0      0.000000       15.9990           
    9702 A    9435 TIP4 H1   HW0      0.679100        1.0080           
    9703 A    9435 TIP4 H2   HW0      0.679100        1.0080           
    9704 A    9435 TIP4 BD1  LP0     -1.358200        0.0000           
    9705 A    9436 TIP4 O1   OW0      0.000000       15.9990           
    9706 A    9436 TIP4 H1   HW0      0.679100        1.0080           
    9707 A    9436 TIP4 H2   HW0      0.679100        1.0080           
    9708 A    9436 TIP4 BD1  LP0     -1.358200        0.0000           
    9709 A    9437 TIP4 O1   OW0      0.000000       15.9990           
    9710 A    9437 TIP4 H1   HW0      0.679100        1.0080           
    9711 A    9437 TIP4 H2   HW0      0.679100        1.0080           
    9712 A    9437 TIP4 BD1  LP0     -1.358200        0.0000           
    9713 A    9438 TIP4 O1   OW0      0.000000       15.9990           
    9714 A    9438 TIP4 H1   HW0      0.679100        1.0080           
    9715 A    9438 TIP4 H2   HW0      0.679100        1.0080           
    9716 A    9438 TIP4 BD1  LP0     -1.358200        0.0000           
    9717 A    9439 TIP4 O1   OW0      0.000000       15.9990           
    9718 A    9439 TIP4 H1   HW0      0.679100        1.0080           
    9719 A    9439 TIP4 H2   HW0      0.679100        1.0080           
    9720 A    9439 TIP4 BD1  LP0     -1.358200        0.0000           
    9721 A    9440 TIP4 O1   OW0      0.000000       15.9990           
    9722 A    9440 TIP4 H1   HW0      0.679100        1.0080           
    9723 A    9440 TIP4 H2   HW0      0.679100        1.0080           
    9724 A    9440 TIP4 BD1  LP0     -1.358200        0.0000           
    9725 A    9441 TIP4 O1   OW0      0.000000       15.9990           
    9726 A    9441 TIP4 H1   HW0      0.679100        1.0080           
    9727 A    9441 TIP4 H2   HW0      0.679100        1.0080           
    9728 A    9441 TIP4 BD1  LP0     -1.358200        0.0000           
    9729 A    9442 TIP4 O1   OW0      0.000000       15.9990           
    9730 A    9442 TIP4 H1   HW0      0.679100        1.0080           
    9731 A    9442 TIP4 H2   HW0      0.679100        1.0080           
    9732 A    9442 TIP4 BD1  LP0     -1.358200        0.0000           
    9733 A    9443 TIP4 O1   OW0      0.000000       15.9990           
    9734 A    9443 TIP4 H1   HW0      0.679100        1.0080           
    9735 A    9443 TIP4 H2   HW0      0.679100        1.0080           
    9736 A    9443 TIP4 BD1  LP0     -1.358200        0.0000           
    9737 A    9444 TIP4 O1   OW0      0.000000       15.9990           
    9738 A    9444 TIP4 H1   HW0      0.679100        1.0080           
    9739 A    9444 TIP4 H2   HW0      0.679100        1.0080           
    9740 A    9444 TIP4 BD1  LP0     -1.358200        0.0000           
    9741 A    9445 TIP4 O1   OW0      0.000000       15.9990           
    9742 A    9445 TIP4 H1   HW0      0.679100        1.0080           
    9743 A    9445 TIP4 H2   HW0      0.679100        1.0080           
    9744 A    9445 TIP4 BD1  LP0     -1.358200        0.0000           
    9745 A    9446 TIP4 O1   OW0      0.000000       15.9990           
    9746 A    9446 TIP4 H1   HW0      0.679100        1.0080           
    9747 A    9446 TIP4 H2   HW0      0.679100        1.0080           
    9748 A    9446 TIP4 BD1  LP0     -1.358200        0.0000           
    9749 A    9447 TIP4 O1   OW0      0.000000       15.9990           
    9750 A    9447 TIP4 H1   HW0      0.679100        1.0080           
    9751 A    9447 TIP4 H2   HW0      0.679100        1.0080           
    9752 A    9447 TIP4 BD1  LP0     -1.358200        0.0000           
    9753 A    9448 TIP4 O1   OW0      0.000000       15.9990           
    9754 A    9448 TIP4 H1   HW0      0.679100        1.0080           
    9755 A    9448 TIP4 H2   HW0      0.679100        1.0080           
    9756 A    9448 TIP4 BD1  LP0     -1.358200        0.0000           
    9757 A    9449 TIP4 O1   OW0      0.000000       15.9990           
    9758 A    9449 TIP4 H1   HW0      0.679100        1.0080           
    9759 A    9449 TIP4 H2   HW0      0.679100        1.0080           
    9760 A    9449 TIP4 BD1  LP0     -1.358200        0.0000           
    9761 A    9450 TIP4 O1   OW0      0.000000       15.9990           
    9762 A    9450 TIP4 H1   HW0      0.679100        1.0080           
    9763 A    9450 TIP4 H2   HW0      0.679100        1.0080           
    9764 A    9450 TIP4 BD1  LP0     -1.358200        0.0000           
    9765 A    9451 TIP4 O1   OW0      0.000000       15.9990           
    9766 A    9451 TIP4 H1   HW0      0.679100        1.0080           
    9767 A    9451 TIP4 H2   HW0      0.679100        1.0080           
    9768 A    9451 TIP4 BD1  LP0     -1.358200        0.0000           
    9769 A    9452 TIP4 O1   OW0      0.000000       15.9990           
    9770 A    9452 TIP4 H1   HW0      0.679100        1.0080           
    9771 A    9452 TIP4 H2   HW0      0.679100        1.0080           
    9772 A    9452 TIP4 BD1  LP0     -1.358200        0.0000           
    9773 A    9453 TIP4 O1   OW0      0.000000       15.9990           
    9774 A    9453 TIP4 H1   HW0      0.679100        1.0080           
    9775 A    9453 TIP4 H2   HW0      0.679100        1.0080           
    9776 A    9453 TIP4 BD1  LP0     -1.358200        0.0000           
    9777 A    9454 TIP4 O1   OW0      0.000000       15.9990           
    9778 A    9454 TIP4 H1   HW0      0.679100        1.0080           
    9779 A    9454 TIP4 H2   HW0      0.679100        1.0080           
    9780 A    9454 TIP4 BD1  LP0     -1.358200        0.0000           
    9781 A    9455 TIP4 O1   OW0      0.000000       15.9990           
    9782 A    9455 TIP4 H1   HW0      0.679100        1.0080           
    9783 A    9455 TIP4 H2   HW0      0.679100        1.0080           
    9784 A    9455 TIP4 BD1  LP0     -1.358200        0.0000           
    9785 A    9456 TIP4 O1   OW0      0.000000       15.9990           
    9786 A    9456 TIP4 H1   HW0      0.679100        1.0080           
    9787 A    9456 TIP4 H2   HW0      0.679100        1.0080           
    9788 A    9456 TIP4 BD1  LP0     -1.358200        0.0000           
    9789 A    9457 TIP4 O1   OW0      0.000000       15.9990           
    9790 A    9457 TIP4 H1   HW0      0.679100        1.0080           
    9791 A    9457 TIP4 H2   HW0      0.679100        1.0080           
    9792 A    9457 TIP4 BD1  LP0     -1.358200        0.0000           
    9793 A    9458 TIP4 O1   OW0      0.000000       15.9990           
    9794 A    9458 TIP4 H1   HW0      0.679100        1.0080           
    9795 A    9458 TIP4 H2   HW0      0.679100        1.0080           
    9796 A    9458 TIP4 BD1  LP0     -1.358200        0.0000           
    9797 A    9459 TIP4 O1   OW0      0.000000       15.9990           
    9798 A    9459 TIP4 H1   HW0      0.679100        1.0080           
    9799 A    9459 TIP4 H2   HW0      0.679100        1.0080           
    9800 A    9459 TIP4 BD1  LP0     -1.358200        0.0000           
    9801 A    9460 TIP4 O1   OW0      0.000000       15.9990           
    9802 A    9460 TIP4 H1   HW0      0.679100        1.0080           
    9803 A    9460 TIP4 H2   HW0      0.679100        1.0080           
    9804 A    9460 TIP4 BD1  LP0     -1.358200        0.0000           
    9805 A    9461 TIP4 O1   OW0      0.000000       15.9990           
    9806 A    9461 TIP4 H1   HW0      0.679100        1.0080           
    9807 A    9461 TIP4 H2   HW0      0.679100        1.0080           
    9808 A    9461 TIP4 BD1  LP0     -1.358200        0.0000           
    9809 A    9462 TIP4 O1   OW0      0.000000       15.9990           
    9810 A    9462 TIP4 H1   HW0      0.679100        1.0080           
    9811 A    9462 TIP4 H2   HW0      0.679100        1.0080           
    9812 A    9462 TIP4 BD1  LP0     -1.358200        0.0000           
    9813 A    9463 TIP4 O1   OW0      0.000000       15.9990           
    9814 A    9463 TIP4 H1   HW0      0.679100        1.0080           
    9815 A    9463 TIP4 H2   HW0      0.679100        1.0080           
    9816 A    9463 TIP4 BD1  LP0     -1.358200        0.0000           
    9817 A    9464 TIP4 O1   OW0      0.000000       15.9990           
    9818 A    9464 TIP4 H1   HW0      0.679100        1.0080           
    9819 A    9464 TIP4 H2   HW0      0.679100        1.0080           
    9820 A    9464 TIP4 BD1  LP0     -1.358200        0.0000           
    9821 A    9465 TIP4 O1   OW0      0.000000       15.9990           
    9822 A    9465 TIP4 H1   HW0      0.679100        1.0080           
    9823 A    9465 TIP4 H2   HW0      0.679100        1.0080           
    9824 A    9465 TIP4 BD1  LP0     -1.358200        0.0000           
    9825 A    9466 TIP4 O1   OW0      0.000000       15.9990           
    9826 A    9466 TIP4 H1   HW0      0.679100        1.0080           
    9827 A    9466 TIP4 H2   HW0      0.679100        1.0080           
    9828 A    9466 TIP4 BD1  LP0     -1.358200        0.0000           
    9829 A    9467 TIP4 O1   OW0      0.000000       15.9990           
    9830 A    9467 TIP4 H1   HW0      0.679100        1.0080           
    9831 A    9467 TIP4 H2   HW0      0.679100        1.0080           
    9832 A    9467 TIP4 BD1  LP0     -1.358200        0.0000           
    9833 A    9468 TIP4 O1   OW0      0.000000       15.9990           
    9834 A    9468 TIP4 H1   HW0      0.679100        1.0080           
    9835 A    9468 TIP4 H2   HW0      0.679100        1.0080           
    9836 A    9468 TIP4 BD1  LP0     -1.358200        0.0000           
    9837 A    9469 TIP4 O1   OW0      0.000000       15.9990           
    9838 A    9469 TIP4 H1   HW0      0.679100        1.0080           
    9839 A    9469 TIP4 H2   HW0      0.679100        1.0080           
    9840 A    9469 TIP4 BD1  LP0     -1.358200        0.0000           
    9841 A    9470 TIP4 O1   OW0      0.000000       15.9990           
    9842 A    9470 TIP4 H1   HW0      0.679100        1.0080           
    9843 A    9470 TIP4 H2   HW0      0.679100        1.0080           
    9844 A    9470 TIP4 BD1  LP0     -1.358200        0.0000           
    9845 A    9471 TIP4 O1   OW0      0.000000       15.9990           
    9846 A    9471 TIP4 H1   HW0      0.679100        1.0080           
    9847 A    9471 TIP4 H2   HW0      0.679100        1.0080           
    9848 A    9471 TIP4 BD1  LP0     -1.358200        0.0000           
    9849 A    9472 TIP4 O1   OW0      0.000000       15.9990           
    9850 A    9472 TIP4 H1   HW0      0.679100        1.0080           
    9851 A    9472 TIP4 H2   HW0      0.679100        1.0080           
    9852 A    9472 TIP4 BD1  LP0     -1.358200        0.0000           
    9853 A    9473 TIP4 O1   OW0      0.000000       15.9990           
    9854 A    9473 TIP4 H1   HW0      0.679100        1.0080           
    9855 A    9473 TIP4 H2   HW0      0.679100        1.0080           
    9856 A    9473 TIP4 BD1  LP0     -1.358200        0.0000           
    9857 A    9474 TIP4 O1   OW0      0.000000       15.9990           
    9858 A    9474 TIP4 H1   HW0      0.679100        1.0080           
    9859 A    9474 TIP4 H2   HW0      0.679100        1.0080           
    9860 A    9474 TIP4 BD1  LP0     -1.358200        0.0000           
    9861 A    9475 TIP4 O1   OW0      0.000000       15.9990           
    9862 A    9475 TIP4 H1   HW0      0.679100        1.0080           
    9863 A    9475 TIP4 H2   HW0      0.679100        1.0080           
    9864 A    9475 TIP4 BD1  LP0     -1.358200        0.0000           
    9865 A    9476 TIP4 O1   OW0      0.000000       15.9990           
    9866 A    9476 TIP4 H1   HW0      0.679100        1.0080           
    9867 A    9476 TIP4 H2   HW0      0.679100        1.0080           
    9868 A    9476 TIP4 BD1  LP0     -1.358200        0.0000           
    9869 A    9477 TIP4 O1   OW0      0.000000       15.9990           
    9870 A    9477 TIP4 H1   HW0      0.679100        1.0080           
    9871 A    9477 TIP4 H2   HW0      0.679100        1.0080           
    9872 A    9477 TIP4 BD1  LP0     -1.358200        0.0000           
    9873 A    9478 TIP4 O1   OW0      0.000000       15.9990           
    9874 A    9478 TIP4 H1   HW0      0.679100        1.0080           
    9875 A    9478 TIP4 H2   HW0      0.679100        1.0080           
    9876 A    9478 TIP4 BD1  LP0     -1.358200        0.0000           
    9877 A    9479 TIP4 O1   OW0      0.000000       15.9990           
    9878 A    9479 TIP4 H1   HW0      0.679100        1.0080           
    9879 A    9479 TIP4 H2   HW0      0.679100        1.0080           
    9880 A    9479 TIP4 BD1  LP0     -1.358200        0.0000           
    9881 A    9480 TIP4 O1   OW0      0.000000       15.9990           
    9882 A    9480 TIP4 H1   HW0      0.679100        1.0080           
    9883 A    9480 TIP4 H2   HW0      0.679100        1.0080           
    9884 A    9480 TIP4 BD1  LP0     -1.358200        0.0000           
    9885 A    9481 TIP4 O1   OW0      0.000000       15.9990           
    9886 A    9481 TIP4 H1   HW0      0.679100        1.0080           
    9887 A    9481 TIP4 H2   HW0      0.679100        1.0080           
    9888 A    9481 TIP4 BD1  LP0     -1.358200        0.0000           
    9889 A    9482 TIP4 O1   OW0      0.000000       15.9990           
    9890 A    9482 TIP4 H1   HW0      0.679100        1.0080           
    9891 A    9482 TIP4 H2   HW0      0.679100        1.0080           
    9892 A    9482 TIP4 BD1  LP0     -1.358200        0.0000           
    9893 A    9483 TIP4 O1   OW0      0.000000       15.9990           
    9894 A    9483 TIP4 H1   HW0      0.679100        1.0080           
    9895 A    9483 TIP4 H2   HW0      0.679100        1.0080           
    9896 A    9483 TIP4 BD1  LP0     -1.358200        0.0000           
    9897 A    9484 TIP4 O1   OW0      0.000000       15.9990           
    9898 A    9484 TIP4 H1   HW0      0.679100        1.0080           
    9899 A    9484 TIP4 H2   HW0      0.679100        1.0080           
    9900 A    9484 TIP4 BD1  LP0     -1.358200        0.0000           
    9901 A    9485 TIP4 O1   OW0      0.000000       15.9990           
    9902 A    9485 TIP4 H1   HW0      0.679100        1.0080           
    9903 A    9485 TIP4 H2   HW0      0.679100        1.0080           
    9904 A    9485 TIP4 BD1  LP0     -1.358200        0.0000           
    9905 A    9486 TIP4 O1   OW0      0.000000       15.9990           
    9906 A    9486 TIP4 H1   HW0      0.679100        1.0080           
    9907 A    9486 TIP4 H2   HW0      0.679100        1.0080           
    9908 A    9486 TIP4 BD1  LP0     -1.358200        0.0000           
    9909 A    9487 TIP4 O1   OW0      0.000000       15.9990           
    9910 A    9487 TIP4 H1   HW0      0.679100        1.0080           
    9911 A    9487 TIP4 H2   HW0      0.679100        1.0080           
    9912 A    9487 TIP4 BD1  LP0     -1.358200        0.0000           
    9913 A    9488 TIP4 O1   OW0      0.000000       15.9990           
    9914 A    9488 TIP4 H1   HW0      0.679100        1.0080           
    9915 A    9488 TIP4 H2   HW0      0.679100        1.0080           
    9916 A    9488 TIP4 BD1  LP0     -1.358200        0.0000           
    9917 A    9489 TIP4 O1   OW0      0.000000       15.9990           
    9918 A    9489 TIP4 H1   HW0      0.679100        1.0080           
    9919 A    9489 TIP4 H2   HW0      0.679100        1.0080           
    9920 A    9489 TIP4 BD1  LP0     -1.358200        0.0000           
    9921 A    9490 TIP4 O1   OW0      0.000000       15.9990           
    9922 A    9490 TIP4 H1   HW0      0.679100        1.0080           
    9923 A    9490 TIP4 H2   HW0      0.679100        1.0080           
    9924 A    9490 TIP4 BD1  LP0     -1.358200        0.0000           
    9925 A    9491 TIP4 O1   OW0      0.000000       15.9990           
    9926 A    9491 TIP4 H1   HW0      0.679100        1.0080           
    9927 A    9491 TIP4 H2   HW0      0.679100        1.0080           
    9928 A    9491 TIP4 BD1  LP0     -1.358200        0.0000           
    9929 A    9492 TIP4 O1   OW0      0.000000       15.9990           
    9930 A    9492 TIP4 H1   HW0      0.679100        1.0080           
    9931 A    9492 TIP4 H2   HW0      0.679100        1.0080           
    9932 A    9492 TIP4 BD1  LP0     -1.358200        0.0000           
    9933 A    9493 TIP4 O1   OW0      0.000000       15.9990           
    9934 A    9493 TIP4 H1   HW0      0.679100        1.0080           
    9935 A    9493 TIP4 H2   HW0      0.679100        1.0080           
    9936 A    9493 TIP4 BD1  LP0     -1.358200        0.0000           
    9937 A    9494 TIP4 O1   OW0      0.000000       15.9990           
    9938 A    9494 TIP4 H1   HW0      0.679100        1.0080           
    9939 A    9494 TIP4 H2   HW0      0.679100        1.0080           
    9940 A    9494 TIP4 BD1  LP0     -1.358200        0.0000           
    9941 A    9495 TIP4 O1   OW0      0.000000       15.9990           
    9942 A    9495 TIP4 H1   HW0      0.679100        1.0080           
    9943 A    9495 TIP4 H2   HW0      0.679100        1.0080           
    9944 A    9495 TIP4 BD1  LP0     -1.358200        0.0000           
    9945 A    9496 TIP4 O1   OW0      0.000000       15.9990           
    9946 A    9496 TIP4 H1   HW0      0.679100        1.0080           
    9947 A    9496 TIP4 H2   HW0      0.679100        1.0080           
    9948 A    9496 TIP4 BD1  LP0     -1.358200        0.0000           
    9949 A    9497 TIP4 O1   OW0      0.000000       15.9990           
    9950 A    9497 TIP4 H1   HW0      0.679100        1.0080           
    9951 A    9497 TIP4 H2   HW0      0.679100        1.0080           
    9952 A    9497 TIP4 BD1  LP0     -1.358200        0.0000           
    9953 A    9498 TIP4 O1   OW0      0.000000       15.9990           
    9954 A    9498 TIP4 H1   HW0      0.679100        1.0080           
    9955 A    9498 TIP4 H2   HW0      0.679100        1.0080           
    9956 A    9498 TIP4 BD1  LP0     -1.358200        0.0000           
    9957 A    9499 TIP4 O1   OW0      0.000000       15.9990           
    9958 A    9499 TIP4 H1   HW0      0.679100        1.0080           
    9959 A    9499 TIP4 H2   HW0      0.679100        1.0080           
    9960 A    9499 TIP4 BD1  LP0     -1.358200        0.0000           
    9961 A    9500 TIP4 O1   OW0      0.000000       15.9990           
    9962 A    9500 TIP4 H1   HW0      0.679100        1.0080           
    9963 A    9500 TIP4 H2   HW0      0.679100        1.0080           
    9964 A    9500 TIP4 BD1  LP0     -1.358200        0.0000           
    9965 A    9501 TIP4 O1   OW0      0.000000       15.9990           
    9966 A    9501 TIP4 H1   HW0      0.679100        1.0080           
    9967 A    9501 TIP4 H2   HW0      0.679100        1.0080           
    9968 A    9501 TIP4 BD1  LP0     -1.358200        0.0000           
    9969 A    9502 TIP4 O1   OW0      0.000000       15.9990           
    9970 A    9502 TIP4 H1   HW0      0.679100        1.0080           
    9971 A    9502 TIP4 H2   HW0      0.679100        1.0080           
    9972 A    9502 TIP4 BD1  LP0     -1.358200        0.0000           
    9973 A    9503 TIP4 O1   OW0      0.000000       15.9990           
    9974 A    9503 TIP4 H1   HW0      0.679100        1.0080           
    9975 A    9503 TIP4 H2   HW0      0.679100        1.0080           
    9976 A    9503 TIP4 BD1  LP0     -1.358200        0.0000           
    9977 A    9504 TIP4 O1   OW0      0.000000       15.9990           
    9978 A    9504 TIP4 H1   HW0      0.679100        1.0080           
    9979 A    9504 TIP4 H2   HW0      0.679100        1.0080           
    9980 A    9504 TIP4 BD1  LP0     -1.358200        0.0000           
    9981 A    9505 TIP4 O1   OW0      0.000000       15.9990           
    9982 A    9505 TIP4 H1   HW0      0.679100        1.0080           
    9983 A    9505 TIP4 H2   HW0      0.679100        1.0080           
    9984 A    9505 TIP4 BD1  LP0     -1.358200        0.0000           
    9985 A    9506 TIP4 O1   OW0      0.000000       15.9990           
    9986 A    9506 TIP4 H1   HW0      0.679100        1.0080           
    9987 A    9506 TIP4 H2   HW0      0.679100        1.0080           
    9988 A    9506 TIP4 BD1  LP0     -1.358200        0.0000           
    9989 A    9507 TIP4 O1   OW0      0.000000       15.9990           
    9990 A    9507 TIP4 H1   HW0      0.679100        1.0080           
    9991 A    9507 TIP4 H2   HW0      0.679100        1.0080           
    9992 A    9507 TIP4 BD1  LP0     -1.358200        0.0000           
    9993 A    9508 TIP4 O1   OW0      0.000000       15.9990           
    9994 A    9508 TIP4 H1   HW0      0.679100        1.0080           
    9995 A    9508 TIP4 H2   HW0      0.679100        1.0080           
    9996 A    9508 TIP4 BD1  LP0     -1.358200        0.0000           
    9997 A    9509 TIP4 O1   OW0      0.000000       15.9990           
    9998 A    9509 TIP4 H1   HW0      0.679100        1.0080           
    9999 A    9509 TIP4 H2   HW0      0.679100        1.0080           
   10000 A    9509 TIP4 BD1  LP0     -1.358200        0.0000           
   10001 A    9510 TIP4 O1   OW0      0.000000       15.9990           
   10002 A    9510 TIP4 H1   HW0      0.679100        1.0080           
   10003 A    9510 TIP4 H2   HW0      0.679100        1.0080           
   10004 A    9510 TIP4 BD1  LP0     -1.358200        0.0000           
   10005 A    9511 TIP4 O1   OW0      0.000000       15.9990           
   10006 A    9511 TIP4 H1   HW0      0.679100        1.0080           
   10007 A    9511 TIP4 H2   HW0      0.679100        1.0080           
   10008 A    9511 TIP4 BD1  LP0     -1.358200        0.0000           
   10009 A    9512 TIP4 O1   OW0      0.000000       15.9990           
   10010 A    9512 TIP4 H1   HW0      0.679100        1.0080           
   10011 A    9512 TIP4 H2   HW0      0.679100        1.0080           
   10012 A    9512 TIP4 BD1  LP0     -1.358200        0.0000           
   10013 A    9513 TIP4 O1   OW0      0.000000       15.9990           
   10014 A    9513 TIP4 H1   HW0      0.679100        1.0080           
   10015 A    9513 TIP4 H2   HW0      0.679100        1.0080           
   10016 A    9513 TIP4 BD1  LP0     -1.358200        0.0000           
   10017 A    9514 TIP4 O1   OW0      0.000000       15.9990           
   10018 A    9514 TIP4 H1   HW0      0.679100        1.0080           
   10019 A    9514 TIP4 H2   HW0      0.679100        1.0080           
   10020 A    9514 TIP4 BD1  LP0     -1.358200        0.0000           
   10021 A    9515 TIP4 O1   OW0      0.000000       15.9990           
   10022 A    9515 TIP4 H1   HW0      0.679100        1.0080           
   10023 A    9515 TIP4 H2   HW0      0.679100        1.0080           
   10024 A    9515 TIP4 BD1  LP0     -1.358200        0.0000           
   10025 A    9516 TIP4 O1   OW0      0.000000       15.9990           
   10026 A    9516 TIP4 H1   HW0      0.679100        1.0080           
   10027 A    9516 TIP4 H2   HW0      0.679100        1.0080           
   10028 A    9516 TIP4 BD1  LP0     -1.358200        0.0000           
   10029 A    9517 TIP4 O1   OW0      0.000000       15.9990           
   10030 A    9517 TIP4 H1   HW0      0.679100        1.0080           
   10031 A    9517 TIP4 H2   HW0      0.679100        1.0080           
   10032 A    9517 TIP4 BD1  LP0     -1.358200        0.0000           
   10033 A    9518 TIP4 O1   OW0      0.000000       15.9990           
   10034 A    9518 TIP4 H1   HW0      0.679100        1.0080           
   10035 A    9518 TIP4 H2   HW0      0.679100        1.0080           
   10036 A    9518 TIP4 BD1  LP0     -1.358200        0.0000           
   10037 A    9519 TIP4 O1   OW0      0.000000       15.9990           
   10038 A    9519 TIP4 H1   HW0      0.679100        1.0080           
   10039 A    9519 TIP4 H2   HW0      0.679100        1.0080           
   10040 A    9519 TIP4 BD1  LP0     -1.358200        0.0000           
   10041 A    9520 TIP4 O1   OW0      0.000000       15.9990           
   10042 A    9520 TIP4 H1   HW0      0.679100        1.0080           
   10043 A    9520 TIP4 H2   HW0      0.679100        1.0080           
   10044 A    9520 TIP4 BD1  LP0     -1.358200        0.0000           
   10045 A    9521 TIP4 O1   OW0      0.000000       15.9990           
   10046 A    9521 TIP4 H1   HW0      0.679100        1.0080           
   10047 A    9521 TIP4 H2   HW0      0.679100        1.0080           
   10048 A    9521 TIP4 BD1  LP0     -1.358200        0.0000           
   10049 A    9522 TIP4 O1   OW0      0.000000       15.9990           
   10050 A    9522 TIP4 H1   HW0      0.679100        1.0080           
   10051 A    9522 TIP4 H2   HW0      0.679100        1.0080           
   10052 A    9522 TIP4 BD1  LP0     -1.358200        0.0000           
   10053 A    9523 TIP4 O1   OW0      0.000000       15.9990           
   10054 A    9523 TIP4 H1   HW0      0.679100        1.0080           
   10055 A    9523 TIP4 H2   HW0      0.679100        1.0080           
   10056 A    9523 TIP4 BD1  LP0     -1.358200        0.0000           
   10057 A    9524 TIP4 O1   OW0      0.000000       15.9990           
   10058 A    9524 TIP4 H1   HW0      0.679100        1.0080           
   10059 A    9524 TIP4 H2   HW0      0.679100        1.0080           
   10060 A    9524 TIP4 BD1  LP0     -1.358200        0.0000           
   10061 A    9525 TIP4 O1   OW0      0.000000       15.9990           
   10062 A    9525 TIP4 H1   HW0      0.679100        1.0080           
   10063 A    9525 TIP4 H2   HW0      0.679100        1.0080           
   10064 A    9525 TIP4 BD1  LP0     -1.358200        0.0000           
   10065 A    9526 TIP4 O1   OW0      0.000000       15.9990           
   10066 A    9526 TIP4 H1   HW0      0.679100        1.0080           
   10067 A    9526 TIP4 H2   HW0      0.679100        1.0080           
   10068 A    9526 TIP4 BD1  LP0     -1.358200        0.0000           
   10069 A    9527 TIP4 O1   OW0      0.000000       15.9990           
   10070 A    9527 TIP4 H1   HW0      0.679100        1.0080           
   10071 A    9527 TIP4 H2   HW0      0.679100        1.0080           
   10072 A    9527 TIP4 BD1  LP0     -1.358200        0.0000           
   10073 A    9528 TIP4 O1   OW0      0.000000       15.9990           
   10074 A    9528 TIP4 H1   HW0      0.679100        1.0080           
   10075 A    9528 TIP4 H2   HW0      0.679100        1.0080           
   10076 A    9528 TIP4 BD1  LP0     -1.358200        0.0000           
   10077 A    9529 TIP4 O1   OW0      0.000000       15.9990           
   10078 A    9529 TIP4 H1   HW0      0.679100        1.0080           
   10079 A    9529 TIP4 H2   HW0      0.679100        1.0080           
   10080 A    9529 TIP4 BD1  LP0     -1.358200        0.0000           
   10081 A    9530 TIP4 O1   OW0      0.000000       15.9990           
   10082 A    9530 TIP4 H1   HW0      0.679100        1.0080           
   10083 A    9530 TIP4 H2   HW0      0.679100        1.0080           
   10084 A    9530 TIP4 BD1  LP0     -1.358200        0.0000           
   10085 A    9531 TIP4 O1   OW0      0.000000       15.9990           
   10086 A    9531 TIP4 H1   HW0      0.679100        1.0080           
   10087 A    9531 TIP4 H2   HW0      0.679100        1.0080           
   10088 A    9531 TIP4 BD1  LP0     -1.358200        0.0000           
   10089 A    9532 TIP4 O1   OW0      0.000000       15.9990           
   10090 A    9532 TIP4 H1   HW0      0.679100        1.0080           
   10091 A    9532 TIP4 H2   HW0      0.679100        1.0080           
   10092 A    9532 TIP4 BD1  LP0     -1.358200        0.0000           
   10093 A    9533 TIP4 O1   OW0      0.000000       15.9990           
   10094 A    9533 TIP4 H1   HW0      0.679100        1.0080           
   10095 A    9533 TIP4 H2   HW0      0.679100        1.0080           
   10096 A    9533 TIP4 BD1  LP0     -1.358200        0.0000           
   10097 A    9534 TIP4 O1   OW0      0.000000       15.9990           
   10098 A    9534 TIP4 H1   HW0      0.679100        1.0080           
   10099 A    9534 TIP4 H2   HW0      0.679100        1.0080           
   10100 A    9534 TIP4 BD1  LP0     -1.358200        0.0000           
   10101 A    9535 TIP4 O1   OW0      0.000000       15.9990           
   10102 A    9535 TIP4 H1   HW0      0.679100        1.0080           
   10103 A    9535 TIP4 H2   HW0      0.679100        1.0080           
   10104 A    9535 TIP4 BD1  LP0     -1.358200        0.0000           
   10105 A    9536 TIP4 O1   OW0      0.000000       15.9990           
   10106 A    9536 TIP4 H1   HW0      0.679100        1.0080           
   10107 A    9536 TIP4 H2   HW0      0.679100        1.0080           
   10108 A    9536 TIP4 BD1  LP0     -1.358200        0.0000           
   10109 A    9537 TIP4 O1   OW0      0.000000       15.9990           
   10110 A    9537 TIP4 H1   HW0      0.679100        1.0080           
   10111 A    9537 TIP4 H2   HW0      0.679100        1.0080           
   10112 A    9537 TIP4 BD1  LP0     -1.358200        0.0000           
   10113 A    9538 TIP4 O1   OW0      0.000000       15.9990           
   10114 A    9538 TIP4 H1   HW0      0.679100        1.0080           
   10115 A    9538 TIP4 H2   HW0      0.679100        1.0080           
   10116 A    9538 TIP4 BD1  LP0     -1.358200        0.0000           
   10117 A    9539 TIP4 O1   OW0      0.000000       15.9990           
   10118 A    9539 TIP4 H1   HW0      0.679100        1.0080           
   10119 A    9539 TIP4 H2   HW0      0.679100        1.0080           
   10120 A    9539 TIP4 BD1  LP0     -1.358200        0.0000           
   10121 A    9540 TIP4 O1   OW0      0.000000       15.9990           
   10122 A    9540 TIP4 H1   HW0      0.679100        1.0080           
   10123 A    9540 TIP4 H2   HW0      0.679100        1.0080           
   10124 A    9540 TIP4 BD1  LP0     -1.358200        0.0000           
   10125 A    9541 TIP4 O1   OW0      0.000000       15.9990           
   10126 A    9541 TIP4 H1   HW0      0.679100        1.0080           
   10127 A    9541 TIP4 H2   HW0      0.679100        1.0080           
   10128 A    9541 TIP4 BD1  LP0     -1.358200        0.0000           
   10129 A    9542 TIP4 O1   OW0      0.000000       15.9990           
   10130 A    9542 TIP4 H1   HW0      0.679100        1.0080           
   10131 A    9542 TIP4 H2   HW0      0.679100        1.0080           
   10132 A    9542 TIP4 BD1  LP0     -1.358200        0.0000           
   10133 A    9543 TIP4 O1   OW0      0.000000       15.9990           
   10134 A    9543 TIP4 H1   HW0      0.679100        1.0080           
   10135 A    9543 TIP4 H2   HW0      0.679100        1.0080           
   10136 A    9543 TIP4 BD1  LP0     -1.358200        0.0000           
   10137 A    9544 TIP4 O1   OW0      0.000000       15.9990           
   10138 A    9544 TIP4 H1   HW0      0.679100        1.0080           
   10139 A    9544 TIP4 H2   HW0      0.679100        1.0080           
   10140 A    9544 TIP4 BD1  LP0     -1.358200        0.0000           
   10141 A    9545 TIP4 O1   OW0      0.000000       15.9990           
   10142 A    9545 TIP4 H1   HW0      0.679100        1.0080           
   10143 A    9545 TIP4 H2   HW0      0.679100        1.0080           
   10144 A    9545 TIP4 BD1  LP0     -1.358200        0.0000           
   10145 A    9546 TIP4 O1   OW0      0.000000       15.9990           
   10146 A    9546 TIP4 H1   HW0      0.679100        1.0080           
   10147 A    9546 TIP4 H2   HW0      0.679100        1.0080           
   10148 A    9546 TIP4 BD1  LP0     -1.358200        0.0000           
   10149 A    9547 TIP4 O1   OW0      0.000000       15.9990           
   10150 A    9547 TIP4 H1   HW0      0.679100        1.0080           
   10151 A    9547 TIP4 H2   HW0      0.679100        1.0080           
   10152 A    9547 TIP4 BD1  LP0     -1.358200        0.0000           
   10153 A    9548 TIP4 O1   OW0      0.000000       15.9990           
   10154 A    9548 TIP4 H1   HW0      0.679100        1.0080           
   10155 A    9548 TIP4 H2   HW0      0.679100        1.0080           
   10156 A    9548 TIP4 BD1  LP0     -1.358200        0.0000           
   10157 A    9549 TIP4 O1   OW0      0.000000       15.9990           
   10158 A    9549 TIP4 H1   HW0      0.679100        1.0080           
   10159 A    9549 TIP4 H2   HW0      0.679100        1.0080           
   10160 A    9549 TIP4 BD1  LP0     -1.358200        0.0000           
   10161 A    9550 TIP4 O1   OW0      0.000000       15.9990           
   10162 A    9550 TIP4 H1   HW0      0.679100        1.0080           
   10163 A    9550 TIP4 H2   HW0      0.679100        1.0080           
   10164 A    9550 TIP4 BD1  LP0     -1.358200        0.0000           
   10165 A    9551 TIP4 O1   OW0      0.000000       15.9990           
   10166 A    9551 TIP4 H1   HW0      0.679100        1.0080           
   10167 A    9551 TIP4 H2   HW0      0.679100        1.0080           
   10168 A    9551 TIP4 BD1  LP0     -1.358200        0.0000           
   10169 A    9552 TIP4 O1   OW0      0.000000       15.9990           
   10170 A    9552 TIP4 H1   HW0      0.679100        1.0080           
   10171 A    9552 TIP4 H2   HW0      0.679100        1.0080           
   10172 A    9552 TIP4 BD1  LP0     -1.358200        0.0000           
   10173 A    9553 TIP4 O1   OW0      0.000000       15.9990           
   10174 A    9553 TIP4 H1   HW0      0.679100        1.0080           
   10175 A    9553 TIP4 H2   HW0      0.679100        1.0080           
   10176 A    9553 TIP4 BD1  LP0     -1.358200        0.0000           
   10177 A    9554 TIP4 O1   OW0      0.000000       15.9990           
   10178 A    9554 TIP4 H1   HW0      0.679100        1.0080           
   10179 A    9554 TIP4 H2   HW0      0.679100        1.0080           
   10180 A    9554 TIP4 BD1  LP0     -1.358200        0.0000           
   10181 A    9555 TIP4 O1   OW0      0.000000       15.9990           
   10182 A    9555 TIP4 H1   HW0      0.679100        1.0080           
   10183 A    9555 TIP4 H2   HW0      0.679100        1.0080           
   10184 A    9555 TIP4 BD1  LP0     -1.358200        0.0000           
   10185 A    9556 TIP4 O1   OW0      0.000000       15.9990           
   10186 A    9556 TIP4 H1   HW0      0.679100        1.0080           
   10187 A    9556 TIP4 H2   HW0      0.679100        1.0080           
   10188 A    9556 TIP4 BD1  LP0     -1.358200        0.0000           
   10189 A    9557 TIP4 O1   OW0      0.000000       15.9990           
   10190 A    9557 TIP4 H1   HW0      0.679100        1.0080           
   10191 A    9557 TIP4 H2   HW0      0.679100        1.0080           
   10192 A    9557 TIP4 BD1  LP0     -1.358200        0.0000           
   10193 A    9558 TIP4 O1   OW0      0.000000       15.9990           
   10194 A    9558 TIP4 H1   HW0      0.679100        1.0080           
   10195 A    9558 TIP4 H2   HW0      0.679100        1.0080           
   10196 A    9558 TIP4 BD1  LP0     -1.358200        0.0000           
   10197 A    9559 TIP4 O1   OW0      0.000000       15.9990           
   10198 A    9559 TIP4 H1   HW0      0.679100        1.0080           
   10199 A    9559 TIP4 H2   HW0      0.679100        1.0080           
   10200 A    9559 TIP4 BD1  LP0     -1.358200        0.0000           
   10201 A    9560 TIP4 O1   OW0      0.000000       15.9990           
   10202 A    9560 TIP4 H1   HW0      0.679100        1.0080           
   10203 A    9560 TIP4 H2   HW0      0.679100        1.0080           
   10204 A    9560 TIP4 BD1  LP0     -1.358200        0.0000           
   10205 A    9561 TIP4 O1   OW0      0.000000       15.9990           
   10206 A    9561 TIP4 H1   HW0      0.679100        1.0080           
   10207 A    9561 TIP4 H2   HW0      0.679100        1.0080           
   10208 A    9561 TIP4 BD1  LP0     -1.358200        0.0000           
   10209 A    9562 TIP4 O1   OW0      0.000000       15.9990           
   10210 A    9562 TIP4 H1   HW0      0.679100        1.0080           
   10211 A    9562 TIP4 H2   HW0      0.679100        1.0080           
   10212 A    9562 TIP4 BD1  LP0     -1.358200        0.0000           
   10213 A    9563 TIP4 O1   OW0      0.000000       15.9990           
   10214 A    9563 TIP4 H1   HW0      0.679100        1.0080           
   10215 A    9563 TIP4 H2   HW0      0.679100        1.0080           
   10216 A    9563 TIP4 BD1  LP0     -1.358200        0.0000           
   10217 A    9564 TIP4 O1   OW0      0.000000       15.9990           
   10218 A    9564 TIP4 H1   HW0      0.679100        1.0080           
   10219 A    9564 TIP4 H2   HW0      0.679100        1.0080           
   10220 A    9564 TIP4 BD1  LP0     -1.358200        0.0000           
   10221 A    9565 TIP4 O1   OW0      0.000000       15.9990           
   10222 A    9565 TIP4 H1   HW0      0.679100        1.0080           
   10223 A    9565 TIP4 H2   HW0      0.679100        1.0080           
   10224 A    9565 TIP4 BD1  LP0     -1.358200        0.0000           
   10225 A    9566 TIP4 O1   OW0      0.000000       15.9990           
   10226 A    9566 TIP4 H1   HW0      0.679100        1.0080           
   10227 A    9566 TIP4 H2   HW0      0.679100        1.0080           
   10228 A    9566 TIP4 BD1  LP0     -1.358200        0.0000           
   10229 A    9567 TIP4 O1   OW0      0.000000       15.9990           
   10230 A    9567 TIP4 H1   HW0      0.679100        1.0080           
   10231 A    9567 TIP4 H2   HW0      0.679100        1.0080           
   10232 A    9567 TIP4 BD1  LP0     -1.358200        0.0000           
   10233 A    9568 TIP4 O1   OW0      0.000000       15.9990           
   10234 A    9568 TIP4 H1   HW0      0.679100        1.0080           
   10235 A    9568 TIP4 H2   HW0      0.679100        1.0080           
   10236 A    9568 TIP4 BD1  LP0     -1.358200        0.0000           
   10237 A    9569 TIP4 O1   OW0      0.000000       15.9990           
   10238 A    9569 TIP4 H1   HW0      0.679100        1.0080           
   10239 A    9569 TIP4 H2   HW0      0.679100        1.0080           
   10240 A    9569 TIP4 BD1  LP0     -1.358200        0.0000           
   10241 A    9570 TIP4 O1   OW0      0.000000       15.9990           
   10242 A    9570 TIP4 H1   HW0      0.679100        1.0080           
   10243 A    9570 TIP4 H2   HW0      0.679100        1.0080           
   10244 A    9570 TIP4 BD1  LP0     -1.358200        0.0000           
   10245 A    9571 TIP4 O1   OW0      0.000000       15.9990           
   10246 A    9571 TIP4 H1   HW0      0.679100        1.0080           
   10247 A    9571 TIP4 H2   HW0      0.679100        1.0080           
   10248 A    9571 TIP4 BD1  LP0     -1.358200        0.0000           
   10249 A    9572 TIP4 O1   OW0      0.000000       15.9990           
   10250 A    9572 TIP4 H1   HW0      0.679100        1.0080           
   10251 A    9572 TIP4 H2   HW0      0.679100        1.0080           
   10252 A    9572 TIP4 BD1  LP0     -1.358200        0.0000           
   10253 A    9573 TIP4 O1   OW0      0.000000       15.9990           
   10254 A    9573 TIP4 H1   HW0      0.679100        1.0080           
   10255 A    9573 TIP4 H2   HW0      0.679100        1.0080           
   10256 A    9573 TIP4 BD1  LP0     -1.358200        0.0000           
   10257 A    9574 TIP4 O1   OW0      0.000000       15.9990           
   10258 A    9574 TIP4 H1   HW0      0.679100        1.0080           
   10259 A    9574 TIP4 H2   HW0      0.679100        1.0080           
   10260 A    9574 TIP4 BD1  LP0     -1.358200        0.0000           
   10261 A    9575 TIP4 O1   OW0      0.000000       15.9990           
   10262 A    9575 TIP4 H1   HW0      0.679100        1.0080           
   10263 A    9575 TIP4 H2   HW0      0.679100        1.0080           
   10264 A    9575 TIP4 BD1  LP0     -1.358200        0.0000           
   10265 A    9576 TIP4 O1   OW0      0.000000       15.9990           
   10266 A    9576 TIP4 H1   HW0      0.679100        1.0080           
   10267 A    9576 TIP4 H2   HW0      0.679100        1.0080           
   10268 A    9576 TIP4 BD1  LP0     -1.358200        0.0000           
   10269 A    9577 TIP4 O1   OW0      0.000000       15.9990           
   10270 A    9577 TIP4 H1   HW0      0.679100        1.0080           
   10271 A    9577 TIP4 H2   HW0      0.679100        1.0080           
   10272 A    9577 TIP4 BD1  LP0     -1.358200        0.0000           
   10273 A    9578 TIP4 O1   OW0      0.000000       15.9990           
   10274 A    9578 TIP4 H1   HW0      0.679100        1.0080           
   10275 A    9578 TIP4 H2   HW0      0.679100        1.0080           
   10276 A    9578 TIP4 BD1  LP0     -1.358200        0.0000           
   10277 A    9579 TIP4 O1   OW0      0.000000       15.9990           
   10278 A    9579 TIP4 H1   HW0      0.679100        1.0080           
   10279 A    9579 TIP4 H2   HW0      0.679100        1.0080           
   10280 A    9579 TIP4 BD1  LP0     -1.358200        0.0000           
   10281 A    9580 TIP4 O1   OW0      0.000000       15.9990           
   10282 A    9580 TIP4 H1   HW0      0.679100        1.0080           
   10283 A    9580 TIP4 H2   HW0      0.679100        1.0080           
   10284 A    9580 TIP4 BD1  LP0     -1.358200        0.0000           
   10285 A    9581 TIP4 O1   OW0      0.000000       15.9990           
   10286 A    9581 TIP4 H1   HW0      0.679100        1.0080           
   10287 A    9581 TIP4 H2   HW0      0.679100        1.0080           
   10288 A    9581 TIP4 BD1  LP0     -1.358200        0.0000           
   10289 A    9582 TIP4 O1   OW0      0.000000       15.9990           
   10290 A    9582 TIP4 H1   HW0      0.679100        1.0080           
   10291 A    9582 TIP4 H2   HW0      0.679100        1.0080           
   10292 A    9582 TIP4 BD1  LP0     -1.358200        0.0000           
   10293 A    9583 TIP4 O1   OW0      0.000000       15.9990           
   10294 A    9583 TIP4 H1   HW0      0.679100        1.0080           
   10295 A    9583 TIP4 H2   HW0      0.679100        1.0080           
   10296 A    9583 TIP4 BD1  LP0     -1.358200        0.0000           
   10297 A    9584 TIP4 O1   OW0      0.000000       15.9990           
   10298 A    9584 TIP4 H1   HW0      0.679100        1.0080           
   10299 A    9584 TIP4 H2   HW0      0.679100        1.0080           
   10300 A    9584 TIP4 BD1  LP0     -1.358200        0.0000           
   10301 A    9585 TIP4 O1   OW0      0.000000       15.9990           
   10302 A    9585 TIP4 H1   HW0      0.679100        1.0080           
   10303 A    9585 TIP4 H2   HW0      0.679100        1.0080           
   10304 A    9585 TIP4 BD1  LP0     -1.358200        0.0000           
   10305 A    9586 TIP4 O1   OW0      0.000000       15.9990           
   10306 A    9586 TIP4 H1   HW0      0.679100        1.0080           
   10307 A    9586 TIP4 H2   HW0      0.679100        1.0080           
   10308 A    9586 TIP4 BD1  LP0     -1.358200        0.0000           
   10309 A    9587 TIP4 O1   OW0      0.000000       15.9990           
   10310 A    9587 TIP4 H1   HW0      0.679100        1.0080           
   10311 A    9587 TIP4 H2   HW0      0.679100        1.0080           
   10312 A    9587 TIP4 BD1  LP0     -1.358200        0.0000           
   10313 A    9588 TIP4 O1   OW0      0.000000       15.9990           
   10314 A    9588 TIP4 H1   HW0      0.679100        1.0080           
   10315 A    9588 TIP4 H2   HW0      0.679100        1.0080           
   10316 A    9588 TIP4 BD1  LP0     -1.358200        0.0000           
   10317 A    9589 TIP4 O1   OW0      0.000000       15.9990           
   10318 A    9589 TIP4 H1   HW0      0.679100        1.0080           
   10319 A    9589 TIP4 H2   HW0      0.679100        1.0080           
   10320 A    9589 TIP4 BD1  LP0     -1.358200        0.0000           
   10321 A    9590 TIP4 O1   OW0      0.000000       15.9990           
   10322 A    9590 TIP4 H1   HW0      0.679100        1.0080           
   10323 A    9590 TIP4 H2   HW0      0.679100        1.0080           
   10324 A    9590 TIP4 BD1  LP0     -1.358200        0.0000           
   10325 A    9591 TIP4 O1   OW0      0.000000       15.9990           
   10326 A    9591 TIP4 H1   HW0      0.679100        1.0080           
   10327 A    9591 TIP4 H2   HW0      0.679100        1.0080           
   10328 A    9591 TIP4 BD1  LP0     -1.358200        0.0000           
   10329 A    9592 TIP4 O1   OW0      0.000000       15.9990           
   10330 A    9592 TIP4 H1   HW0      0.679100        1.0080           
   10331 A    9592 TIP4 H2   HW0      0.679100        1.0080           
   10332 A    9592 TIP4 BD1  LP0     -1.358200        0.0000           
   10333 A    9593 TIP4 O1   OW0      0.000000       15.9990           
   10334 A    9593 TIP4 H1   HW0      0.679100        1.0080           
   10335 A    9593 TIP4 H2   HW0      0.679100        1.0080           
   10336 A    9593 TIP4 BD1  LP0     -1.358200        0.0000           
   10337 A    9594 TIP4 O1   OW0      0.000000       15.9990           
   10338 A    9594 TIP4 H1   HW0      0.679100        1.0080           
   10339 A    9594 TIP4 H2   HW0      0.679100        1.0080           
   10340 A    9594 TIP4 BD1  LP0     -1.358200        0.0000           
   10341 A    9595 TIP4 O1   OW0      0.000000       15.9990           
   10342 A    9595 TIP4 H1   HW0      0.679100        1.0080           
   10343 A    9595 TIP4 H2   HW0      0.679100        1.0080           
   10344 A    9595 TIP4 BD1  LP0     -1.358200        0.0000           
   10345 A    9596 TIP4 O1   OW0      0.000000       15.9990           
   10346 A    9596 TIP4 H1   HW0      0.679100        1.0080           
   10347 A    9596 TIP4 H2   HW0      0.679100        1.0080           
   10348 A    9596 TIP4 BD1  LP0     -1.358200        0.0000           
   10349 A    9597 TIP4 O1   OW0      0.000000       15.9990           
   10350 A    9597 TIP4 H1   HW0      0.679100        1.0080           
   10351 A    9597 TIP4 H2   HW0      0.679100        1.0080           
   10352 A    9597 TIP4 BD1  LP0     -1.358200        0.0000           
   10353 A    9598 TIP4 O1   OW0      0.000000       15.9990           
   10354 A    9598 TIP4 H1   HW0      0.679100        1.0080           
   10355 A    9598 TIP4 H2   HW0      0.679100        1.0080           
   10356 A    9598 TIP4 BD1  LP0     -1.358200        0.0000           
   10357 A    9599 TIP4 O1   OW0      0.000000       15.9990           
   10358 A    9599 TIP4 H1   HW0      0.679100        1.0080           
   10359 A    9599 TIP4 H2   HW0      0.679100        1.0080           
   10360 A    9599 TIP4 BD1  LP0     -1.358200        0.0000           
   10361 A    9600 TIP4 O1   OW0      0.000000       15.9990           
   10362 A    9600 TIP4 H1   HW0      0.679100        1.0080           
   10363 A    9600 TIP4 H2   HW0      0.679100        1.0080           
   10364 A    9600 TIP4 BD1  LP0     -1.358200        0.0000           
   10365 A    9601 TIP4 O1   OW0      0.000000       15.9990           
   10366 A    9601 TIP4 H1   HW0      0.679100        1.0080           
   10367 A    9601 TIP4 H2   HW0      0.679100        1.0080           
   10368 A    9601 TIP4 BD1  LP0     -1.358200        0.0000           
   10369 A    9602 TIP4 O1   OW0      0.000000       15.9990           
   10370 A    9602 TIP4 H1   HW0      0.679100        1.0080           
   10371 A    9602 TIP4 H2   HW0      0.679100        1.0080           
   10372 A    9602 TIP4 BD1  LP0     -1.358200        0.0000           
   10373 A    9603 TIP4 O1   OW0      0.000000       15.9990           
   10374 A    9603 TIP4 H1   HW0      0.679100        1.0080           
   10375 A    9603 TIP4 H2   HW0      0.679100        1.0080           
   10376 A    9603 TIP4 BD1  LP0     -1.358200        0.0000           
   10377 A    9604 TIP4 O1   OW0      0.000000       15.9990           
   10378 A    9604 TIP4 H1   HW0      0.679100        1.0080           
   10379 A    9604 TIP4 H2   HW0      0.679100        1.0080           
   10380 A    9604 TIP4 BD1  LP0     -1.358200        0.0000           
   10381 A    9605 TIP4 O1   OW0      0.000000       15.9990           
   10382 A    9605 TIP4 H1   HW0      0.679100        1.0080           
   10383 A    9605 TIP4 H2   HW0      0.679100        1.0080           
   10384 A    9605 TIP4 BD1  LP0     -1.358200        0.0000           
   10385 A    9606 TIP4 O1   OW0      0.000000       15.9990           
   10386 A    9606 TIP4 H1   HW0      0.679100        1.0080           
   10387 A    9606 TIP4 H2   HW0      0.679100        1.0080           
   10388 A    9606 TIP4 BD1  LP0     -1.358200        0.0000           
   10389 A    9607 TIP4 O1   OW0      0.000000       15.9990           
   10390 A    9607 TIP4 H1   HW0      0.679100        1.0080           
   10391 A    9607 TIP4 H2   HW0      0.679100        1.0080           
   10392 A    9607 TIP4 BD1  LP0     -1.358200        0.0000           
   10393 A    9608 TIP4 O1   OW0      0.000000       15.9990           
   10394 A    9608 TIP4 H1   HW0      0.679100        1.0080           
   10395 A    9608 TIP4 H2   HW0      0.679100        1.0080           
   10396 A    9608 TIP4 BD1  LP0     -1.358200        0.0000           
   10397 A    9609 TIP4 O1   OW0      0.000000       15.9990           
   10398 A    9609 TIP4 H1   HW0      0.679100        1.0080           
   10399 A    9609 TIP4 H2   HW0      0.679100        1.0080           
   10400 A    9609 TIP4 BD1  LP0     -1.358200        0.0000           
   10401 A    9610 TIP4 O1   OW0      0.000000       15.9990           
   10402 A    9610 TIP4 H1   HW0      0.679100        1.0080           
   10403 A    9610 TIP4 H2   HW0      0.679100        1.0080           
   10404 A    9610 TIP4 BD1  LP0     -1.358200        0.0000           
   10405 A    9611 TIP4 O1   OW0      0.000000       15.9990           
   10406 A    9611 TIP4 H1   HW0      0.679100        1.0080           
   10407 A    9611 TIP4 H2   HW0      0.679100        1.0080           
   10408 A    9611 TIP4 BD1  LP0     -1.358200        0.0000           
   10409 A    9612 TIP4 O1   OW0      0.000000       15.9990           
   10410 A    9612 TIP4 H1   HW0      0.679100        1.0080           
   10411 A    9612 TIP4 H2   HW0      0.679100        1.0080           
   10412 A    9612 TIP4 BD1  LP0     -1.358200        0.0000           
   10413 A    9613 TIP4 O1   OW0      0.000000       15.9990           
   10414 A    9613 TIP4 H1   HW0      0.679100        1.0080           
   10415 A    9613 TIP4 H2   HW0      0.679100        1.0080           
   10416 A    9613 TIP4 BD1  LP0     -1.358200        0.0000           
   10417 A    9614 TIP4 O1   OW0      0.000000       15.9990           
   10418 A    9614 TIP4 H1   HW0      0.679100        1.0080           
   10419 A    9614 TIP4 H2   HW0      0.679100        1.0080           
   10420 A    9614 TIP4 BD1  LP0     -1.358200        0.0000           
   10421 A    9615 TIP4 O1   OW0      0.000000       15.9990           
   10422 A    9615 TIP4 H1   HW0      0.679100        1.0080           
   10423 A    9615 TIP4 H2   HW0      0.679100        1.0080           
   10424 A    9615 TIP4 BD1  LP0     -1.358200        0.0000           
   10425 A    9616 TIP4 O1   OW0      0.000000       15.9990           
   10426 A    9616 TIP4 H1   HW0      0.679100        1.0080           
   10427 A    9616 TIP4 H2   HW0      0.679100        1.0080           
   10428 A    9616 TIP4 BD1  LP0     -1.358200        0.0000           
   10429 A    9617 TIP4 O1   OW0      0.000000       15.9990           
   10430 A    9617 TIP4 H1   HW0      0.679100        1.0080           
   10431 A    9617 TIP4 H2   HW0      0.679100        1.0080           
   10432 A    9617 TIP4 BD1  LP0     -1.358200        0.0000           
   10433 A    9618 TIP4 O1   OW0      0.000000       15.9990           
   10434 A    9618 TIP4 H1   HW0      0.679100        1.0080           
   10435 A    9618 TIP4 H2   HW0      0.679100        1.0080           
   10436 A    9618 TIP4 BD1  LP0     -1.358200        0.0000           
   10437 A    9619 TIP4 O1   OW0      0.000000       15.9990           
   10438 A    9619 TIP4 H1   HW0      0.679100        1.0080           
   10439 A    9619 TIP4 H2   HW0      0.679100        1.0080           
   10440 A    9619 TIP4 BD1  LP0     -1.358200        0.0000           
   10441 A    9620 TIP4 O1   OW0      0.000000       15.9990           
   10442 A    9620 TIP4 H1   HW0      0.679100        1.0080           
   10443 A    9620 TIP4 H2   HW0      0.679100        1.0080           
   10444 A    9620 TIP4 BD1  LP0     -1.358200        0.0000           
   10445 A    9621 TIP4 O1   OW0      0.000000       15.9990           
   10446 A    9621 TIP4 H1   HW0      0.679100        1.0080           
   10447 A    9621 TIP4 H2   HW0      0.679100        1.0080           
   10448 A    9621 TIP4 BD1  LP0     -1.358200        0.0000           
   10449 A    9622 TIP4 O1   OW0      0.000000       15.9990           
   10450 A    9622 TIP4 H1   HW0      0.679100        1.0080           
   10451 A    9622 TIP4 H2   HW0      0.679100        1.0080           
   10452 A    9622 TIP4 BD1  LP0     -1.358200        0.0000           
   10453 A    9623 TIP4 O1   OW0      0.000000       15.9990           
   10454 A    9623 TIP4 H1   HW0      0.679100        1.0080           
   10455 A    9623 TIP4 H2   HW0      0.679100        1.0080           
   10456 A    9623 TIP4 BD1  LP0     -1.358200        0.0000           
   10457 A    9624 TIP4 O1   OW0      0.000000       15.9990           
   10458 A    9624 TIP4 H1   HW0      0.679100        1.0080           
   10459 A    9624 TIP4 H2   HW0      0.679100        1.0080           
   10460 A    9624 TIP4 BD1  LP0     -1.358200        0.0000           
   10461 A    9625 TIP4 O1   OW0      0.000000       15.9990           
   10462 A    9625 TIP4 H1   HW0      0.679100        1.0080           
   10463 A    9625 TIP4 H2   HW0      0.679100        1.0080           
   10464 A    9625 TIP4 BD1  LP0     -1.358200        0.0000           
   10465 A    9626 TIP4 O1   OW0      0.000000       15.9990           
   10466 A    9626 TIP4 H1   HW0      0.679100        1.0080           
   10467 A    9626 TIP4 H2   HW0      0.679100        1.0080           
   10468 A    9626 TIP4 BD1  LP0     -1.358200        0.0000           
   10469 A    9627 TIP4 O1   OW0      0.000000       15.9990           
   10470 A    9627 TIP4 H1   HW0      0.679100        1.0080           
   10471 A    9627 TIP4 H2   HW0      0.679100        1.0080           
   10472 A    9627 TIP4 BD1  LP0     -1.358200        0.0000           
   10473 A    9628 TIP4 O1   OW0      0.000000       15.9990           
   10474 A    9628 TIP4 H1   HW0      0.679100        1.0080           
   10475 A    9628 TIP4 H2   HW0      0.679100        1.0080           
   10476 A    9628 TIP4 BD1  LP0     -1.358200        0.0000           
   10477 A    9629 TIP4 O1   OW0      0.000000       15.9990           
   10478 A    9629 TIP4 H1   HW0      0.679100        1.0080           
   10479 A    9629 TIP4 H2   HW0      0.679100        1.0080           
   10480 A    9629 TIP4 BD1  LP0     -1.358200        0.0000           
   10481 A    9630 TIP4 O1   OW0      0.000000       15.9990           
   10482 A    9630 TIP4 H1   HW0      0.679100        1.0080           
   10483 A    9630 TIP4 H2   HW0      0.679100        1.0080           
   10484 A    9630 TIP4 BD1  LP0     -1.358200        0.0000           
   10485 A    9631 TIP4 O1   OW0      0.000000       15.9990           
   10486 A    9631 TIP4 H1   HW0      0.679100        1.0080           
   10487 A    9631 TIP4 H2   HW0      0.679100        1.0080           
   10488 A    9631 TIP4 BD1  LP0     -1.358200        0.0000           
   10489 A    9632 TIP4 O1   OW0      0.000000       15.9990           
   10490 A    9632 TIP4 H1   HW0      0.679100        1.0080           
   10491 A    9632 TIP4 H2   HW0      0.679100        1.0080           
   10492 A    9632 TIP4 BD1  LP0     -1.358200        0.0000           
   10493 A    9633 TIP4 O1   OW0      0.000000       15.9990           
   10494 A    9633 TIP4 H1   HW0      0.679100        1.0080           
   10495 A    9633 TIP4 H2   HW0      0.679100        1.0080           
   10496 A    9633 TIP4 BD1  LP0     -1.358200        0.0000           
   10497 A    9634 TIP4 O1   OW0      0.000000       15.9990           
   10498 A    9634 TIP4 H1   HW0      0.679100        1.0080           
   10499 A    9634 TIP4 H2   HW0      0.679100        1.0080           
   10500 A    9634 TIP4 BD1  LP0     -1.358200        0.0000           
   10501 A    9635 TIP4 O1   OW0      0.000000       15.9990           
   10502 A    9635 TIP4 H1   HW0      0.679100        1.0080           
   10503 A    9635 TIP4 H2   HW0      0.679100        1.0080           
   10504 A    9635 TIP4 BD1  LP0     -1.358200        0.0000           
   10505 A    9636 TIP4 O1   OW0      0.000000       15.9990           
   10506 A    9636 TIP4 H1   HW0      0.679100        1.0080           
   10507 A    9636 TIP4 H2   HW0      0.679100        1.0080           
   10508 A    9636 TIP4 BD1  LP0     -1.358200        0.0000           
   10509 A    9637 TIP4 O1   OW0      0.000000       15.9990           
   10510 A    9637 TIP4 H1   HW0      0.679100        1.0080           
   10511 A    9637 TIP4 H2   HW0      0.679100        1.0080           
   10512 A    9637 TIP4 BD1  LP0     -1.358200        0.0000           
   10513 A    9638 TIP4 O1   OW0      0.000000       15.9990           
   10514 A    9638 TIP4 H1   HW0      0.679100        1.0080           
   10515 A    9638 TIP4 H2   HW0      0.679100        1.0080           
   10516 A    9638 TIP4 BD1  LP0     -1.358200        0.0000           
   10517 A    9639 TIP4 O1   OW0      0.000000       15.9990           
   10518 A    9639 TIP4 H1   HW0      0.679100        1.0080           
   10519 A    9639 TIP4 H2   HW0      0.679100        1.0080           
   10520 A    9639 TIP4 BD1  LP0     -1.358200        0.0000           
   10521 A    9640 TIP4 O1   OW0      0.000000       15.9990           
   10522 A    9640 TIP4 H1   HW0      0.679100        1.0080           
   10523 A    9640 TIP4 H2   HW0      0.679100        1.0080           
   10524 A    9640 TIP4 BD1  LP0     -1.358200        0.0000           
   10525 A    9641 TIP4 O1   OW0      0.000000       15.9990           
   10526 A    9641 TIP4 H1   HW0      0.679100        1.0080           
   10527 A    9641 TIP4 H2   HW0      0.679100        1.0080           
   10528 A    9641 TIP4 BD1  LP0     -1.358200        0.0000           
   10529 A    9642 TIP4 O1   OW0      0.000000       15.9990           
   10530 A    9642 TIP4 H1   HW0      0.679100        1.0080           
   10531 A    9642 TIP4 H2   HW0      0.679100        1.0080           
   10532 A    9642 TIP4 BD1  LP0     -1.358200        0.0000           
   10533 A    9643 TIP4 O1   OW0      0.000000       15.9990           
   10534 A    9643 TIP4 H1   HW0      0.679100        1.0080           
   10535 A    9643 TIP4 H2   HW0      0.679100        1.0080           
   10536 A    9643 TIP4 BD1  LP0     -1.358200        0.0000           
   10537 A    9644 TIP4 O1   OW0      0.000000       15.9990           
   10538 A    9644 TIP4 H1   HW0      0.679100        1.0080           
   10539 A    9644 TIP4 H2   HW0      0.679100        1.0080           
   10540 A    9644 TIP4 BD1  LP0     -1.358200        0.0000           
   10541 A    9645 TIP4 O1   OW0      0.000000       15.9990           
   10542 A    9645 TIP4 H1   HW0      0.679100        1.0080           
   10543 A    9645 TIP4 H2   HW0      0.679100        1.0080           
   10544 A    9645 TIP4 BD1  LP0     -1.358200        0.0000           
   10545 A    9646 TIP4 O1   OW0      0.000000       15.9990           
   10546 A    9646 TIP4 H1   HW0      0.679100        1.0080           
   10547 A    9646 TIP4 H2   HW0      0.679100        1.0080           
   10548 A    9646 TIP4 BD1  LP0     -1.358200        0.0000           
   10549 A    9647 TIP4 O1   OW0      0.000000       15.9990           
   10550 A    9647 TIP4 H1   HW0      0.679100        1.0080           
   10551 A    9647 TIP4 H2   HW0      0.679100        1.0080           
   10552 A    9647 TIP4 BD1  LP0     -1.358200        0.0000           
   10553 A    9648 TIP4 O1   OW0      0.000000       15.9990           
   10554 A    9648 TIP4 H1   HW0      0.679100        1.0080           
   10555 A    9648 TIP4 H2   HW0      0.679100        1.0080           
   10556 A    9648 TIP4 BD1  LP0     -1.358200        0.0000           
   10557 A    9649 TIP4 O1   OW0      0.000000       15.9990           
   10558 A    9649 TIP4 H1   HW0      0.679100        1.0080           
   10559 A    9649 TIP4 H2   HW0      0.679100        1.0080           
   10560 A    9649 TIP4 BD1  LP0     -1.358200        0.0000           
   10561 A    9650 TIP4 O1   OW0      0.000000       15.9990           
   10562 A    9650 TIP4 H1   HW0      0.679100        1.0080           
   10563 A    9650 TIP4 H2   HW0      0.679100        1.0080           
   10564 A    9650 TIP4 BD1  LP0     -1.358200        0.0000           
   10565 A    9651 TIP4 O1   OW0      0.000000       15.9990           
   10566 A    9651 TIP4 H1   HW0      0.679100        1.0080           
   10567 A    9651 TIP4 H2   HW0      0.679100        1.0080           
   10568 A    9651 TIP4 BD1  LP0     -1.358200        0.0000           
   10569 A    9652 TIP4 O1   OW0      0.000000       15.9990           
   10570 A    9652 TIP4 H1   HW0      0.679100        1.0080           
   10571 A    9652 TIP4 H2   HW0      0.679100        1.0080           
   10572 A    9652 TIP4 BD1  LP0     -1.358200        0.0000           
   10573 A    9653 TIP4 O1   OW0      0.000000       15.9990           
   10574 A    9653 TIP4 H1   HW0      0.679100        1.0080           
   10575 A    9653 TIP4 H2   HW0      0.679100        1.0080           
   10576 A    9653 TIP4 BD1  LP0     -1.358200        0.0000           
   10577 A    9654 TIP4 O1   OW0      0.000000       15.9990           
   10578 A    9654 TIP4 H1   HW0      0.679100        1.0080           
   10579 A    9654 TIP4 H2   HW0      0.679100        1.0080           
   10580 A    9654 TIP4 BD1  LP0     -1.358200        0.0000           
   10581 A    9655 TIP4 O1   OW0      0.000000       15.9990           
   10582 A    9655 TIP4 H1   HW0      0.679100        1.0080           
   10583 A    9655 TIP4 H2   HW0      0.679100        1.0080           
   10584 A    9655 TIP4 BD1  LP0     -1.358200        0.0000           
   10585 A    9656 TIP4 O1   OW0      0.000000       15.9990           
   10586 A    9656 TIP4 H1   HW0      0.679100        1.0080           
   10587 A    9656 TIP4 H2   HW0      0.679100        1.0080           
   10588 A    9656 TIP4 BD1  LP0     -1.358200        0.0000           
   10589 A    9657 TIP4 O1   OW0      0.000000       15.9990           
   10590 A    9657 TIP4 H1   HW0      0.679100        1.0080           
   10591 A    9657 TIP4 H2   HW0      0.679100        1.0080           
   10592 A    9657 TIP4 BD1  LP0     -1.358200        0.0000           
   10593 A    9658 TIP4 O1   OW0      0.000000       15.9990           
   10594 A    9658 TIP4 H1   HW0      0.679100        1.0080           
   10595 A    9658 TIP4 H2   HW0      0.679100        1.0080           
   10596 A    9658 TIP4 BD1  LP0     -1.358200        0.0000           
   10597 A    9659 TIP4 O1   OW0      0.000000       15.9990           
   10598 A    9659 TIP4 H1   HW0      0.679100        1.0080           
   10599 A    9659 TIP4 H2   HW0      0.679100        1.0080           
   10600 A    9659 TIP4 BD1  LP0     -1.358200        0.0000           
   10601 A    9660 TIP4 O1   OW0      0.000000       15.9990           
   10602 A    9660 TIP4 H1   HW0      0.679100        1.0080           
   10603 A    9660 TIP4 H2   HW0      0.679100        1.0080           
   10604 A    9660 TIP4 BD1  LP0     -1.358200        0.0000           
   10605 A    9661 TIP4 O1   OW0      0.000000       15.9990           
   10606 A    9661 TIP4 H1   HW0      0.679100        1.0080           
   10607 A    9661 TIP4 H2   HW0      0.679100        1.0080           
   10608 A    9661 TIP4 BD1  LP0     -1.358200        0.0000           
   10609 A    9662 TIP4 O1   OW0      0.000000       15.9990           
   10610 A    9662 TIP4 H1   HW0      0.679100        1.0080           
   10611 A    9662 TIP4 H2   HW0      0.679100        1.0080           
   10612 A    9662 TIP4 BD1  LP0     -1.358200        0.0000           
   10613 A    9663 TIP4 O1   OW0      0.000000       15.9990           
   10614 A    9663 TIP4 H1   HW0      0.679100        1.0080           
   10615 A    9663 TIP4 H2   HW0      0.679100        1.0080           
   10616 A    9663 TIP4 BD1  LP0     -1.358200        0.0000           
   10617 A    9664 TIP4 O1   OW0      0.000000       15.9990           
   10618 A    9664 TIP4 H1   HW0      0.679100        1.0080           
   10619 A    9664 TIP4 H2   HW0      0.679100        1.0080           
   10620 A    9664 TIP4 BD1  LP0     -1.358200        0.0000           
   10621 A    9665 TIP4 O1   OW0      0.000000       15.9990           
   10622 A    9665 TIP4 H1   HW0      0.679100        1.0080           
   10623 A    9665 TIP4 H2   HW0      0.679100        1.0080           
   10624 A    9665 TIP4 BD1  LP0     -1.358200        0.0000           
   10625 A    9666 TIP4 O1   OW0      0.000000       15.9990           
   10626 A    9666 TIP4 H1   HW0      0.679100        1.0080           
   10627 A    9666 TIP4 H2   HW0      0.679100        1.0080           
   10628 A    9666 TIP4 BD1  LP0     -1.358200        0.0000           
   10629 A    9667 TIP4 O1   OW0      0.000000       15.9990           
   10630 A    9667 TIP4 H1   HW0      0.679100        1.0080           
   10631 A    9667 TIP4 H2   HW0      0.679100        1.0080           
   10632 A    9667 TIP4 BD1  LP0     -1.358200        0.0000           
   10633 A    9668 TIP4 O1   OW0      0.000000       15.9990           
   10634 A    9668 TIP4 H1   HW0      0.679100        1.0080           
   10635 A    9668 TIP4 H2   HW0      0.679100        1.0080           
   10636 A    9668 TIP4 BD1  LP0     -1.358200        0.0000           
   10637 A    9669 TIP4 O1   OW0      0.000000       15.9990           
   10638 A    9669 TIP4 H1   HW0      0.679100        1.0080           
   10639 A    9669 TIP4 H2   HW0      0.679100        1.0080           
   10640 A    9669 TIP4 BD1  LP0     -1.358200        0.0000           
   10641 A    9670 TIP4 O1   OW0      0.000000       15.9990           
   10642 A    9670 TIP4 H1   HW0      0.679100        1.0080           
   10643 A    9670 TIP4 H2   HW0      0.679100        1.0080           
   10644 A    9670 TIP4 BD1  LP0     -1.358200        0.0000           
   10645 A    9671 TIP4 O1   OW0      0.000000       15.9990           
   10646 A    9671 TIP4 H1   HW0      0.679100        1.0080           
   10647 A    9671 TIP4 H2   HW0      0.679100        1.0080           
   10648 A    9671 TIP4 BD1  LP0     -1.358200        0.0000           
   10649 A    9672 TIP4 O1   OW0      0.000000       15.9990           
   10650 A    9672 TIP4 H1   HW0      0.679100        1.0080           
   10651 A    9672 TIP4 H2   HW0      0.679100        1.0080           
   10652 A    9672 TIP4 BD1  LP0     -1.358200        0.0000           
   10653 A    9673 TIP4 O1   OW0      0.000000       15.9990           
   10654 A    9673 TIP4 H1   HW0      0.679100        1.0080           
   10655 A    9673 TIP4 H2   HW0      0.679100        1.0080           
   10656 A    9673 TIP4 BD1  LP0     -1.358200        0.0000           
   10657 A    9674 TIP4 O1   OW0      0.000000       15.9990           
   10658 A    9674 TIP4 H1   HW0      0.679100        1.0080           
   10659 A    9674 TIP4 H2   HW0      0.679100        1.0080           
   10660 A    9674 TIP4 BD1  LP0     -1.358200        0.0000           
   10661 A    9675 TIP4 O1   OW0      0.000000       15.9990           
   10662 A    9675 TIP4 H1   HW0      0.679100        1.0080           
   10663 A    9675 TIP4 H2   HW0      0.679100        1.0080           
   10664 A    9675 TIP4 BD1  LP0     -1.358200        0.0000           
   10665 A    9676 TIP4 O1   OW0      0.000000       15.9990           
   10666 A    9676 TIP4 H1   HW0      0.679100        1.0080           
   10667 A    9676 TIP4 H2   HW0      0.679100        1.0080           
   10668 A    9676 TIP4 BD1  LP0     -1.358200        0.0000           
   10669 A    9677 TIP4 O1   OW0      0.000000       15.9990           
   10670 A    9677 TIP4 H1   HW0      0.679100        1.0080           
   10671 A    9677 TIP4 H2   HW0      0.679100        1.0080           
   10672 A    9677 TIP4 BD1  LP0     -1.358200        0.0000           
   10673 A    9678 TIP4 O1   OW0      0.000000       15.9990           
   10674 A    9678 TIP4 H1   HW0      0.679100        1.0080           
   10675 A    9678 TIP4 H2   HW0      0.679100        1.0080           
   10676 A    9678 TIP4 BD1  LP0     -1.358200        0.0000           
   10677 A    9679 TIP4 O1   OW0      0.000000       15.9990           
   10678 A    9679 TIP4 H1   HW0      0.679100        1.0080           
   10679 A    9679 TIP4 H2   HW0      0.679100        1.0080           
   10680 A    9679 TIP4 BD1  LP0     -1.358200        0.0000           
   10681 A    9680 TIP4 O1   OW0      0.000000       15.9990           
   10682 A    9680 TIP4 H1   HW0      0.679100        1.0080           
   10683 A    9680 TIP4 H2   HW0      0.679100        1.0080           
   10684 A    9680 TIP4 BD1  LP0     -1.358200        0.0000           
   10685 A    9681 TIP4 O1   OW0      0.000000       15.9990           
   10686 A    9681 TIP4 H1   HW0      0.679100        1.0080           
   10687 A    9681 TIP4 H2   HW0      0.679100        1.0080           
   10688 A    9681 TIP4 BD1  LP0     -1.358200        0.0000           
   10689 A    9682 TIP4 O1   OW0      0.000000       15.9990           
   10690 A    9682 TIP4 H1   HW0      0.679100        1.0080           
   10691 A    9682 TIP4 H2   HW0      0.679100        1.0080           
   10692 A    9682 TIP4 BD1  LP0     -1.358200        0.0000           
   10693 A    9683 TIP4 O1   OW0      0.000000       15.9990           
   10694 A    9683 TIP4 H1   HW0      0.679100        1.0080           
   10695 A    9683 TIP4 H2   HW0      0.679100        1.0080           
   10696 A    9683 TIP4 BD1  LP0     -1.358200        0.0000           
   10697 A    9684 TIP4 O1   OW0      0.000000       15.9990           
   10698 A    9684 TIP4 H1   HW0      0.679100        1.0080           
   10699 A    9684 TIP4 H2   HW0      0.679100        1.0080           
   10700 A    9684 TIP4 BD1  LP0     -1.358200        0.0000           
   10701 A    9685 TIP4 O1   OW0      0.000000       15.9990           
   10702 A    9685 TIP4 H1   HW0      0.679100        1.0080           
   10703 A    9685 TIP4 H2   HW0      0.679100        1.0080           
   10704 A    9685 TIP4 BD1  LP0     -1.358200        0.0000           
   10705 A    9686 TIP4 O1   OW0      0.000000       15.9990           
   10706 A    9686 TIP4 H1   HW0      0.679100        1.0080           
   10707 A    9686 TIP4 H2   HW0      0.679100        1.0080           
   10708 A    9686 TIP4 BD1  LP0     -1.358200        0.0000           
   10709 A    9687 TIP4 O1   OW0      0.000000       15.9990           
   10710 A    9687 TIP4 H1   HW0      0.679100        1.0080           
   10711 A    9687 TIP4 H2   HW0      0.679100        1.0080           
   10712 A    9687 TIP4 BD1  LP0     -1.358200        0.0000           
   10713 A    9688 TIP4 O1   OW0      0.000000       15.9990           
   10714 A    9688 TIP4 H1   HW0      0.679100        1.0080           
   10715 A    9688 TIP4 H2   HW0      0.679100        1.0080           
   10716 A    9688 TIP4 BD1  LP0     -1.358200        0.0000           
   10717 A    9689 TIP4 O1   OW0      0.000000       15.9990           
   10718 A    9689 TIP4 H1   HW0      0.679100        1.0080           
   10719 A    9689 TIP4 H2   HW0      0.679100        1.0080           
   10720 A    9689 TIP4 BD1  LP0     -1.358200        0.0000           
   10721 A    9690 TIP4 O1   OW0      0.000000       15.9990           
   10722 A    9690 TIP4 H1   HW0      0.679100        1.0080           
   10723 A    9690 TIP4 H2   HW0      0.679100        1.0080           
   10724 A    9690 TIP4 BD1  LP0     -1.358200        0.0000           
   10725 A    9691 TIP4 O1   OW0      0.000000       15.9990           
   10726 A    9691 TIP4 H1   HW0      0.679100        1.0080           
   10727 A    9691 TIP4 H2   HW0      0.679100        1.0080           
   10728 A    9691 TIP4 BD1  LP0     -1.358200        0.0000           
   10729 A    9692 TIP4 O1   OW0      0.000000       15.9990           
   10730 A    9692 TIP4 H1   HW0      0.679100        1.0080           
   10731 A    9692 TIP4 H2   HW0      0.679100        1.0080           
   10732 A    9692 TIP4 BD1  LP0     -1.358200        0.0000           
   10733 A    9693 TIP4 O1   OW0      0.000000       15.9990           
   10734 A    9693 TIP4 H1   HW0      0.679100        1.0080           
   10735 A    9693 TIP4 H2   HW0      0.679100        1.0080           
   10736 A    9693 TIP4 BD1  LP0     -1.358200        0.0000           
   10737 A    9694 TIP4 O1   OW0      0.000000       15.9990           
   10738 A    9694 TIP4 H1   HW0      0.679100        1.0080           
   10739 A    9694 TIP4 H2   HW0      0.679100        1.0080           
   10740 A    9694 TIP4 BD1  LP0     -1.358200        0.0000           
   10741 A    9695 TIP4 O1   OW0      0.000000       15.9990           
   10742 A    9695 TIP4 H1   HW0      0.679100        1.0080           
   10743 A    9695 TIP4 H2   HW0      0.679100        1.0080           
   10744 A    9695 TIP4 BD1  LP0     -1.358200        0.0000           
   10745 A    9696 TIP4 O1   OW0      0.000000       15.9990           
   10746 A    9696 TIP4 H1   HW0      0.679100        1.0080           
   10747 A    9696 TIP4 H2   HW0      0.679100        1.0080           
   10748 A    9696 TIP4 BD1  LP0     -1.358200        0.0000           
   10749 A    9697 TIP4 O1   OW0      0.000000       15.9990           
   10750 A    9697 TIP4 H1   HW0      0.679100        1.0080           
   10751 A    9697 TIP4 H2   HW0      0.679100        1.0080           
   10752 A    9697 TIP4 BD1  LP0     -1.358200        0.0000           
   10753 A    9698 TIP4 O1   OW0      0.000000       15.9990           
   10754 A    9698 TIP4 H1   HW0      0.679100        1.0080           
   10755 A    9698 TIP4 H2   HW0      0.679100        1.0080           
   10756 A    9698 TIP4 BD1  LP0     -1.358200        0.0000           
   10757 A    9699 TIP4 O1   OW0      0.000000       15.9990           
   10758 A    9699 TIP4 H1   HW0      0.679100        1.0080           
   10759 A    9699 TIP4 H2   HW0      0.679100        1.0080           
   10760 A    9699 TIP4 BD1  LP0     -1.358200        0.0000           
   10761 A    9700 TIP4 O1   OW0      0.000000       15.9990           
   10762 A    9700 TIP4 H1   HW0      0.679100        1.0080           
   10763 A    9700 TIP4 H2   HW0      0.679100        1.0080           
   10764 A    9700 TIP4 BD1  LP0     -1.358200        0.0000           
   10765 A    9701 TIP4 O1   OW0      0.000000       15.9990           
   10766 A    9701 TIP4 H1   HW0      0.679100        1.0080           
   10767 A    9701 TIP4 H2   HW0      0.679100        1.0080           
   10768 A    9701 TIP4 BD1  LP0     -1.358200        0.0000           
   10769 A    9702 TIP4 O1   OW0      0.000000       15.9990           
   10770 A    9702 TIP4 H1   HW0      0.679100        1.0080           
   10771 A    9702 TIP4 H2   HW0      0.679100        1.0080           
   10772 A    9702 TIP4 BD1  LP0     -1.358200        0.0000           
   10773 A    9703 TIP4 O1   OW0      0.000000       15.9990           
   10774 A    9703 TIP4 H1   HW0      0.679100        1.0080           
   10775 A    9703 TIP4 H2   HW0      0.679100        1.0080           
   10776 A    9703 TIP4 BD1  LP0     -1.358200        0.0000           
   10777 A    9704 TIP4 O1   OW0      0.000000       15.9990           
   10778 A    9704 TIP4 H1   HW0      0.679100        1.0080           
   10779 A    9704 TIP4 H2   HW0      0.679100        1.0080           
   10780 A    9704 TIP4 BD1  LP0     -1.358200        0.0000           
   10781 A    9705 TIP4 O1   OW0      0.000000       15.9990           
   10782 A    9705 TIP4 H1   HW0      0.679100        1.0080           
   10783 A    9705 TIP4 H2   HW0      0.679100        1.0080           
   10784 A    9705 TIP4 BD1  LP0     -1.358200        0.0000           
   10785 A    9706 TIP4 O1   OW0      0.000000       15.9990           
   10786 A    9706 TIP4 H1   HW0      0.679100        1.0080           
   10787 A    9706 TIP4 H2   HW0      0.679100        1.0080           
   10788 A    9706 TIP4 BD1  LP0     -1.358200        0.0000           
   10789 A    9707 TIP4 O1   OW0      0.000000       15.9990           
   10790 A    9707 TIP4 H1   HW0      0.679100        1.0080           
   10791 A    9707 TIP4 H2   HW0      0.679100        1.0080           
   10792 A    9707 TIP4 BD1  LP0     -1.358200        0.0000           
   10793 A    9708 TIP4 O1   OW0      0.000000       15.9990           
   10794 A    9708 TIP4 H1   HW0      0.679100        1.0080           
   10795 A    9708 TIP4 H2   HW0      0.679100        1.0080           
   10796 A    9708 TIP4 BD1  LP0     -1.358200        0.0000           
   10797 A    9709 TIP4 O1   OW0      0.000000       15.9990           
   10798 A    9709 TIP4 H1   HW0      0.679100        1.0080           
   10799 A    9709 TIP4 H2   HW0      0.679100        1.0080           
   10800 A    9709 TIP4 BD1  LP0     -1.358200        0.0000           
   10801 A    9710 TIP4 O1   OW0      0.000000       15.9990           
   10802 A    9710 TIP4 H1   HW0      0.679100        1.0080           
   10803 A    9710 TIP4 H2   HW0      0.679100        1.0080           
   10804 A    9710 TIP4 BD1  LP0     -1.358200        0.0000           
   10805 A    9711 TIP4 O1   OW0      0.000000       15.9990           
   10806 A    9711 TIP4 H1   HW0      0.679100        1.0080           
   10807 A    9711 TIP4 H2   HW0      0.679100        1.0080           
   10808 A    9711 TIP4 BD1  LP0     -1.358200        0.0000           
   10809 A    9712 TIP4 O1   OW0      0.000000       15.9990           
   10810 A    9712 TIP4 H1   HW0      0.679100        1.0080           
   10811 A    9712 TIP4 H2   HW0      0.679100        1.0080           
   10812 A    9712 TIP4 BD1  LP0     -1.358200        0.0000           
   10813 A    9713 TIP4 O1   OW0      0.000000       15.9990           
   10814 A    9713 TIP4 H1   HW0      0.679100        1.0080           
   10815 A    9713 TIP4 H2   HW0      0.679100        1.0080           
   10816 A    9713 TIP4 BD1  LP0     -1.358200        0.0000           
   10817 A    9714 TIP4 O1   OW0      0.000000       15.9990           
   10818 A    9714 TIP4 H1   HW0      0.679100        1.0080           
   10819 A    9714 TIP4 H2   HW0      0.679100        1.0080           
   10820 A    9714 TIP4 BD1  LP0     -1.358200        0.0000           
   10821 A    9715 TIP4 O1   OW0      0.000000       15.9990           
   10822 A    9715 TIP4 H1   HW0      0.679100        1.0080           
   10823 A    9715 TIP4 H2   HW0      0.679100        1.0080           
   10824 A    9715 TIP4 BD1  LP0     -1.358200        0.0000           
   10825 A    9716 TIP4 O1   OW0      0.000000       15.9990           
   10826 A    9716 TIP4 H1   HW0      0.679100        1.0080           
   10827 A    9716 TIP4 H2   HW0      0.679100        1.0080           
   10828 A    9716 TIP4 BD1  LP0     -1.358200        0.0000           
   10829 A    9717 TIP4 O1   OW0      0.000000       15.9990           
   10830 A    9717 TIP4 H1   HW0      0.679100        1.0080           
   10831 A    9717 TIP4 H2   HW0      0.679100        1.0080           
   10832 A    9717 TIP4 BD1  LP0     -1.358200        0.0000           
   10833 A    9718 TIP4 O1   OW0      0.000000       15.9990           
   10834 A    9718 TIP4 H1   HW0      0.679100        1.0080           
   10835 A    9718 TIP4 H2   HW0      0.679100        1.0080           
   10836 A    9718 TIP4 BD1  LP0     -1.358200        0.0000           
   10837 A    9719 TIP4 O1   OW0      0.000000       15.9990           
   10838 A    9719 TIP4 H1   HW0      0.679100        1.0080           
   10839 A    9719 TIP4 H2   HW0      0.679100        1.0080           
   10840 A    9719 TIP4 BD1  LP0     -1.358200        0.0000           
   10841 A    9720 TIP4 O1   OW0      0.000000       15.9990           
   10842 A    9720 TIP4 H1   HW0      0.679100        1.0080           
   10843 A    9720 TIP4 H2   HW0      0.679100        1.0080           
   10844 A    9720 TIP4 BD1  LP0     -1.358200        0.0000           
   10845 A    9721 TIP4 O1   OW0      0.000000       15.9990           
   10846 A    9721 TIP4 H1   HW0      0.679100        1.0080           
   10847 A    9721 TIP4 H2   HW0      0.679100        1.0080           
   10848 A    9721 TIP4 BD1  LP0     -1.358200        0.0000           
   10849 A    9722 TIP4 O1   OW0      0.000000       15.9990           
   10850 A    9722 TIP4 H1   HW0      0.679100        1.0080           
   10851 A    9722 TIP4 H2   HW0      0.679100        1.0080           
   10852 A    9722 TIP4 BD1  LP0     -1.358200        0.0000           
   10853 A    9723 TIP4 O1   OW0      0.000000       15.9990           
   10854 A    9723 TIP4 H1   HW0      0.679100        1.0080           
   10855 A    9723 TIP4 H2   HW0      0.679100        1.0080           
   10856 A    9723 TIP4 BD1  LP0     -1.358200        0.0000           
   10857 A    9724 TIP4 O1   OW0      0.000000       15.9990           
   10858 A    9724 TIP4 H1   HW0      0.679100        1.0080           
   10859 A    9724 TIP4 H2   HW0      0.679100        1.0080           
   10860 A    9724 TIP4 BD1  LP0     -1.358200        0.0000           
   10861 A    9725 TIP4 O1   OW0      0.000000       15.9990           
   10862 A    9725 TIP4 H1   HW0      0.679100        1.0080           
   10863 A    9725 TIP4 H2   HW0      0.679100        1.0080           
   10864 A    9725 TIP4 BD1  LP0     -1.358200        0.0000           
   10865 A    9726 TIP4 O1   OW0      0.000000       15.9990           
   10866 A    9726 TIP4 H1   HW0      0.679100        1.0080           
   10867 A    9726 TIP4 H2   HW0      0.679100        1.0080           
   10868 A    9726 TIP4 BD1  LP0     -1.358200        0.0000           
   10869 A    9727 TIP4 O1   OW0      0.000000       15.9990           
   10870 A    9727 TIP4 H1   HW0      0.679100        1.0080           
   10871 A    9727 TIP4 H2   HW0      0.679100        1.0080           
   10872 A    9727 TIP4 BD1  LP0     -1.358200        0.0000           
   10873 A    9728 TIP4 O1   OW0      0.000000       15.9990           
   10874 A    9728 TIP4 H1   HW0      0.679100        1.0080           
   10875 A    9728 TIP4 H2   HW0      0.679100        1.0080           
   10876 A    9728 TIP4 BD1  LP0     -1.358200        0.0000           
   10877 A    9729 TIP4 O1   OW0      0.000000       15.9990           
   10878 A    9729 TIP4 H1   HW0      0.679100        1.0080           
   10879 A    9729 TIP4 H2   HW0      0.679100        1.0080           
   10880 A    9729 TIP4 BD1  LP0     -1.358200        0.0000           
   10881 A    9730 TIP4 O1   OW0      0.000000       15.9990           
   10882 A    9730 TIP4 H1   HW0      0.679100        1.0080           
   10883 A    9730 TIP4 H2   HW0      0.679100        1.0080           
   10884 A    9730 TIP4 BD1  LP0     -1.358200        0.0000           
   10885 A    9731 TIP4 O1   OW0      0.000000       15.9990           
   10886 A    9731 TIP4 H1   HW0      0.679100        1.0080           
   10887 A    9731 TIP4 H2   HW0      0.679100        1.0080           
   10888 A    9731 TIP4 BD1  LP0     -1.358200        0.0000           
   10889 A    9732 TIP4 O1   OW0      0.000000       15.9990           
   10890 A    9732 TIP4 H1   HW0      0.679100        1.0080           
   10891 A    9732 TIP4 H2   HW0      0.679100        1.0080           
   10892 A    9732 TIP4 BD1  LP0     -1.358200        0.0000           
   10893 A    9733 TIP4 O1   OW0      0.000000       15.9990           
   10894 A    9733 TIP4 H1   HW0      0.679100        1.0080           
   10895 A    9733 TIP4 H2   HW0      0.679100        1.0080           
   10896 A    9733 TIP4 BD1  LP0     -1.358200        0.0000           
   10897 A    9734 TIP4 O1   OW0      0.000000       15.9990           
   10898 A    9734 TIP4 H1   HW0      0.679100        1.0080           
   10899 A    9734 TIP4 H2   HW0      0.679100        1.0080           
   10900 A    9734 TIP4 BD1  LP0     -1.358200        0.0000           
   10901 A    9735 TIP4 O1   OW0      0.000000       15.9990           
   10902 A    9735 TIP4 H1   HW0      0.679100        1.0080           
   10903 A    9735 TIP4 H2   HW0      0.679100        1.0080           
   10904 A    9735 TIP4 BD1  LP0     -1.358200        0.0000           
   10905 A    9736 TIP4 O1   OW0      0.000000       15.9990           
   10906 A    9736 TIP4 H1   HW0      0.679100        1.0080           
   10907 A    9736 TIP4 H2   HW0      0.679100        1.0080           
   10908 A    9736 TIP4 BD1  LP0     -1.358200        0.0000           
   10909 A    9737 TIP4 O1   OW0      0.000000       15.9990           
   10910 A    9737 TIP4 H1   HW0      0.679100        1.0080           
   10911 A    9737 TIP4 H2   HW0      0.679100        1.0080           
   10912 A    9737 TIP4 BD1  LP0     -1.358200        0.0000           
   10913 A    9738 TIP4 O1   OW0      0.000000       15.9990           
   10914 A    9738 TIP4 H1   HW0      0.679100        1.0080           
   10915 A    9738 TIP4 H2   HW0      0.679100        1.0080           
   10916 A    9738 TIP4 BD1  LP0     -1.358200        0.0000           
   10917 A    9739 TIP4 O1   OW0      0.000000       15.9990           
   10918 A    9739 TIP4 H1   HW0      0.679100        1.0080           
   10919 A    9739 TIP4 H2   HW0      0.679100        1.0080           
   10920 A    9739 TIP4 BD1  LP0     -1.358200        0.0000           
   10921 A    9740 TIP4 O1   OW0      0.000000       15.9990           
   10922 A    9740 TIP4 H1   HW0      0.679100        1.0080           
   10923 A    9740 TIP4 H2   HW0      0.679100        1.0080           
   10924 A    9740 TIP4 BD1  LP0     -1.358200        0.0000           
   10925 A    9741 TIP4 O1   OW0      0.000000       15.9990           
   10926 A    9741 TIP4 H1   HW0      0.679100        1.0080           
   10927 A    9741 TIP4 H2   HW0      0.679100        1.0080           
   10928 A    9741 TIP4 BD1  LP0     -1.358200        0.0000           
   10929 A    9742 TIP4 O1   OW0      0.000000       15.9990           
   10930 A    9742 TIP4 H1   HW0      0.679100        1.0080           
   10931 A    9742 TIP4 H2   HW0      0.679100        1.0080           
   10932 A    9742 TIP4 BD1  LP0     -1.358200        0.0000           
   10933 A    9743 TIP4 O1   OW0      0.000000       15.9990           
   10934 A    9743 TIP4 H1   HW0      0.679100        1.0080           
   10935 A    9743 TIP4 H2   HW0      0.679100        1.0080           
   10936 A    9743 TIP4 BD1  LP0     -1.358200        0.0000           
   10937 A    9744 TIP4 O1   OW0      0.000000       15.9990           
   10938 A    9744 TIP4 H1   HW0      0.679100        1.0080           
   10939 A    9744 TIP4 H2   HW0      0.679100        1.0080           
   10940 A    9744 TIP4 BD1  LP0     -1.358200        0.0000           
   10941 A    9745 TIP4 O1   OW0      0.000000       15.9990           
   10942 A    9745 TIP4 H1   HW0      0.679100        1.0080           
   10943 A    9745 TIP4 H2   HW0      0.679100        1.0080           
   10944 A    9745 TIP4 BD1  LP0     -1.358200        0.0000           
   10945 A    9746 TIP4 O1   OW0      0.000000       15.9990           
   10946 A    9746 TIP4 H1   HW0      0.679100        1.0080           
   10947 A    9746 TIP4 H2   HW0      0.679100        1.0080           
   10948 A    9746 TIP4 BD1  LP0     -1.358200        0.0000           
   10949 A    9747 TIP4 O1   OW0      0.000000       15.9990           
   10950 A    9747 TIP4 H1   HW0      0.679100        1.0080           
   10951 A    9747 TIP4 H2   HW0      0.679100        1.0080           
   10952 A    9747 TIP4 BD1  LP0     -1.358200        0.0000           
   10953 A    9748 TIP4 O1   OW0      0.000000       15.9990           
   10954 A    9748 TIP4 H1   HW0      0.679100        1.0080           
   10955 A    9748 TIP4 H2   HW0      0.679100        1.0080           
   10956 A    9748 TIP4 BD1  LP0     -1.358200        0.0000           
   10957 A    9749 TIP4 O1   OW0      0.000000       15.9990           
   10958 A    9749 TIP4 H1   HW0      0.679100        1.0080           
   10959 A    9749 TIP4 H2   HW0      0.679100        1.0080           
   10960 A    9749 TIP4 BD1  LP0     -1.358200        0.0000           
   10961 A    9750 TIP4 O1   OW0      0.000000       15.9990           
   10962 A    9750 TIP4 H1   HW0      0.679100        1.0080           
   10963 A    9750 TIP4 H2   HW0      0.679100        1.0080           
   10964 A    9750 TIP4 BD1  LP0     -1.358200        0.0000           
   10965 A    9751 TIP4 O1   OW0      0.000000       15.9990           
   10966 A    9751 TIP4 H1   HW0      0.679100        1.0080           
   10967 A    9751 TIP4 H2   HW0      0.679100        1.0080           
   10968 A    9751 TIP4 BD1  LP0     -1.358200        0.0000           
   10969 A    9752 TIP4 O1   OW0      0.000000       15.9990           
   10970 A    9752 TIP4 H1   HW0      0.679100        1.0080           
   10971 A    9752 TIP4 H2   HW0      0.679100        1.0080           
   10972 A    9752 TIP4 BD1  LP0     -1.358200        0.0000           
   10973 A    9753 TIP4 O1   OW0      0.000000       15.9990           
   10974 A    9753 TIP4 H1   HW0      0.679100        1.0080           
   10975 A    9753 TIP4 H2   HW0      0.679100        1.0080           
   10976 A    9753 TIP4 BD1  LP0     -1.358200        0.0000           
   10977 A    9754 TIP4 O1   OW0      0.000000       15.9990           
   10978 A    9754 TIP4 H1   HW0      0.679100        1.0080           
   10979 A    9754 TIP4 H2   HW0      0.679100        1.0080           
   10980 A    9754 TIP4 BD1  LP0     -1.358200        0.0000           
   10981 A    9755 TIP4 O1   OW0      0.000000       15.9990           
   10982 A    9755 TIP4 H1   HW0      0.679100        1.0080           
   10983 A    9755 TIP4 H2   HW0      0.679100        1.0080           
   10984 A    9755 TIP4 BD1  LP0     -1.358200        0.0000           
   10985 A    9756 TIP4 O1   OW0      0.000000       15.9990           
   10986 A    9756 TIP4 H1   HW0      0.679100        1.0080           
   10987 A    9756 TIP4 H2   HW0      0.679100        1.0080           
   10988 A    9756 TIP4 BD1  LP0     -1.358200        0.0000           
   10989 A    9757 TIP4 O1   OW0      0.000000       15.9990           
   10990 A    9757 TIP4 H1   HW0      0.679100        1.0080           
   10991 A    9757 TIP4 H2   HW0      0.679100        1.0080           
   10992 A    9757 TIP4 BD1  LP0     -1.358200        0.0000           
   10993 A    9758 TIP4 O1   OW0      0.000000       15.9990           
   10994 A    9758 TIP4 H1   HW0      0.679100        1.0080           
   10995 A    9758 TIP4 H2   HW0      0.679100        1.0080           
   10996 A    9758 TIP4 BD1  LP0     -1.358200        0.0000           
   10997 A    9759 TIP4 O1   OW0      0.000000       15.9990           
   10998 A    9759 TIP4 H1   HW0      0.679100        1.0080           
   10999 A    9759 TIP4 H2   HW0      0.679100        1.0080           
   11000 A    9759 TIP4 BD1  LP0     -1.358200        0.0000           
   11001 A    9760 TIP4 O1   OW0      0.000000       15.9990           
   11002 A    9760 TIP4 H1   HW0      0.679100        1.0080           
   11003 A    9760 TIP4 H2   HW0      0.679100        1.0080           
   11004 A    9760 TIP4 BD1  LP0     -1.358200        0.0000           
   11005 A    9761 TIP4 O1   OW0      0.000000       15.9990           
   11006 A    9761 TIP4 H1   HW0      0.679100        1.0080           
   11007 A    9761 TIP4 H2   HW0      0.679100        1.0080           
   11008 A    9761 TIP4 BD1  LP0     -1.358200        0.0000           
   11009 A    9762 TIP4 O1   OW0      0.000000       15.9990           
   11010 A    9762 TIP4 H1   HW0      0.679100        1.0080           
   11011 A    9762 TIP4 H2   HW0      0.679100        1.0080           
   11012 A    9762 TIP4 BD1  LP0     -1.358200        0.0000           
   11013 A    9763 TIP4 O1   OW0      0.000000       15.9990           
   11014 A    9763 TIP4 H1   HW0      0.679100        1.0080           
   11015 A    9763 TIP4 H2   HW0      0.679100        1.0080           
   11016 A    9763 TIP4 BD1  LP0     -1.358200        0.0000           
   11017 A    9764 TIP4 O1   OW0      0.000000       15.9990           
   11018 A    9764 TIP4 H1   HW0      0.679100        1.0080           
   11019 A    9764 TIP4 H2   HW0      0.679100        1.0080           
   11020 A    9764 TIP4 BD1  LP0     -1.358200        0.0000           
   11021 A    9765 TIP4 O1   OW0      0.000000       15.9990           
   11022 A    9765 TIP4 H1   HW0      0.679100        1.0080           
   11023 A    9765 TIP4 H2   HW0      0.679100        1.0080           
   11024 A    9765 TIP4 BD1  LP0     -1.358200        0.0000           
   11025 A    9766 TIP4 O1   OW0      0.000000       15.9990           
   11026 A    9766 TIP4 H1   HW0      0.679100        1.0080           
   11027 A    9766 TIP4 H2   HW0      0.679100        1.0080           
   11028 A    9766 TIP4 BD1  LP0     -1.358200        0.0000           
   11029 A    9767 TIP4 O1   OW0      0.000000       15.9990           
   11030 A    9767 TIP4 H1   HW0      0.679100        1.0080           
   11031 A    9767 TIP4 H2   HW0      0.679100        1.0080           
   11032 A    9767 TIP4 BD1  LP0     -1.358200        0.0000           
   11033 A    9768 TIP4 O1   OW0      0.000000       15.9990           
   11034 A    9768 TIP4 H1   HW0      0.679100        1.0080           
   11035 A    9768 TIP4 H2   HW0      0.679100        1.0080           
   11036 A    9768 TIP4 BD1  LP0     -1.358200        0.0000           
   11037 A    9769 TIP4 O1   OW0      0.000000       15.9990           
   11038 A    9769 TIP4 H1   HW0      0.679100        1.0080           
   11039 A    9769 TIP4 H2   HW0      0.679100        1.0080           
   11040 A    9769 TIP4 BD1  LP0     -1.358200        0.0000           
   11041 A    9770 TIP4 O1   OW0      0.000000       15.9990           
   11042 A    9770 TIP4 H1   HW0      0.679100        1.0080           
   11043 A    9770 TIP4 H2   HW0      0.679100        1.0080           
   11044 A    9770 TIP4 BD1  LP0     -1.358200        0.0000           
   11045 A    9771 TIP4 O1   OW0      0.000000       15.9990           
   11046 A    9771 TIP4 H1   HW0      0.679100        1.0080           
   11047 A    9771 TIP4 H2   HW0      0.679100        1.0080           
   11048 A    9771 TIP4 BD1  LP0     -1.358200        0.0000           
   11049 A    9772 TIP4 O1   OW0      0.000000       15.9990           
   11050 A    9772 TIP4 H1   HW0      0.679100        1.0080           
   11051 A    9772 TIP4 H2   HW0      0.679100        1.0080           
   11052 A    9772 TIP4 BD1  LP0     -1.358200        0.0000           
   11053 A    9773 TIP4 O1   OW0      0.000000       15.9990           
   11054 A    9773 TIP4 H1   HW0      0.679100        1.0080           
   11055 A    9773 TIP4 H2   HW0      0.679100        1.0080           
   11056 A    9773 TIP4 BD1  LP0     -1.358200        0.0000           
   11057 A    9774 TIP4 O1   OW0      0.000000       15.9990           
   11058 A    9774 TIP4 H1   HW0      0.679100        1.0080           
   11059 A    9774 TIP4 H2   HW0      0.679100        1.0080           
   11060 A    9774 TIP4 BD1  LP0     -1.358200        0.0000           
   11061 A    9775 TIP4 O1   OW0      0.000000       15.9990           
   11062 A    9775 TIP4 H1   HW0      0.679100        1.0080           
   11063 A    9775 TIP4 H2   HW0      0.679100        1.0080           
   11064 A    9775 TIP4 BD1  LP0     -1.358200        0.0000           
   11065 A    9776 TIP4 O1   OW0      0.000000       15.9990           
   11066 A    9776 TIP4 H1   HW0      0.679100        1.0080           
   11067 A    9776 TIP4 H2   HW0      0.679100        1.0080           
   11068 A    9776 TIP4 BD1  LP0     -1.358200        0.0000           
   11069 A    9777 TIP4 O1   OW0      0.000000       15.9990           
   11070 A    9777 TIP4 H1   HW0      0.679100        1.0080           
   11071 A    9777 TIP4 H2   HW0      0.679100        1.0080           
   11072 A    9777 TIP4 BD1  LP0     -1.358200        0.0000           
   11073 A    9778 TIP4 O1   OW0      0.000000       15.9990           
   11074 A    9778 TIP4 H1   HW0      0.679100        1.0080           
   11075 A    9778 TIP4 H2   HW0      0.679100        1.0080           
   11076 A    9778 TIP4 BD1  LP0     -1.358200        0.0000           
   11077 A    9779 TIP4 O1   OW0      0.000000       15.9990           
   11078 A    9779 TIP4 H1   HW0      0.679100        1.0080           
   11079 A    9779 TIP4 H2   HW0      0.679100        1.0080           
   11080 A    9779 TIP4 BD1  LP0     -1.358200        0.0000           
   11081 A    9780 TIP4 O1   OW0      0.000000       15.9990           
   11082 A    9780 TIP4 H1   HW0      0.679100        1.0080           
   11083 A    9780 TIP4 H2   HW0      0.679100        1.0080           
   11084 A    9780 TIP4 BD1  LP0     -1.358200        0.0000           
   11085 A    9781 TIP4 O1   OW0      0.000000       15.9990           
   11086 A    9781 TIP4 H1   HW0      0.679100        1.0080           
   11087 A    9781 TIP4 H2   HW0      0.679100        1.0080           
   11088 A    9781 TIP4 BD1  LP0     -1.358200        0.0000           
   11089 A    9782 TIP4 O1   OW0      0.000000       15.9990           
   11090 A    9782 TIP4 H1   HW0      0.679100        1.0080           
   11091 A    9782 TIP4 H2   HW0      0.679100        1.0080           
   11092 A    9782 TIP4 BD1  LP0     -1.358200        0.0000           
   11093 A    9783 TIP4 O1   OW0      0.000000       15.9990           
   11094 A    9783 TIP4 H1   HW0      0.679100        1.0080           
   11095 A    9783 TIP4 H2   HW0      0.679100        1.0080           
   11096 A    9783 TIP4 BD1  LP0     -1.358200        0.0000           
   11097 A    9784 TIP4 O1   OW0      0.000000       15.9990           
   11098 A    9784 TIP4 H1   HW0      0.679100        1.0080           
   11099 A    9784 TIP4 H2   HW0      0.679100        1.0080           
   11100 A    9784 TIP4 BD1  LP0     -1.358200        0.0000           
   11101 A    9785 TIP4 O1   OW0      0.000000       15.9990           
   11102 A    9785 TIP4 H1   HW0      0.679100        1.0080           
   11103 A    9785 TIP4 H2   HW0      0.679100        1.0080           
   11104 A    9785 TIP4 BD1  LP0     -1.358200        0.0000           
   11105 A    9786 TIP4 O1   OW0      0.000000       15.9990           
   11106 A    9786 TIP4 H1   HW0      0.679100        1.0080           
   11107 A    9786 TIP4 H2   HW0      0.679100        1.0080           
   11108 A    9786 TIP4 BD1  LP0     -1.358200        0.0000           
   11109 A    9787 TIP4 O1   OW0      0.000000       15.9990           
   11110 A    9787 TIP4 H1   HW0      0.679100        1.0080           
   11111 A    9787 TIP4 H2   HW0      0.679100        1.0080           
   11112 A    9787 TIP4 BD1  LP0     -1.358200        0.0000           
   11113 A    9788 TIP4 O1   OW0      0.000000       15.9990           
   11114 A    9788 TIP4 H1   HW0      0.679100        1.0080           
   11115 A    9788 TIP4 H2   HW0      0.679100        1.0080           
   11116 A    9788 TIP4 BD1  LP0     -1.358200        0.0000           
   11117 A    9789 TIP4 O1   OW0      0.000000       15.9990           
   11118 A    9789 TIP4 H1   HW0      0.679100        1.0080           
   11119 A    9789 TIP4 H2   HW0      0.679100        1.0080           
   11120 A    9789 TIP4 BD1  LP0     -1.358200        0.0000           
   11121 A    9790 TIP4 O1   OW0      0.000000       15.9990           
   11122 A    9790 TIP4 H1   HW0      0.679100        1.0080           
   11123 A    9790 TIP4 H2   HW0      0.679100        1.0080           
   11124 A    9790 TIP4 BD1  LP0     -1.358200        0.0000           
   11125 A    9791 TIP4 O1   OW0      0.000000       15.9990           
   11126 A    9791 TIP4 H1   HW0      0.679100        1.0080           
   11127 A    9791 TIP4 H2   HW0      0.679100        1.0080           
   11128 A    9791 TIP4 BD1  LP0     -1.358200        0.0000           
   11129 A    9792 TIP4 O1   OW0      0.000000       15.9990           
   11130 A    9792 TIP4 H1   HW0      0.679100        1.0080           
   11131 A    9792 TIP4 H2   HW0      0.679100        1.0080           
   11132 A    9792 TIP4 BD1  LP0     -1.358200        0.0000           
   11133 A    9793 TIP4 O1   OW0      0.000000       15.9990           
   11134 A    9793 TIP4 H1   HW0      0.679100        1.0080           
   11135 A    9793 TIP4 H2   HW0      0.679100        1.0080           
   11136 A    9793 TIP4 BD1  LP0     -1.358200        0.0000           
   11137 A    9794 TIP4 O1   OW0      0.000000       15.9990           
   11138 A    9794 TIP4 H1   HW0      0.679100        1.0080           
   11139 A    9794 TIP4 H2   HW0      0.679100        1.0080           
   11140 A    9794 TIP4 BD1  LP0     -1.358200        0.0000           
   11141 A    9795 TIP4 O1   OW0      0.000000       15.9990           
   11142 A    9795 TIP4 H1   HW0      0.679100        1.0080           
   11143 A    9795 TIP4 H2   HW0      0.679100        1.0080           
   11144 A    9795 TIP4 BD1  LP0     -1.358200        0.0000           
   11145 A    9796 TIP4 O1   OW0      0.000000       15.9990           
   11146 A    9796 TIP4 H1   HW0      0.679100        1.0080           
   11147 A    9796 TIP4 H2   HW0      0.679100        1.0080           
   11148 A    9796 TIP4 BD1  LP0     -1.358200        0.0000           
   11149 A    9797 TIP4 O1   OW0      0.000000       15.9990           
   11150 A    9797 TIP4 H1   HW0      0.679100        1.0080           
   11151 A    9797 TIP4 H2   HW0      0.679100        1.0080           
   11152 A    9797 TIP4 BD1  LP0     -1.358200        0.0000           
   11153 A    9798 TIP4 O1   OW0      0.000000       15.9990           
   11154 A    9798 TIP4 H1   HW0      0.679100        1.0080           
   11155 A    9798 TIP4 H2   HW0      0.679100        1.0080           
   11156 A    9798 TIP4 BD1  LP0     -1.358200        0.0000           
   11157 A    9799 TIP4 O1   OW0      0.000000       15.9990           
   11158 A    9799 TIP4 H1   HW0      0.679100        1.0080           
   11159 A    9799 TIP4 H2   HW0      0.679100        1.0080           
   11160 A    9799 TIP4 BD1  LP0     -1.358200        0.0000           
   11161 A    9800 TIP4 O1   OW0      0.000000       15.9990           
   11162 A    9800 TIP4 H1   HW0      0.679100        1.0080           
   11163 A    9800 TIP4 H2   HW0      0.679100        1.0080           
   11164 A    9800 TIP4 BD1  LP0     -1.358200        0.0000           
   11165 A    9801 TIP4 O1   OW0      0.000000       15.9990           
   11166 A    9801 TIP4 H1   HW0      0.679100        1.0080           
   11167 A    9801 TIP4 H2   HW0      0.679100        1.0080           
   11168 A    9801 TIP4 BD1  LP0     -1.358200        0.0000           
   11169 A    9802 TIP4 O1   OW0      0.000000       15.9990           
   11170 A    9802 TIP4 H1   HW0      0.679100        1.0080           
   11171 A    9802 TIP4 H2   HW0      0.679100        1.0080           
   11172 A    9802 TIP4 BD1  LP0     -1.358200        0.0000           
   11173 A    9803 TIP4 O1   OW0      0.000000       15.9990           
   11174 A    9803 TIP4 H1   HW0      0.679100        1.0080           
   11175 A    9803 TIP4 H2   HW0      0.679100        1.0080           
   11176 A    9803 TIP4 BD1  LP0     -1.358200        0.0000           
   11177 A    9804 TIP4 O1   OW0      0.000000       15.9990           
   11178 A    9804 TIP4 H1   HW0      0.679100        1.0080           
   11179 A    9804 TIP4 H2   HW0      0.679100        1.0080           
   11180 A    9804 TIP4 BD1  LP0     -1.358200        0.0000           
   11181 A    9805 TIP4 O1   OW0      0.000000       15.9990           
   11182 A    9805 TIP4 H1   HW0      0.679100        1.0080           
   11183 A    9805 TIP4 H2   HW0      0.679100        1.0080           
   11184 A    9805 TIP4 BD1  LP0     -1.358200        0.0000           
   11185 A    9806 TIP4 O1   OW0      0.000000       15.9990           
   11186 A    9806 TIP4 H1   HW0      0.679100        1.0080           
   11187 A    9806 TIP4 H2   HW0      0.679100        1.0080           
   11188 A    9806 TIP4 BD1  LP0     -1.358200        0.0000           
   11189 A    9807 TIP4 O1   OW0      0.000000       15.9990           
   11190 A    9807 TIP4 H1   HW0      0.679100        1.0080           
   11191 A    9807 TIP4 H2   HW0      0.679100        1.0080           
   11192 A    9807 TIP4 BD1  LP0     -1.358200        0.0000           
   11193 A    9808 TIP4 O1   OW0      0.000000       15.9990           
   11194 A    9808 TIP4 H1   HW0      0.679100        1.0080           
   11195 A    9808 TIP4 H2   HW0      0.679100        1.0080           
   11196 A    9808 TIP4 BD1  LP0     -1.358200        0.0000           
   11197 A    9809 TIP4 O1   OW0      0.000000       15.9990           
   11198 A    9809 TIP4 H1   HW0      0.679100        1.0080           
   11199 A    9809 TIP4 H2   HW0      0.679100        1.0080           
   11200 A    9809 TIP4 BD1  LP0     -1.358200        0.0000           
   11201 A    9810 TIP4 O1   OW0      0.000000       15.9990           
   11202 A    9810 TIP4 H1   HW0      0.679100        1.0080           
   11203 A    9810 TIP4 H2   HW0      0.679100        1.0080           
   11204 A    9810 TIP4 BD1  LP0     -1.358200        0.0000           
   11205 A    9811 TIP4 O1   OW0      0.000000       15.9990           
   11206 A    9811 TIP4 H1   HW0      0.679100        1.0080           
   11207 A    9811 TIP4 H2   HW0      0.679100        1.0080           
   11208 A    9811 TIP4 BD1  LP0     -1.358200        0.0000           
   11209 A    9812 TIP4 O1   OW0      0.000000       15.9990           
   11210 A    9812 TIP4 H1   HW0      0.679100        1.0080           
   11211 A    9812 TIP4 H2   HW0      0.679100        1.0080           
   11212 A    9812 TIP4 BD1  LP0     -1.358200        0.0000           
   11213 A    9813 TIP4 O1   OW0      0.000000       15.9990           
   11214 A    9813 TIP4 H1   HW0      0.679100        1.0080           
   11215 A    9813 TIP4 H2   HW0      0.679100        1.0080           
   11216 A    9813 TIP4 BD1  LP0     -1.358200        0.0000           
   11217 A    9814 TIP4 O1   OW0      0.000000       15.9990           
   11218 A    9814 TIP4 H1   HW0      0.679100        1.0080           
   11219 A    9814 TIP4 H2   HW0      0.679100        1.0080           
   11220 A    9814 TIP4 BD1  LP0     -1.358200        0.0000           
   11221 A    9815 TIP4 O1   OW0      0.000000       15.9990           
   11222 A    9815 TIP4 H1   HW0      0.679100        1.0080           
   11223 A    9815 TIP4 H2   HW0      0.679100        1.0080           
   11224 A    9815 TIP4 BD1  LP0     -1.358200        0.0000           
   11225 A    9816 TIP4 O1   OW0      0.000000       15.9990           
   11226 A    9816 TIP4 H1   HW0      0.679100        1.0080           
   11227 A    9816 TIP4 H2   HW0      0.679100        1.0080           
   11228 A    9816 TIP4 BD1  LP0     -1.358200        0.0000           
   11229 A    9817 TIP4 O1   OW0      0.000000       15.9990           
   11230 A    9817 TIP4 H1   HW0      0.679100        1.0080           
   11231 A    9817 TIP4 H2   HW0      0.679100        1.0080           
   11232 A    9817 TIP4 BD1  LP0     -1.358200        0.0000           
   11233 A    9818 TIP4 O1   OW0      0.000000       15.9990           
   11234 A    9818 TIP4 H1   HW0      0.679100        1.0080           
   11235 A    9818 TIP4 H2   HW0      0.679100        1.0080           
   11236 A    9818 TIP4 BD1  LP0     -1.358200        0.0000           
   11237 A    9819 TIP4 O1   OW0      0.000000       15.9990           
   11238 A    9819 TIP4 H1   HW0      0.679100        1.0080           
   11239 A    9819 TIP4 H2   HW0      0.679100        1.0080           
   11240 A    9819 TIP4 BD1  LP0     -1.358200        0.0000           
   11241 A    9820 TIP4 O1   OW0      0.000000       15.9990           
   11242 A    9820 TIP4 H1   HW0      0.679100        1.0080           
   11243 A    9820 TIP4 H2   HW0      0.679100        1.0080           
   11244 A    9820 TIP4 BD1  LP0     -1.358200        0.0000           
   11245 A    9821 TIP4 O1   OW0      0.000000       15.9990           
   11246 A    9821 TIP4 H1   HW0      0.679100        1.0080           
   11247 A    9821 TIP4 H2   HW0      0.679100        1.0080           
   11248 A    9821 TIP4 BD1  LP0     -1.358200        0.0000           
   11249 A    9822 TIP4 O1   OW0      0.000000       15.9990           
   11250 A    9822 TIP4 H1   HW0      0.679100        1.0080           
   11251 A    9822 TIP4 H2   HW0      0.679100        1.0080           
   11252 A    9822 TIP4 BD1  LP0     -1.358200        0.0000           
   11253 A    9823 TIP4 O1   OW0      0.000000       15.9990           
   11254 A    9823 TIP4 H1   HW0      0.679100        1.0080           
   11255 A    9823 TIP4 H2   HW0      0.679100        1.0080           
   11256 A    9823 TIP4 BD1  LP0     -1.358200        0.0000           
   11257 A    9824 TIP4 O1   OW0      0.000000       15.9990           
   11258 A    9824 TIP4 H1   HW0      0.679100        1.0080           
   11259 A    9824 TIP4 H2   HW0      0.679100        1.0080           
   11260 A    9824 TIP4 BD1  LP0     -1.358200        0.0000           
   11261 A    9825 TIP4 O1   OW0      0.000000       15.9990           
   11262 A    9825 TIP4 H1   HW0      0.679100        1.0080           
   11263 A    9825 TIP4 H2   HW0      0.679100        1.0080           
   11264 A    9825 TIP4 BD1  LP0     -1.358200        0.0000           
   11265 A    9826 TIP4 O1   OW0      0.000000       15.9990           
   11266 A    9826 TIP4 H1   HW0      0.679100        1.0080           
   11267 A    9826 TIP4 H2   HW0      0.679100        1.0080           
   11268 A    9826 TIP4 BD1  LP0     -1.358200        0.0000           
   11269 A    9827 TIP4 O1   OW0      0.000000       15.9990           
   11270 A    9827 TIP4 H1   HW0      0.679100        1.0080           
   11271 A    9827 TIP4 H2   HW0      0.679100        1.0080           
   11272 A    9827 TIP4 BD1  LP0     -1.358200        0.0000           
   11273 A    9828 TIP4 O1   OW0      0.000000       15.9990           
   11274 A    9828 TIP4 H1   HW0      0.679100        1.0080           
   11275 A    9828 TIP4 H2   HW0      0.679100        1.0080           
   11276 A    9828 TIP4 BD1  LP0     -1.358200        0.0000           
   11277 A    9829 TIP4 O1   OW0      0.000000       15.9990           
   11278 A    9829 TIP4 H1   HW0      0.679100        1.0080           
   11279 A    9829 TIP4 H2   HW0      0.679100        1.0080           
   11280 A    9829 TIP4 BD1  LP0     -1.358200        0.0000           
   11281 A    9830 TIP4 O1   OW0      0.000000       15.9990           
   11282 A    9830 TIP4 H1   HW0      0.679100        1.0080           
   11283 A    9830 TIP4 H2   HW0      0.679100        1.0080           
   11284 A    9830 TIP4 BD1  LP0     -1.358200        0.0000           
   11285 A    9831 TIP4 O1   OW0      0.000000       15.9990           
   11286 A    9831 TIP4 H1   HW0      0.679100        1.0080           
   11287 A    9831 TIP4 H2   HW0      0.679100        1.0080           
   11288 A    9831 TIP4 BD1  LP0     -1.358200        0.0000           
   11289 A    9832 TIP4 O1   OW0      0.000000       15.9990           
   11290 A    9832 TIP4 H1   HW0      0.679100        1.0080           
   11291 A    9832 TIP4 H2   HW0      0.679100        1.0080           
   11292 A    9832 TIP4 BD1  LP0     -1.358200        0.0000           
   11293 A    9833 TIP4 O1   OW0      0.000000       15.9990           
   11294 A    9833 TIP4 H1   HW0      0.679100        1.0080           
   11295 A    9833 TIP4 H2   HW0      0.679100        1.0080           
   11296 A    9833 TIP4 BD1  LP0     -1.358200        0.0000           
   11297 A    9834 TIP4 O1   OW0      0.000000       15.9990           
   11298 A    9834 TIP4 H1   HW0      0.679100        1.0080           
   11299 A    9834 TIP4 H2   HW0      0.679100        1.0080           
   11300 A    9834 TIP4 BD1  LP0     -1.358200        0.0000           
   11301 A    9835 TIP4 O1   OW0      0.000000       15.9990           
   11302 A    9835 TIP4 H1   HW0      0.679100        1.0080           
   11303 A    9835 TIP4 H2   HW0      0.679100        1.0080           
   11304 A    9835 TIP4 BD1  LP0     -1.358200        0.0000           
   11305 A    9836 TIP4 O1   OW0      0.000000       15.9990           
   11306 A    9836 TIP4 H1   HW0      0.679100        1.0080           
   11307 A    9836 TIP4 H2   HW0      0.679100        1.0080           
   11308 A    9836 TIP4 BD1  LP0     -1.358200        0.0000           
   11309 A    9837 TIP4 O1   OW0      0.000000       15.9990           
   11310 A    9837 TIP4 H1   HW0      0.679100        1.0080           
   11311 A    9837 TIP4 H2   HW0      0.679100        1.0080           
   11312 A    9837 TIP4 BD1  LP0     -1.358200        0.0000           
   11313 A    9838 TIP4 O1   OW0      0.000000       15.9990           
   11314 A    9838 TIP4 H1   HW0      0.679100        1.0080           
   11315 A    9838 TIP4 H2   HW0      0.679100        1.0080           
   11316 A    9838 TIP4 BD1  LP0     -1.358200        0.0000           
   11317 A    9839 TIP4 O1   OW0      0.000000       15.9990           
   11318 A    9839 TIP4 H1   HW0      0.679100        1.0080           
   11319 A    9839 TIP4 H2   HW0      0.679100        1.0080           
   11320 A    9839 TIP4 BD1  LP0     -1.358200        0.0000           
   11321 A    9840 TIP4 O1   OW0      0.000000       15.9990           
   11322 A    9840 TIP4 H1   HW0      0.679100        1.0080           
   11323 A    9840 TIP4 H2   HW0      0.679100        1.0080           
   11324 A    9840 TIP4 BD1  LP0     -1.358200        0.0000           
   11325 A    9841 TIP4 O1   OW0      0.000000       15.9990           
   11326 A    9841 TIP4 H1   HW0      0.679100        1.0080           
   11327 A    9841 TIP4 H2   HW0      0.679100        1.0080           
   11328 A    9841 TIP4 BD1  LP0     -1.358200        0.0000           
   11329 A    9842 TIP4 O1   OW0      0.000000       15.9990           
   11330 A    9842 TIP4 H1   HW0      0.679100        1.0080           
   11331 A    9842 TIP4 H2   HW0      0.679100        1.0080           
   11332 A    9842 TIP4 BD1  LP0     -1.358200        0.0000           
   11333 A    9843 TIP4 O1   OW0      0.000000       15.9990           
   11334 A    9843 TIP4 H1   HW0      0.679100        1.0080           
   11335 A    9843 TIP4 H2   HW0      0.679100        1.0080           
   11336 A    9843 TIP4 BD1  LP0     -1.358200        0.0000           
   11337 A    9844 TIP4 O1   OW0      0.000000       15.9990           
   11338 A    9844 TIP4 H1   HW0      0.679100        1.0080           
   11339 A    9844 TIP4 H2   HW0      0.679100        1.0080           
   11340 A    9844 TIP4 BD1  LP0     -1.358200        0.0000           
   11341 A    9845 TIP4 O1   OW0      0.000000       15.9990           
   11342 A    9845 TIP4 H1   HW0      0.679100        1.0080           
   11343 A    9845 TIP4 H2   HW0      0.679100        1.0080           
   11344 A    9845 TIP4 BD1  LP0     -1.358200        0.0000           
   11345 A    9846 TIP4 O1   OW0      0.000000       15.9990           
   11346 A    9846 TIP4 H1   HW0      0.679100        1.0080           
   11347 A    9846 TIP4 H2   HW0      0.679100        1.0080           
   11348 A    9846 TIP4 BD1  LP0     -1.358200        0.0000           
   11349 A    9847 TIP4 O1   OW0      0.000000       15.9990           
   11350 A    9847 TIP4 H1   HW0      0.679100        1.0080           
   11351 A    9847 TIP4 H2   HW0      0.679100        1.0080           
   11352 A    9847 TIP4 BD1  LP0     -1.358200        0.0000           
   11353 A    9848 TIP4 O1   OW0      0.000000       15.9990           
   11354 A    9848 TIP4 H1   HW0      0.679100        1.0080           
   11355 A    9848 TIP4 H2   HW0      0.679100        1.0080           
   11356 A    9848 TIP4 BD1  LP0     -1.358200        0.0000           
   11357 A    9849 TIP4 O1   OW0      0.000000       15.9990           
   11358 A    9849 TIP4 H1   HW0      0.679100        1.0080           
   11359 A    9849 TIP4 H2   HW0      0.679100        1.0080           
   11360 A    9849 TIP4 BD1  LP0     -1.358200        0.0000           
   11361 A    9850 TIP4 O1   OW0      0.000000       15.9990           
   11362 A    9850 TIP4 H1   HW0      0.679100        1.0080           
   11363 A    9850 TIP4 H2   HW0      0.679100        1.0080           
   11364 A    9850 TIP4 BD1  LP0     -1.358200        0.0000           
   11365 A    9851 TIP4 O1   OW0      0.000000       15.9990           
   11366 A    9851 TIP4 H1   HW0      0.679100        1.0080           
   11367 A    9851 TIP4 H2   HW0      0.679100        1.0080           
   11368 A    9851 TIP4 BD1  LP0     -1.358200        0.0000           
   11369 A    9852 TIP4 O1   OW0      0.000000       15.9990           
   11370 A    9852 TIP4 H1   HW0      0.679100        1.0080           
   11371 A    9852 TIP4 H2   HW0      0.679100        1.0080           
   11372 A    9852 TIP4 BD1  LP0     -1.358200        0.0000           
   11373 A    9853 TIP4 O1   OW0      0.000000       15.9990           
   11374 A    9853 TIP4 H1   HW0      0.679100        1.0080           
   11375 A    9853 TIP4 H2   HW0      0.679100        1.0080           
   11376 A    9853 TIP4 BD1  LP0     -1.358200        0.0000           
   11377 A    9854 TIP4 O1   OW0      0.000000       15.9990           
   11378 A    9854 TIP4 H1   HW0      0.679100        1.0080           
   11379 A    9854 TIP4 H2   HW0      0.679100        1.0080           
   11380 A    9854 TIP4 BD1  LP0     -1.358200        0.0000           
   11381 A    9855 TIP4 O1   OW0      0.000000       15.9990           
   11382 A    9855 TIP4 H1   HW0      0.679100        1.0080           
   11383 A    9855 TIP4 H2   HW0      0.679100        1.0080           
   11384 A    9855 TIP4 BD1  LP0     -1.358200        0.0000           
   11385 A    9856 TIP4 O1   OW0      0.000000       15.9990           
   11386 A    9856 TIP4 H1   HW0      0.679100        1.0080           
   11387 A    9856 TIP4 H2   HW0      0.679100        1.0080           
   11388 A    9856 TIP4 BD1  LP0     -1.358200        0.0000           
   11389 A    9857 TIP4 O1   OW0      0.000000       15.9990           
   11390 A    9857 TIP4 H1   HW0      0.679100        1.0080           
   11391 A    9857 TIP4 H2   HW0      0.679100        1.0080           
   11392 A    9857 TIP4 BD1  LP0     -1.358200        0.0000           
   11393 A    9858 TIP4 O1   OW0      0.000000       15.9990           
   11394 A    9858 TIP4 H1   HW0      0.679100        1.0080           
   11395 A    9858 TIP4 H2   HW0      0.679100        1.0080           
   11396 A    9858 TIP4 BD1  LP0     -1.358200        0.0000           
   11397 A    9859 TIP4 O1   OW0      0.000000       15.9990           
   11398 A    9859 TIP4 H1   HW0      0.679100        1.0080           
   11399 A    9859 TIP4 H2   HW0      0.679100        1.0080           
   11400 A    9859 TIP4 BD1  LP0     -1.358200        0.0000           
   11401 A    9860 TIP4 O1   OW0      0.000000       15.9990           
   11402 A    9860 TIP4 H1   HW0      0.679100        1.0080           
   11403 A    9860 TIP4 H2   HW0      0.679100        1.0080           
   11404 A    9860 TIP4 BD1  LP0     -1.358200        0.0000           
   11405 A    9861 TIP4 O1   OW0      0.000000       15.9990           
   11406 A    9861 TIP4 H1   HW0      0.679100        1.0080           
   11407 A    9861 TIP4 H2   HW0      0.679100        1.0080           
   11408 A    9861 TIP4 BD1  LP0     -1.358200        0.0000           
   11409 A    9862 TIP4 O1   OW0      0.000000       15.9990           
   11410 A    9862 TIP4 H1   HW0      0.679100        1.0080           
   11411 A    9862 TIP4 H2   HW0      0.679100        1.0080           
   11412 A    9862 TIP4 BD1  LP0     -1.358200        0.0000           
   11413 A    9863 TIP4 O1   OW0      0.000000       15.9990           
   11414 A    9863 TIP4 H1   HW0      0.679100        1.0080           
   11415 A    9863 TIP4 H2   HW0      0.679100        1.0080           
   11416 A    9863 TIP4 BD1  LP0     -1.358200        0.0000           
   11417 A    9864 TIP4 O1   OW0      0.000000       15.9990           
   11418 A    9864 TIP4 H1   HW0      0.679100        1.0080           
   11419 A    9864 TIP4 H2   HW0      0.679100        1.0080           
   11420 A    9864 TIP4 BD1  LP0     -1.358200        0.0000           
   11421 A    9865 TIP4 O1   OW0      0.000000       15.9990           
   11422 A    9865 TIP4 H1   HW0      0.679100        1.0080           
   11423 A    9865 TIP4 H2   HW0      0.679100        1.0080           
   11424 A    9865 TIP4 BD1  LP0     -1.358200        0.0000           
   11425 A    9866 TIP4 O1   OW0      0.000000       15.9990           
   11426 A    9866 TIP4 H1   HW0      0.679100        1.0080           
   11427 A    9866 TIP4 H2   HW0      0.679100        1.0080           
   11428 A    9866 TIP4 BD1  LP0     -1.358200        0.0000           
   11429 A    9867 TIP4 O1   OW0      0.000000       15.9990           
   11430 A    9867 TIP4 H1   HW0      0.679100        1.0080           
   11431 A    9867 TIP4 H2   HW0      0.679100        1.0080           
   11432 A    9867 TIP4 BD1  LP0     -1.358200        0.0000           
   11433 A    9868 TIP4 O1   OW0      0.000000       15.9990           
   11434 A    9868 TIP4 H1   HW0      0.679100        1.0080           
   11435 A    9868 TIP4 H2   HW0      0.679100        1.0080           
   11436 A    9868 TIP4 BD1  LP0     -1.358200        0.0000           
   11437 A    9869 TIP4 O1   OW0      0.000000       15.9990           
   11438 A    9869 TIP4 H1   HW0      0.679100        1.0080           
   11439 A    9869 TIP4 H2   HW0      0.679100        1.0080           
   11440 A    9869 TIP4 BD1  LP0     -1.358200        0.0000           
   11441 A    9870 TIP4 O1   OW0      0.000000       15.9990           
   11442 A    9870 TIP4 H1   HW0      0.679100        1.0080           
   11443 A    9870 TIP4 H2   HW0      0.679100        1.0080           
   11444 A    9870 TIP4 BD1  LP0     -1.358200        0.0000           
   11445 A    9871 TIP4 O1   OW0      0.000000       15.9990           
   11446 A    9871 TIP4 H1   HW0      0.679100        1.0080           
   11447 A    9871 TIP4 H2   HW0      0.679100        1.0080           
   11448 A    9871 TIP4 BD1  LP0     -1.358200        0.0000           
   11449 A    9872 TIP4 O1   OW0      0.000000       15.9990           
   11450 A    9872 TIP4 H1   HW0      0.679100        1.0080           
   11451 A    9872 TIP4 H2   HW0      0.679100        1.0080           
   11452 A    9872 TIP4 BD1  LP0     -1.358200        0.0000           
   11453 A    9873 TIP4 O1   OW0      0.000000       15.9990           
   11454 A    9873 TIP4 H1   HW0      0.679100        1.0080           
   11455 A    9873 TIP4 H2   HW0      0.679100        1.0080           
   11456 A    9873 TIP4 BD1  LP0     -1.358200        0.0000           
   11457 A    9874 TIP4 O1   OW0      0.000000       15.9990           
   11458 A    9874 TIP4 H1   HW0      0.679100        1.0080           
   11459 A    9874 TIP4 H2   HW0      0.679100        1.0080           
   11460 A    9874 TIP4 BD1  LP0     -1.358200        0.0000           
   11461 A    9875 TIP4 O1   OW0      0.000000       15.9990           
   11462 A    9875 TIP4 H1   HW0      0.679100        1.0080           
   11463 A    9875 TIP4 H2   HW0      0.679100        1.0080           
   11464 A    9875 TIP4 BD1  LP0     -1.358200        0.0000           
   11465 A    9876 TIP4 O1   OW0      0.000000       15.9990           
   11466 A    9876 TIP4 H1   HW0      0.679100        1.0080           
   11467 A    9876 TIP4 H2   HW0      0.679100        1.0080           
   11468 A    9876 TIP4 BD1  LP0     -1.358200        0.0000           
   11469 A    9877 TIP4 O1   OW0      0.000000       15.9990           
   11470 A    9877 TIP4 H1   HW0      0.679100        1.0080           
   11471 A    9877 TIP4 H2   HW0      0.679100        1.0080           
   11472 A    9877 TIP4 BD1  LP0     -1.358200        0.0000           
   11473 A    9878 TIP4 O1   OW0      0.000000       15.9990           
   11474 A    9878 TIP4 H1   HW0      0.679100        1.0080           
   11475 A    9878 TIP4 H2   HW0      0.679100        1.0080           
   11476 A    9878 TIP4 BD1  LP0     -1.358200        0.0000           
   11477 A    9879 TIP4 O1   OW0      0.000000       15.9990           
   11478 A    9879 TIP4 H1   HW0      0.679100        1.0080           
   11479 A    9879 TIP4 H2   HW0      0.679100        1.0080           
   11480 A    9879 TIP4 BD1  LP0     -1.358200        0.0000           
   11481 A    9880 TIP4 O1   OW0      0.000000       15.9990           
   11482 A    9880 TIP4 H1   HW0      0.679100        1.0080           
   11483 A    9880 TIP4 H2   HW0      0.679100        1.0080           
   11484 A    9880 TIP4 BD1  LP0     -1.358200        0.0000           
   11485 A    9881 TIP4 O1   OW0      0.000000       15.9990           
   11486 A    9881 TIP4 H1   HW0      0.679100        1.0080           
   11487 A    9881 TIP4 H2   HW0      0.679100        1.0080           
   11488 A    9881 TIP4 BD1  LP0     -1.358200        0.0000           
   11489 A    9882 TIP4 O1   OW0      0.000000       15.9990           
   11490 A    9882 TIP4 H1   HW0      0.679100        1.0080           
   11491 A    9882 TIP4 H2   HW0      0.679100        1.0080           
   11492 A    9882 TIP4 BD1  LP0     -1.358200        0.0000           
   11493 A    9883 TIP4 O1   OW0      0.000000       15.9990           
   11494 A    9883 TIP4 H1   HW0      0.679100        1.0080           
   11495 A    9883 TIP4 H2   HW0      0.679100        1.0080           
   11496 A    9883 TIP4 BD1  LP0     -1.358200        0.0000           
   11497 A    9884 TIP4 O1   OW0      0.000000       15.9990           
   11498 A    9884 TIP4 H1   HW0      0.679100        1.0080           
   11499 A    9884 TIP4 H2   HW0      0.679100        1.0080           
   11500 A    9884 TIP4 BD1  LP0     -1.358200        0.0000           
   11501 A    9885 TIP4 O1   OW0      0.000000       15.9990           
   11502 A    9885 TIP4 H1   HW0      0.679100        1.0080           
   11503 A    9885 TIP4 H2   HW0      0.679100        1.0080           
   11504 A    9885 TIP4 BD1  LP0     -1.358200        0.0000           
   11505 A    9886 TIP4 O1   OW0      0.000000       15.9990           
   11506 A    9886 TIP4 H1   HW0      0.679100        1.0080           
   11507 A    9886 TIP4 H2   HW0      0.679100        1.0080           
   11508 A    9886 TIP4 BD1  LP0     -1.358200        0.0000           
   11509 A    9887 TIP4 O1   OW0      0.000000       15.9990           
   11510 A    9887 TIP4 H1   HW0      0.679100        1.0080           
   11511 A    9887 TIP4 H2   HW0      0.679100        1.0080           
   11512 A    9887 TIP4 BD1  LP0     -1.358200        0.0000           
   11513 A    9888 TIP4 O1   OW0      0.000000       15.9990           
   11514 A    9888 TIP4 H1   HW0      0.679100        1.0080           
   11515 A    9888 TIP4 H2   HW0      0.679100        1.0080           
   11516 A    9888 TIP4 BD1  LP0     -1.358200        0.0000           
   11517 A    9889 TIP4 O1   OW0      0.000000       15.9990           
   11518 A    9889 TIP4 H1   HW0      0.679100        1.0080           
   11519 A    9889 TIP4 H2   HW0      0.679100        1.0080           
   11520 A    9889 TIP4 BD1  LP0     -1.358200        0.0000           
   11521 A    9890 TIP4 O1   OW0      0.000000       15.9990           
   11522 A    9890 TIP4 H1   HW0      0.679100        1.0080           
   11523 A    9890 TIP4 H2   HW0      0.679100        1.0080           
   11524 A    9890 TIP4 BD1  LP0     -1.358200        0.0000           
   11525 A    9891 TIP4 O1   OW0      0.000000       15.9990           
   11526 A    9891 TIP4 H1   HW0      0.679100        1.0080           
   11527 A    9891 TIP4 H2   HW0      0.679100        1.0080           
   11528 A    9891 TIP4 BD1  LP0     -1.358200        0.0000           
   11529 A    9892 TIP4 O1   OW0      0.000000       15.9990           
   11530 A    9892 TIP4 H1   HW0      0.679100        1.0080           
   11531 A    9892 TIP4 H2   HW0      0.679100        1.0080           
   11532 A    9892 TIP4 BD1  LP0     -1.358200        0.0000           
   11533 A    9893 TIP4 O1   OW0      0.000000       15.9990           
   11534 A    9893 TIP4 H1   HW0      0.679100        1.0080           
   11535 A    9893 TIP4 H2   HW0      0.679100        1.0080           
   11536 A    9893 TIP4 BD1  LP0     -1.358200        0.0000           
   11537 A    9894 TIP4 O1   OW0      0.000000       15.9990           
   11538 A    9894 TIP4 H1   HW0      0.679100        1.0080           
   11539 A    9894 TIP4 H2   HW0      0.679100        1.0080           
   11540 A    9894 TIP4 BD1  LP0     -1.358200        0.0000           
   11541 A    9895 TIP4 O1   OW0      0.000000       15.9990           
   11542 A    9895 TIP4 H1   HW0      0.679100        1.0080           
   11543 A    9895 TIP4 H2   HW0      0.679100        1.0080           
   11544 A    9895 TIP4 BD1  LP0     -1.358200        0.0000           
   11545 A    9896 TIP4 O1   OW0      0.000000       15.9990           
   11546 A    9896 TIP4 H1   HW0      0.679100        1.0080           
   11547 A    9896 TIP4 H2   HW0      0.679100        1.0080           
   11548 A    9896 TIP4 BD1  LP0     -1.358200        0.0000           
   11549 A    9897 TIP4 O1   OW0      0.000000       15.9990           
   11550 A    9897 TIP4 H1   HW0      0.679100        1.0080           
   11551 A    9897 TIP4 H2   HW0      0.679100        1.0080           
   11552 A    9897 TIP4 BD1  LP0     -1.358200        0.0000           
   11553 A    9898 TIP4 O1   OW0      0.000000       15.9990           
   11554 A    9898 TIP4 H1   HW0      0.679100        1.0080           
   11555 A    9898 TIP4 H2   HW0      0.679100        1.0080           
   11556 A    9898 TIP4 BD1  LP0     -1.358200        0.0000           
   11557 A    9899 TIP4 O1   OW0      0.000000       15.9990           
   11558 A    9899 TIP4 H1   HW0      0.679100        1.0080           
   11559 A    9899 TIP4 H2   HW0      0.679100        1.0080           
   11560 A    9899 TIP4 BD1  LP0     -1.358200        0.0000           
   11561 A    9900 TIP4 O1   OW0      0.000000       15.9990           
   11562 A    9900 TIP4 H1   HW0      0.679100        1.0080           
   11563 A    9900 TIP4 H2   HW0      0.679100        1.0080           
   11564 A    9900 TIP4 BD1  LP0     -1.358200        0.0000           
   11565 A    9901 TIP4 O1   OW0      0.000000       15.9990           
   11566 A    9901 TIP4 H1   HW0      0.679100        1.0080           
   11567 A    9901 TIP4 H2   HW0      0.679100        1.0080           
   11568 A    9901 TIP4 BD1  LP0     -1.358200        0.0000           
   11569 A    9902 TIP4 O1   OW0      0.000000       15.9990           
   11570 A    9902 TIP4 H1   HW0      0.679100        1.0080           
   11571 A    9902 TIP4 H2   HW0      0.679100        1.0080           
   11572 A    9902 TIP4 BD1  LP0     -1.358200        0.0000           
   11573 A    9903 TIP4 O1   OW0      0.000000       15.9990           
   11574 A    9903 TIP4 H1   HW0      0.679100        1.0080           
   11575 A    9903 TIP4 H2   HW0      0.679100        1.0080           
   11576 A    9903 TIP4 BD1  LP0     -1.358200        0.0000           
   11577 A    9904 TIP4 O1   OW0      0.000000       15.9990           
   11578 A    9904 TIP4 H1   HW0      0.679100        1.0080           
   11579 A    9904 TIP4 H2   HW0      0.679100        1.0080           
   11580 A    9904 TIP4 BD1  LP0     -1.358200        0.0000           
   11581 A    9905 TIP4 O1   OW0      0.000000       15.9990           
   11582 A    9905 TIP4 H1   HW0      0.679100        1.0080           
   11583 A    9905 TIP4 H2   HW0      0.679100        1.0080           
   11584 A    9905 TIP4 BD1  LP0     -1.358200        0.0000           
   11585 A    9906 TIP4 O1   OW0      0.000000       15.9990           
   11586 A    9906 TIP4 H1   HW0      0.679100        1.0080           
   11587 A    9906 TIP4 H2   HW0      0.679100        1.0080           
   11588 A    9906 TIP4 BD1  LP0     -1.358200        0.0000           
   11589 A    9907 TIP4 O1   OW0      0.000000       15.9990           
   11590 A    9907 TIP4 H1   HW0      0.679100        1.0080           
   11591 A    9907 TIP4 H2   HW0      0.679100        1.0080           
   11592 A    9907 TIP4 BD1  LP0     -1.358200        0.0000           
   11593 A    9908 TIP4 O1   OW0      0.000000       15.9990           
   11594 A    9908 TIP4 H1   HW0      0.679100        1.0080           
   11595 A    9908 TIP4 H2   HW0      0.679100        1.0080           
   11596 A    9908 TIP4 BD1  LP0     -1.358200        0.0000           
   11597 A    9909 TIP4 O1   OW0      0.000000       15.9990           
   11598 A    9909 TIP4 H1   HW0      0.679100        1.0080           
   11599 A    9909 TIP4 H2   HW0      0.679100        1.0080           
   11600 A    9909 TIP4 BD1  LP0     -1.358200        0.0000           
   11601 A    9910 TIP4 O1   OW0      0.000000       15.9990           
   11602 A    9910 TIP4 H1   HW0      0.679100        1.0080           
   11603 A    9910 TIP4 H2   HW0      0.679100        1.0080           
   11604 A    9910 TIP4 BD1  LP0     -1.358200        0.0000           
   11605 A    9911 TIP4 O1   OW0      0.000000       15.9990           
   11606 A    9911 TIP4 H1   HW0      0.679100        1.0080           
   11607 A    9911 TIP4 H2   HW0      0.679100        1.0080           
   11608 A    9911 TIP4 BD1  LP0     -1.358200        0.0000           
   11609 A    9912 TIP4 O1   OW0      0.000000       15.9990           
   11610 A    9912 TIP4 H1   HW0      0.679100        1.0080           
   11611 A    9912 TIP4 H2   HW0      0.679100        1.0080           
   11612 A    9912 TIP4 BD1  LP0     -1.358200        0.0000           
   11613 A    9913 TIP4 O1   OW0      0.000000       15.9990           
   11614 A    9913 TIP4 H1   HW0      0.679100        1.0080           
   11615 A    9913 TIP4 H2   HW0      0.679100        1.0080           
   11616 A    9913 TIP4 BD1  LP0     -1.358200        0.0000           
   11617 A    9914 TIP4 O1   OW0      0.000000       15.9990           
   11618 A    9914 TIP4 H1   HW0      0.679100        1.0080           
   11619 A    9914 TIP4 H2   HW0      0.679100        1.0080           
   11620 A    9914 TIP4 BD1  LP0     -1.358200        0.0000           
   11621 A    9915 TIP4 O1   OW0      0.000000       15.9990           
   11622 A    9915 TIP4 H1   HW0      0.679100        1.0080           
   11623 A    9915 TIP4 H2   HW0      0.679100        1.0080           
   11624 A    9915 TIP4 BD1  LP0     -1.358200        0.0000           
   11625 A    9916 TIP4 O1   OW0      0.000000       15.9990           
   11626 A    9916 TIP4 H1   HW0      0.679100        1.0080           
   11627 A    9916 TIP4 H2   HW0      0.679100        1.0080           
   11628 A    9916 TIP4 BD1  LP0     -1.358200        0.0000           
   11629 A    9917 TIP4 O1   OW0      0.000000       15.9990           
   11630 A    9917 TIP4 H1   HW0      0.679100        1.0080           
   11631 A    9917 TIP4 H2   HW0      0.679100        1.0080           
   11632 A    9917 TIP4 BD1  LP0     -1.358200        0.0000           
   11633 A    9918 TIP4 O1   OW0      0.000000       15.9990           
   11634 A    9918 TIP4 H1   HW0      0.679100        1.0080           
   11635 A    9918 TIP4 H2   HW0      0.679100        1.0080           
   11636 A    9918 TIP4 BD1  LP0     -1.358200        0.0000           
   11637 A    9919 TIP4 O1   OW0      0.000000       15.9990           
   11638 A    9919 TIP4 H1   HW0      0.679100        1.0080           
   11639 A    9919 TIP4 H2   HW0      0.679100        1.0080           
   11640 A    9919 TIP4 BD1  LP0     -1.358200        0.0000           
   11641 A    9920 TIP4 O1   OW0      0.000000       15.9990           
   11642 A    9920 TIP4 H1   HW0      0.679100        1.0080           
   11643 A    9920 TIP4 H2   HW0      0.679100        1.0080           
   11644 A    9920 TIP4 BD1  LP0     -1.358200        0.0000           
   11645 A    9921 TIP4 O1   OW0      0.000000       15.9990           
   11646 A    9921 TIP4 H1   HW0      0.679100        1.0080           
   11647 A    9921 TIP4 H2   HW0      0.679100        1.0080           
   11648 A    9921 TIP4 BD1  LP0     -1.358200        0.0000           
   11649 A    9922 TIP4 O1   OW0      0.000000       15.9990           
   11650 A    9922 TIP4 H1   HW0      0.679100        1.0080           
   11651 A    9922 TIP4 H2   HW0      0.679100        1.0080           
   11652 A    9922 TIP4 BD1  LP0     -1.358200        0.0000           
   11653 A    9923 TIP4 O1   OW0      0.000000       15.9990           
   11654 A    9923 TIP4 H1   HW0      0.679100        1.0080           
   11655 A    9923 TIP4 H2   HW0      0.679100        1.0080           
   11656 A    9923 TIP4 BD1  LP0     -1.358200        0.0000           
   11657 A    9924 TIP4 O1   OW0      0.000000       15.9990           
   11658 A    9924 TIP4 H1   HW0      0.679100        1.0080           
   11659 A    9924 TIP4 H2   HW0      0.679100        1.0080           
   11660 A    9924 TIP4 BD1  LP0     -1.358200        0.0000           
   11661 A    9925 TIP4 O1   OW0      0.000000       15.9990           
   11662 A    9925 TIP4 H1   HW0      0.679100        1.0080           
   11663 A    9925 TIP4 H2   HW0      0.679100        1.0080           
   11664 A    9925 TIP4 BD1  LP0     -1.358200        0.0000           
   11665 A    9926 TIP4 O1   OW0      0.000000       15.9990           
   11666 A    9926 TIP4 H1   HW0      0.679100        1.0080           
   11667 A    9926 TIP4 H2   HW0      0.679100        1.0080           
   11668 A    9926 TIP4 BD1  LP0     -1.358200        0.0000           
   11669 A    9927 TIP4 O1   OW0      0.000000       15.9990           
   11670 A    9927 TIP4 H1   HW0      0.679100        1.0080           
   11671 A    9927 TIP4 H2   HW0      0.679100        1.0080           
   11672 A    9927 TIP4 BD1  LP0     -1.358200        0.0000           
   11673 A    9928 TIP4 O1   OW0      0.000000       15.9990           
   11674 A    9928 TIP4 H1   HW0      0.679100        1.0080           
   11675 A    9928 TIP4 H2   HW0      0.679100        1.0080           
   11676 A    9928 TIP4 BD1  LP0     -1.358200        0.0000           
   11677 A    9929 TIP4 O1   OW0      0.000000       15.9990           
   11678 A    9929 TIP4 H1   HW0      0.679100        1.0080           
   11679 A    9929 TIP4 H2   HW0      0.679100        1.0080           
   11680 A    9929 TIP4 BD1  LP0     -1.358200        0.0000           
   11681 A    9930 TIP4 O1   OW0      0.000000       15.9990           
   11682 A    9930 TIP4 H1   HW0      0.679100        1.0080           
   11683 A    9930 TIP4 H2   HW0      0.679100        1.0080           
   11684 A    9930 TIP4 BD1  LP0     -1.358200        0.0000           
   11685 A    9931 TIP4 O1   OW0      0.000000       15.9990           
   11686 A    9931 TIP4 H1   HW0      0.679100        1.0080           
   11687 A    9931 TIP4 H2   HW0      0.679100        1.0080           
   11688 A    9931 TIP4 BD1  LP0     -1.358200        0.0000           
   11689 A    9932 TIP4 O1   OW0      0.000000       15.9990           
   11690 A    9932 TIP4 H1   HW0      0.679100        1.0080           
   11691 A    9932 TIP4 H2   HW0      0.679100        1.0080           
   11692 A    9932 TIP4 BD1  LP0     -1.358200        0.0000           
   11693 A    9933 TIP4 O1   OW0      0.000000       15.9990           
   11694 A    9933 TIP4 H1   HW0      0.679100        1.0080           
   11695 A    9933 TIP4 H2   HW0      0.679100        1.0080           
   11696 A    9933 TIP4 BD1  LP0     -1.358200        0.0000           
   11697 A    9934 TIP4 O1   OW0      0.000000       15.9990           
   11698 A    9934 TIP4 H1   HW0      0.679100        1.0080           
   11699 A    9934 TIP4 H2   HW0      0.679100        1.0080           
   11700 A    9934 TIP4 BD1  LP0     -1.358200        0.0000           
   11701 A    9935 TIP4 O1   OW0      0.000000       15.9990           
   11702 A    9935 TIP4 H1   HW0      0.679100        1.0080           
   11703 A    9935 TIP4 H2   HW0      0.679100        1.0080           
   11704 A    9935 TIP4 BD1  LP0     -1.358200        0.0000           
   11705 A    9936 TIP4 O1   OW0      0.000000       15.9990           
   11706 A    9936 TIP4 H1   HW0      0.679100        1.0080           
   11707 A    9936 TIP4 H2   HW0      0.679100        1.0080           
   11708 A    9936 TIP4 BD1  LP0     -1.358200        0.0000           
   11709 A    9937 TIP4 O1   OW0      0.000000       15.9990           
   11710 A    9937 TIP4 H1   HW0      0.679100        1.0080           
   11711 A    9937 TIP4 H2   HW0      0.679100        1.0080           
   11712 A    9937 TIP4 BD1  LP0     -1.358200        0.0000           
   11713 A    9938 TIP4 O1   OW0      0.000000       15.9990           
   11714 A    9938 TIP4 H1   HW0      0.679100        1.0080           
   11715 A    9938 TIP4 H2   HW0      0.679100        1.0080           
   11716 A    9938 TIP4 BD1  LP0     -1.358200        0.0000           
   11717 A    9939 TIP4 O1   OW0      0.000000       15.9990           
   11718 A    9939 TIP4 H1   HW0      0.679100        1.0080           
   11719 A    9939 TIP4 H2   HW0      0.679100        1.0080           
   11720 A    9939 TIP4 BD1  LP0     -1.358200        0.0000           
   11721 A    9940 TIP4 O1   OW0      0.000000       15.9990           
   11722 A    9940 TIP4 H1   HW0      0.679100        1.0080           
   11723 A    9940 TIP4 H2   HW0      0.679100        1.0080           
   11724 A    9940 TIP4 BD1  LP0     -1.358200        0.0000           
   11725 A    9941 TIP4 O1   OW0      0.000000       15.9990           
   11726 A    9941 TIP4 H1   HW0      0.679100        1.0080           
   11727 A    9941 TIP4 H2   HW0      0.679100        1.0080           
   11728 A    9941 TIP4 BD1  LP0     -1.358200        0.0000           
   11729 A    9942 TIP4 O1   OW0      0.000000       15.9990           
   11730 A    9942 TIP4 H1   HW0      0.679100        1.0080           
   11731 A    9942 TIP4 H2   HW0      0.679100        1.0080           
   11732 A    9942 TIP4 BD1  LP0     -1.358200        0.0000           
   11733 A    9943 TIP4 O1   OW0      0.000000       15.9990           
   11734 A    9943 TIP4 H1   HW0      0.679100        1.0080           
   11735 A    9943 TIP4 H2   HW0      0.679100        1.0080           
   11736 A    9943 TIP4 BD1  LP0     -1.358200        0.0000           
   11737 A    9944 TIP4 O1   OW0      0.000000       15.9990           
   11738 A    9944 TIP4 H1   HW0      0.679100        1.0080           
   11739 A    9944 TIP4 H2   HW0      0.679100        1.0080           
   11740 A    9944 TIP4 BD1  LP0     -1.358200        0.0000           
   11741 A    9945 TIP4 O1   OW0      0.000000       15.9990           
   11742 A    9945 TIP4 H1   HW0      0.679100        1.0080           
   11743 A    9945 TIP4 H2   HW0      0.679100        1.0080           
   11744 A    9945 TIP4 BD1  LP0     -1.358200        0.0000           
   11745 A    9946 TIP4 O1   OW0      0.000000       15.9990           
   11746 A    9946 TIP4 H1   HW0      0.679100        1.0080           
   11747 A    9946 TIP4 H2   HW0      0.679100        1.0080           
   11748 A    9946 TIP4 BD1  LP0     -1.358200        0.0000           
   11749 A    9947 TIP4 O1   OW0      0.000000       15.9990           
   11750 A    9947 TIP4 H1   HW0      0.679100        1.0080           
   11751 A    9947 TIP4 H2   HW0      0.679100        1.0080           
   11752 A    9947 TIP4 BD1  LP0     -1.358200        0.0000           
   11753 A    9948 TIP4 O1   OW0      0.000000       15.9990           
   11754 A    9948 TIP4 H1   HW0      0.679100        1.0080           
   11755 A    9948 TIP4 H2   HW0      0.679100        1.0080           
   11756 A    9948 TIP4 BD1  LP0     -1.358200        0.0000           
   11757 A    9949 TIP4 O1   OW0      0.000000       15.9990           
   11758 A    9949 TIP4 H1   HW0      0.679100        1.0080           
   11759 A    9949 TIP4 H2   HW0      0.679100        1.0080           
   11760 A    9949 TIP4 BD1  LP0     -1.358200        0.0000           
   11761 A    9950 TIP4 O1   OW0      0.000000       15.9990           
   11762 A    9950 TIP4 H1   HW0      0.679100        1.0080           
   11763 A    9950 TIP4 H2   HW0      0.679100        1.0080           
   11764 A    9950 TIP4 BD1  LP0     -1.358200        0.0000           
   11765 A    9951 TIP4 O1   OW0      0.000000       15.9990           
   11766 A    9951 TIP4 H1   HW0      0.679100        1.0080           
   11767 A    9951 TIP4 H2   HW0      0.679100        1.0080           
   11768 A    9951 TIP4 BD1  LP0     -1.358200        0.0000           
   11769 A    9952 TIP4 O1   OW0      0.000000       15.9990           
   11770 A    9952 TIP4 H1   HW0      0.679100        1.0080           
   11771 A    9952 TIP4 H2   HW0      0.679100        1.0080           
   11772 A    9952 TIP4 BD1  LP0     -1.358200        0.0000           
   11773 A    9953 TIP4 O1   OW0      0.000000       15.9990           
   11774 A    9953 TIP4 H1   HW0      0.679100        1.0080           
   11775 A    9953 TIP4 H2   HW0      0.679100        1.0080           
   11776 A    9953 TIP4 BD1  LP0     -1.358200        0.0000           
   11777 A    9954 TIP4 O1   OW0      0.000000       15.9990           
   11778 A    9954 TIP4 H1   HW0      0.679100        1.0080           
   11779 A    9954 TIP4 H2   HW0      0.679100        1.0080           
   11780 A    9954 TIP4 BD1  LP0     -1.358200        0.0000           
   11781 A    9955 TIP4 O1   OW0      0.000000       15.9990           
   11782 A    9955 TIP4 H1   HW0      0.679100        1.0080           
   11783 A    9955 TIP4 H2   HW0      0.679100        1.0080           
   11784 A    9955 TIP4 BD1  LP0     -1.358200        0.0000           
   11785 A    9956 TIP4 O1   OW0      0.000000       15.9990           
   11786 A    9956 TIP4 H1   HW0      0.679100        1.0080           
   11787 A    9956 TIP4 H2   HW0      0.679100        1.0080           
   11788 A    9956 TIP4 BD1  LP0     -1.358200        0.0000           
   11789 A    9957 TIP4 O1   OW0      0.000000       15.9990           
   11790 A    9957 TIP4 H1   HW0      0.679100        1.0080           
   11791 A    9957 TIP4 H2   HW0      0.679100        1.0080           
   11792 A    9957 TIP4 BD1  LP0     -1.358200        0.0000           
   11793 A    9958 TIP4 O1   OW0      0.000000       15.9990           
   11794 A    9958 TIP4 H1   HW0      0.679100        1.0080           
   11795 A    9958 TIP4 H2   HW0      0.679100        1.0080           
   11796 A    9958 TIP4 BD1  LP0     -1.358200        0.0000           
   11797 A    9959 TIP4 O1   OW0      0.000000       15.9990           
   11798 A    9959 TIP4 H1   HW0      0.679100        1.0080           
   11799 A    9959 TIP4 H2   HW0      0.679100        1.0080           
   11800 A    9959 TIP4 BD1  LP0     -1.358200        0.0000           
   11801 A    9960 TIP4 O1   OW0      0.000000       15.9990           
   11802 A    9960 TIP4 H1   HW0      0.679100        1.0080           
   11803 A    9960 TIP4 H2   HW0      0.679100        1.0080           
   11804 A    9960 TIP4 BD1  LP0     -1.358200        0.0000           
   11805 A    9961 TIP4 O1   OW0      0.000000       15.9990           
   11806 A    9961 TIP4 H1   HW0      0.679100        1.0080           
   11807 A    9961 TIP4 H2   HW0      0.679100        1.0080           
   11808 A    9961 TIP4 BD1  LP0     -1.358200        0.0000           
   11809 A    9962 TIP4 O1   OW0      0.000000       15.9990           
   11810 A    9962 TIP4 H1   HW0      0.679100        1.0080           
   11811 A    9962 TIP4 H2   HW0      0.679100        1.0080           
   11812 A    9962 TIP4 BD1  LP0     -1.358200        0.0000           
   11813 A    9963 TIP4 O1   OW0      0.000000       15.9990           
   11814 A    9963 TIP4 H1   HW0      0.679100        1.0080           
   11815 A    9963 TIP4 H2   HW0      0.679100        1.0080           
   11816 A    9963 TIP4 BD1  LP0     -1.358200        0.0000           
   11817 A    9964 TIP4 O1   OW0      0.000000       15.9990           
   11818 A    9964 TIP4 H1   HW0      0.679100        1.0080           
   11819 A    9964 TIP4 H2   HW0      0.679100        1.0080           
   11820 A    9964 TIP4 BD1  LP0     -1.358200        0.0000           
   11821 A    9965 TIP4 O1   OW0      0.000000       15.9990           
   11822 A    9965 TIP4 H1   HW0      0.679100        1.0080           
   11823 A    9965 TIP4 H2   HW0      0.679100        1.0080           
   11824 A    9965 TIP4 BD1  LP0     -1.358200        0.0000           
   11825 A    9966 TIP4 O1   OW0      0.000000       15.9990           
   11826 A    9966 TIP4 H1   HW0      0.679100        1.0080           
   11827 A    9966 TIP4 H2   HW0      0.679100        1.0080           
   11828 A    9966 TIP4 BD1  LP0     -1.358200        0.0000           
   11829 A    9967 TIP4 O1   OW0      0.000000       15.9990           
   11830 A    9967 TIP4 H1   HW0      0.679100        1.0080           
   11831 A    9967 TIP4 H2   HW0      0.679100        1.0080           
   11832 A    9967 TIP4 BD1  LP0     -1.358200        0.0000           
   11833 A    9968 TIP4 O1   OW0      0.000000       15.9990           
   11834 A    9968 TIP4 H1   HW0      0.679100        1.0080           
   11835 A    9968 TIP4 H2   HW0      0.679100        1.0080           
   11836 A    9968 TIP4 BD1  LP0     -1.358200        0.0000           
   11837 A    9969 TIP4 O1   OW0      0.000000       15.9990           
   11838 A    9969 TIP4 H1   HW0      0.679100        1.0080           
   11839 A    9969 TIP4 H2   HW0      0.679100        1.0080           
   11840 A    9969 TIP4 BD1  LP0     -1.358200        0.0000           
   11841 A    9970 TIP4 O1   OW0      0.000000       15.9990           
   11842 A    9970 TIP4 H1   HW0      0.679100        1.0080           
   11843 A    9970 TIP4 H2   HW0      0.679100        1.0080           
   11844 A    9970 TIP4 BD1  LP0     -1.358200        0.0000           
   11845 A    9971 TIP4 O1   OW0      0.000000       15.9990           
   11846 A    9971 TIP4 H1   HW0      0.679100        1.0080           
   11847 A    9971 TIP4 H2   HW0      0.679100        1.0080           
   11848 A    9971 TIP4 BD1  LP0     -1.358200        0.0000           
   11849 A    9972 TIP4 O1   OW0      0.000000       15.9990           
   11850 A    9972 TIP4 H1   HW0      0.679100        1.0080           
   11851 A    9972 TIP4 H2   HW0      0.679100        1.0080           
   11852 A    9972 TIP4 BD1  LP0     -1.358200        0.0000           
   11853 A    9973 TIP4 O1   OW0      0.000000       15.9990           
   11854 A    9973 TIP4 H1   HW0      0.679100        1.0080           
   11855 A    9973 TIP4 H2   HW0      0.679100        1.0080           
   11856 A    9973 TIP4 BD1  LP0     -1.358200        0.0000           
   11857 A    9974 TIP4 O1   OW0      0.000000       15.9990           
   11858 A    9974 TIP4 H1   HW0      0.679100        1.0080           
   11859 A    9974 TIP4 H2   HW0      0.679100        1.0080           
   11860 A    9974 TIP4 BD1  LP0     -1.358200        0.0000           
   11861 A    9975 TIP4 O1   OW0      0.000000       15.9990           
   11862 A    9975 TIP4 H1   HW0      0.679100        1.0080           
   11863 A    9975 TIP4 H2   HW0      0.679100        1.0080           
   11864 A    9975 TIP4 BD1  LP0     -1.358200        0.0000           
   11865 A    9976 TIP4 O1   OW0      0.000000       15.9990           
   11866 A    9976 TIP4 H1   HW0      0.679100        1.0080           
   11867 A    9976 TIP4 H2   HW0      0.679100        1.0080           
   11868 A    9976 TIP4 BD1  LP0     -1.358200        0.0000           
   11869 A    9977 TIP4 O1   OW0      0.000000       15.9990           
   11870 A    9977 TIP4 H1   HW0      0.679100        1.0080           
   11871 A    9977 TIP4 H2   HW0      0.679100        1.0080           
   11872 A    9977 TIP4 BD1  LP0     -1.358200        0.0000           
   11873 A    9978 TIP4 O1   OW0      0.000000       15.9990           
   11874 A    9978 TIP4 H1   HW0      0.679100        1.0080           
   11875 A    9978 TIP4 H2   HW0      0.679100        1.0080           
   11876 A    9978 TIP4 BD1  LP0     -1.358200        0.0000           
   11877 A    9979 TIP4 O1   OW0      0.000000       15.9990           
   11878 A    9979 TIP4 H1   HW0      0.679100        1.0080           
   11879 A    9979 TIP4 H2   HW0      0.679100        1.0080           
   11880 A    9979 TIP4 BD1  LP0     -1.358200        0.0000           
   11881 A    9980 TIP4 O1   OW0      0.000000       15.9990           
   11882 A    9980 TIP4 H1   HW0      0.679100        1.0080           
   11883 A    9980 TIP4 H2   HW0      0.679100        1.0080           
   11884 A    9980 TIP4 BD1  LP0     -1.358200        0.0000           
   11885 A    9981 TIP4 O1   OW0      0.000000       15.9990           
   11886 A    9981 TIP4 H1   HW0      0.679100        1.0080           
   11887 A    9981 TIP4 H2   HW0      0.679100        1.0080           
   11888 A    9981 TIP4 BD1  LP0     -1.358200        0.0000           
   11889 A    9982 TIP4 O1   OW0      0.000000       15.9990           
   11890 A    9982 TIP4 H1   HW0      0.679100        1.0080           
   11891 A    9982 TIP4 H2   HW0      0.679100        1.0080           
   11892 A    9982 TIP4 BD1  LP0     -1.358200        0.0000           
   11893 A    9983 TIP4 O1   OW0      0.000000       15.9990           
   11894 A    9983 TIP4 H1   HW0      0.679100        1.0080           
   11895 A    9983 TIP4 H2   HW0      0.679100        1.0080           
   11896 A    9983 TIP4 BD1  LP0     -1.358200        0.0000           
   11897 A    9984 TIP4 O1   OW0      0.000000       15.9990           
   11898 A    9984 TIP4 H1   HW0      0.679100        1.0080           
   11899 A    9984 TIP4 H2   HW0      0.679100        1.0080           
   11900 A    9984 TIP4 BD1  LP0     -1.358200        0.0000           
   11901 A    9985 TIP4 O1   OW0      0.000000       15.9990           
   11902 A    9985 TIP4 H1   HW0      0.679100        1.0080           
   11903 A    9985 TIP4 H2   HW0      0.679100        1.0080           
   11904 A    9985 TIP4 BD1  LP0     -1.358200        0.0000           
   11905 A    9986 TIP4 O1   OW0      0.000000       15.9990           
   11906 A    9986 TIP4 H1   HW0      0.679100        1.0080           
   11907 A    9986 TIP4 H2   HW0      0.679100        1.0080           
   11908 A    9986 TIP4 BD1  LP0     -1.358200        0.0000           
   11909 A    9987 TIP4 O1   OW0      0.000000       15.9990           
   11910 A    9987 TIP4 H1   HW0      0.679100        1.0080           
   11911 A    9987 TIP4 H2   HW0      0.679100        1.0080           
   11912 A    9987 TIP4 BD1  LP0     -1.358200        0.0000           
   11913 A    9988 TIP4 O1   OW0      0.000000       15.9990           
   11914 A    9988 TIP4 H1   HW0      0.679100        1.0080           
   11915 A    9988 TIP4 H2   HW0      0.679100        1.0080           
   11916 A    9988 TIP4 BD1  LP0     -1.358200        0.0000           
   11917 A    9989 TIP4 O1   OW0      0.000000       15.9990           
   11918 A    9989 TIP4 H1   HW0      0.679100        1.0080           
   11919 A    9989 TIP4 H2   HW0      0.679100        1.0080           
   11920 A    9989 TIP4 BD1  LP0     -1.358200        0.0000           
   11921 A    9990 TIP4 O1   OW0      0.000000       15.9990           
   11922 A    9990 TIP4 H1   HW0      0.679100        1.0080           
   11923 A    9990 TIP4 H2   HW0      0.679100        1.0080           
   11924 A    9990 TIP4 BD1  LP0     -1.358200        0.0000           
   11925 A    9991 TIP4 O1   OW0      0.000000       15.9990           
   11926 A    9991 TIP4 H1   HW0      0.679100        1.0080           
   11927 A    9991 TIP4 H2   HW0      0.679100        1.0080           
   11928 A    9991 TIP4 BD1  LP0     -1.358200        0.0000           
   11929 A    9992 TIP4 O1   OW0      0.000000       15.9990           
   11930 A    9992 TIP4 H1   HW0      0.679100        1.0080           
   11931 A    9992 TIP4 H2   HW0      0.679100        1.0080           
   11932 A    9992 TIP4 BD1  LP0     -1.358200        0.0000           
   11933 A    9993 TIP4 O1   OW0      0.000000       15.9990           
   11934 A    9993 TIP4 H1   HW0      0.679100        1.0080           
   11935 A    9993 TIP4 H2   HW0      0.679100        1.0080           
   11936 A    9993 TIP4 BD1  LP0     -1.358200        0.0000           
   11937 A    9994 TIP4 O1   OW0      0.000000       15.9990           
   11938 A    9994 TIP4 H1   HW0      0.679100        1.0080           
   11939 A    9994 TIP4 H2   HW0      0.679100        1.0080           
   11940 A    9994 TIP4 BD1  LP0     -1.358200        0.0000           
   11941 A    9995 TIP4 O1   OW0      0.000000       15.9990           
   11942 A    9995 TIP4 H1   HW0      0.679100        1.0080           
   11943 A    9995 TIP4 H2   HW0      0.679100        1.0080           
   11944 A    9995 TIP4 BD1  LP0     -1.358200        0.0000           
   11945 A    9996 TIP4 O1   OW0      0.000000       15.9990           
   11946 A    9996 TIP4 H1   HW0      0.679100        1.0080           
   11947 A    9996 TIP4 H2   HW0      0.679100        1.0080           
   11948 A    9996 TIP4 BD1  LP0     -1.358200        0.0000           
   11949 A    9997 TIP4 O1   OW0      0.000000       15.9990           
   11950 A    9997 TIP4 H1   HW0      0.679100        1.0080           
   11951 A    9997 TIP4 H2   HW0      0.679100        1.0080           
   11952 A    9997 TIP4 BD1  LP0     -1.358200        0.0000           
   11953 A    9998 TIP4 O1   OW0      0.000000       15.9990           
   11954 A    9998 TIP4 H1   HW0      0.679100        1.0080           
   11955 A    9998 TIP4 H2   HW0      0.679100        1.0080           
   11956 A    9998 TIP4 BD1  LP0     -1.358200        0.0000           
   11957 A    9999 TIP4 O1   OW0      0.000000       15.9990           
   11958 A    9999 TIP4 H1   HW0      0.679100        1.0080           
   11959 A    9999 TIP4 H2   HW0      0.679100        1.0080           
   11960 A    9999 TIP4 BD1  LP0     -1.358200        0.0000           
   11961 B    1    TIP4 O1   OW0      0.000000       15.9990           
   11962 B    1    TIP4 H1   HW0      0.679100        1.0080           
   11963 B    1    TIP4 H2   HW0      0.679100        1.0080           
   11964 B    1    TIP4 BD1  LP0     -1.358200        0.0000           
   11965 B    2    TIP4 O1   OW0      0.000000       15.9990           
   11966 B    2    TIP4 H1   HW0      0.679100        1.0080           
   11967 B    2    TIP4 H2   HW0      0.679100        1.0080           
   11968 B    2    TIP4 BD1  LP0     -1.358200        0.0000           
   11969 B    3    TIP4 O1   OW0      0.000000       15.9990           
   11970 B    3    TIP4 H1   HW0      0.679100        1.0080           
   11971 B    3    TIP4 H2   HW0      0.679100        1.0080           
   11972 B    3    TIP4 BD1  LP0     -1.358200        0.0000           
   11973 B    4    TIP4 O1   OW0      0.000000       15.9990           
   11974 B    4    TIP4 H1   HW0      0.679100        1.0080           
   11975 B    4    TIP4 H2   HW0      0.679100        1.0080           
   11976 B    4    TIP4 BD1  LP0     -1.358200        0.0000           
   11977 B    5    TIP4 O1   OW0      0.000000       15.9990           
   11978 B    5    TIP4 H1   HW0      0.679100        1.0080           
   11979 B    5    TIP4 H2   HW0      0.679100        1.0080           
   11980 B    5    TIP4 BD1  LP0     -1.358200        0.0000           
   11981 B    6    TIP4 O1   OW0      0.000000       15.9990           
   11982 B    6    TIP4 H1   HW0      0.679100        1.0080           
   11983 B    6    TIP4 H2   HW0      0.679100        1.0080           
   11984 B    6    TIP4 BD1  LP0     -1.358200        0.0000           
   11985 B    7    TIP4 O1   OW0      0.000000       15.9990           
   11986 B    7    TIP4 H1   HW0      0.679100        1.0080           
   11987 B    7    TIP4 H2   HW0      0.679100        1.0080           
   11988 B    7    TIP4 BD1  LP0     -1.358200        0.0000           
   11989 B    8    TIP4 O1   OW0      0.000000       15.9990           
   11990 B    8    TIP4 H1   HW0      0.679100        1.0080           
   11991 B    8    TIP4 H2   HW0      0.679100        1.0080           
   11992 B    8    TIP4 BD1  LP0     -1.358200        0.0000           
   11993 B    9    TIP4 O1   OW0      0.000000       15.9990           
   11994 B    9    TIP4 H1   HW0      0.679100        1.0080           
   11995 B    9    TIP4 H2   HW0      0.679100        1.0080           
   11996 B    9    TIP4 BD1  LP0     -1.358200        0.0000           
   11997 B    10   TIP4 O1   OW0      0.000000       15.9990           
   11998 B    10   TIP4 H1   HW0      0.679100        1.0080           
   11999 B    10   TIP4 H2   HW0      0.679100        1.0080           
   12000 B    10   TIP4 BD1  LP0     -1.358200        0.0000           

    9000 !NBOND: bonds
       1       2       1       3       1       4       5       6
       5       7       5       8       9      10       9      11
       9      12      13      14      13      15      13      16
      17      18      17      19      17      20      21      22
      21      23      21      24      25      26      25      27
      25      28      29      30      29      31      29      32
      33      34      33      35      33      36      37      38
      37      39      37      40      41      42      41      43
      41      44      45      46      45      47      45      48
      49      50      49      51      49      52      53      54
      53      55      53      56      57      58      57      59
      57      60      61      62      61      63      61      64
      65      66      65      67      65      68      69      70
      69      71      69      72      73      74      73      75
      73      76      77      78      77      79      77      80
      81      82      81      83      81      84      85      86
      85      87      85      88      89      90      89      91
      89      92      93      94      93      95      93      96
      97      98      97      99      97     100     101     102
     101     103     101     104     105     106     105     107
     105     108     109     110     109     111     109     112
     113     114     113     115     113     116     117     118
     117     119     117     120     121     122     121     123
     121     124     125     126     125     127     125     128
     129     130     129     131     129     132     133     134
     133     135     133     136     137     138     137     139
     137     140     141     142     141     143     141     144
     145     146     145     147     145     148     149     150
     149     151     149     152     153     154     153     155
     153     156     157     158     157     159     157     160
     161     162     161     163     161     164     165     166
     165     167     165     168     169     170     169     171
     169     172     173     174     173     175     173     176
     177     178     177     179     177     180     181     182
     181     183     181     184     185     186     185     187
     185     188     189     190     189     191     189     192
     193     194     193     195     193     196     197     198
     197     199     197     200     201     202     201     203
     201     204     205     206     205     207     205     208
     209     210     209     211     209     212     213     214
     213     215     213     216     217     218     217     219
     217     220     221     222     221     223     221     224
     225     226     225     227     225     228     229     230
     229     231     229     232     233     234     233     235
     233     236     237     238     237     239     237     240
     241     242     241     243     241     244     245     246
     245     247     245     248     249     250     249     251
     249     252     253     254     253     255     253     256
     257     258     257     259     257     260     261     262
     261     263     261     264     265     266     265     267
     265     268     269     270     269     271     269     272
     273     274     273     275     273     276     277     278
     277     279     277     280     281     282     281     283
     281     284     285     286     285     287     285     288
     289     290     289     291     289     292     293     294
     293     295     293     296     297     298     297     299
     297     300     301     302     301     303     301     304
     305     306     305     307     305     308     309     310
     309     311     309     312     313     314     313     315
     313     316     317     318     317     319     317     320
     321     322     321     323     321     324     325     326
     325     327     325     328     329     330     329     331
     329     332     333     334     333     335     333     336
     337     338     337     339     337     340     341     342
     341     343     341     344     345     346     345     347
     345     348     349     350     349     351     349     352
     353     354     353     355     353     356     357     358
     357     359     357     360     361     362     361     363
     361     364     365     366     365     367     365     368
     369     370     369     371     369     372     373     374
     373     375     373     376     377     378     377     379
     377     380     381     382     381     383     381     384
     385     386     385     387     385     388     389     390
     389     391     389     392     393     394     393     395
     393     396     397     398     397     399     397     400
     401     402     401     403     401     404     405     406
     405     407     405     408     409     410     409     411
     409     412     413     414     413     415     413     416
     417     418     417     419     417     420     421     422
     421     423     421     424     425     426     425     427
     425     428     429     430     429     431     429     432
     433     434     433     435     433     436     437     438
     437     439     437     440     441     442     441     443
     441     444     445     446     445     447     445     448
     449     450     449     451     449     452     453     454
     453     455     453     456     457     458     457     459
     457     460     461     462     461     463     461     464
     465     466     465     467     465     468     469     470
     469     471     469     472     473     474     473     475
     473     476     477     478     477     479     477     480
     481     482     481     483     481     484     485     486
     485     487     485     488     489     490     489     491
     489     492     493     494     493     495     493     496
     497     498     497     499     497     500     501     502
     501     503     501     504     505     506     505     507
     505     508     509     510     509     511     509     512
     513     514     513     515     513     516     517     518
     517     519     517     520     521     522     521     523
     521     524     525     526     525     527     525     528
     529     530     529     531     529     532     533     534
     533     535     533     536     537     538     537     539
     537     540     541     542     541     543     541     544
     545     546     545     547     545     548     549     550
     549     551     549     552     553     554     553     555
     553     556     557     558     557     559     557     560
     561     562     561     563     561     564     565     566
     565     567     565     568     569     570     569     571
     569     572     573     574     573     575     573     576
     577     578     577     579     577     580     581     582
     581     583     581     584     585     586     585     587
     585     588     589     590     589     591     589     592
     593     594     593     595     593     596     597     598
     597     599     597     600     601     602     601     603
     601     604     605     606     605     607     605     608
     609     610     609     611     609     612     613     614
     613     615     613     616     617     618     617     619
     617     620     621     622     621     623     621     624
     625     626     625     627     625     628     629     630
     629     631     629     632     633     634     633     635
     633     636     637     638     637     639     637     640
     641     642     641     643     641     644     645     646
     645     647     645     648     649     650     649     651
     649     652     653     654     653     655     653     656
     657     658     657     659     657     660     661     662
     661     663     661     664     665     666     665     667
     665     668     669     670     669     671     669     672
     673     674     673     675     673     676     677     678
     677     679     677     680     681     682     681     683
     681     684     685     686     685     687     685     688
     689     690     689     691     689     692     693     694
     693     695     693     696     697     698     697     699
     697     700     701     702     701     703     701     704
     705     706     705     707     705     708     709     710
     709     711     709     712     713     714     713     715
     713     716     717     718     717     719     717     720
     721     722     721     723     721     724     725     726
     725     727     725     728     729     730     729     731
     729     732     733     734     733     735     733     736
     737     738     737     739     737     740     741     742
     741     743     741     744     745     746     745     747
     745     748     749     750     749     751     749     752
     753     754     753     755     753     756     757     758
     757     759     757     760     761     762     761     763
     761     764     765     766     765     767     765     768
     769     770     769     771     769     772     773     774
     773     775     773     776     777     778     777     779
     777     780     781     782     781     783     781     784
     785     786     785     787     785     788     789     790
     789     791     789     792     793     794     793     795
     793     796     797     798     797     799     797     800
     801     802     801     803     801     804     805     806
     805     807     805     808     809     810     809     811
     809     812     813     814     813     815     813     816
     817     818     817     819     817     820     821     822
     821     823     821     824     825     826     825     827
     825     828     829     830     829     831     829     832
     833     834     833     835     833     836     837     838
     837     839     837     840     841     842     841     843
     841     844     845     846     845     847     845     848
     849     850     849     851     849     852     853     854
     853     855     853     856     857     858     857     859
     857     860     861     862     861     863     861     864
     865     866     865     867     865     868     869     870
     869     871     869     872     873     874     873     875
     873     876     877     878     877     879     877     880
     881     882     881     883     881     884     885     886
     885     887     885     888     889     890     889     891
     889     892     893     894     893     895     893     896
     897     898     897     899     897     900     901     902
     901     903     901     904     905     906     905     907
     905     908     909     910     909     911     909     912
     913     914     913     915     913     916     917     918
     917     919     917     920     921     922     921     923
     921     924     925     926     925     927     925     928
     929     930     929     931     929     932     933     934
     933     935     933     936     937     938     937     939
     937     940     941     942     941     943     941     944
     945     946     945     947     945     948     949     950
     949     951     949     952     953     954     953     955
     953     956     957     958     957     959     957     960
     961     962     961     963     961     964     965     966
     965     967     965     968     969     970     969     971
     969     972     973     974     973     975     973     976
     977     978     977     979     977     980     981     982
     981     983     981     984     985     986     985     987
     985     988     989     990     989     991     989     992
     993     994     993     995     993     996     997     998
     997     999     997    1000    1001    1002    1001    1003
    1001    1004    1005    1006    1005    1007    1005    1008
    1009    1010    1009    1011    1009    1012    1013    1014
    1013    1015    1013    1016    1017    1018    1017    1019
    1017    1020    1021    1022    1021    1023    1021    1024
    1025    1026    1025    1027    1025    1028    1029    1030
    1029    1031    1029    1032    1033    1034    1033    1035
    1033    1036    1037    1038    1037    1039    1037    1040
    1041    1042    1041    1043    1041    1044    1045    1046
    1045    1047    1045    1048    1049    1050    1049    1051
    1049    1052    1053    1054    1053    1055    1053    1056
    1057    1058    1057    1059    1057    1060    1061    1062
    1061    1063    1061    1064    1065    1066    1065    1067
    1065    1068    1069    1070    1069    1071    1069    1072
    1073    1074    1073    1075    1073    1076    1077    1078
    1077    1079    1077    1080    1081    1082    1081    1083
    1081    1084    1085    1086    1085    1087    1085    1088
    1089    1090    1089    1091    1089    1092    1093    1094
    1093    1095    1093    1096    1097    1098    1097    1099
    1097    1100    1101    1102    1101    1103    1101    1104
    1105    1106    1105    1107    1105    1108    1109    1110
    1109    1111    1109    1112    1113    1114    1113    1115
    1113    1116    1117    1118    1117    1119    1117    1120
    1121    1122    1121    1123    1121    1124    1125    1126
    1125    1127    1125    1128    1129    1130    1129    1131
    1129    1132    1133    1134    1133    1135    1133    1136
    1137    1138    1137    1139    1137    1140    1141    1142
    1141    1143    1141    1144    1145    1146    1145    1147
    1145    1148    1149    1150    1149    1151    1149    1152
    1153    1154    1153    1155    1153    1156    1157    1158
    1157    1159    1157    1160    1161    1162    1161    1163
    1161    1164    1165    1166    1165    1167    1165    1168
    1169    1170    1169    1171    1169    1172    1173    1174
    1173    1175    1173    1176    1177    1178    1177    1179
    1177    1180    1181    1182    1181    1183    1181    1184
    1185    1186    1185    1187    1185    1188    1189    1190
    1189    1191    1189    1192    1193    1194    1193    1195
    1193    1196    1197    1198    1197    1199    1197    1200
    1201    1202    1201    1203    1201    1204    1205    1206
    1205    1207    1205    1208    1209    1210    1209    1211
    1209    1212    1213    1214    1213    1215    1213    1216
    1217    1218    1217    1219    1217    1220    1221    1222
    1221    1223    1221    1224    1225    1226    1225    1227
    1225    1228    1229    1230    1229    1231    1229    1232
    1233    1234    1233    1235    1233    1236    1237    1238
    1237    1239    1237    1240    1241    1242    1241    1243
    1241    1244    1245    1246    1245    1247    1245    1248
    1249    1250    1249    1251    1249    1252    1253    1254
    1253    1255    1253    1256    1257    1258    1257    1259
    1257    1260    1261    1262    1261    1263    1261    1264
    1265    1266    1265    1267    1265    1268    1269    1270
    1269    1271    1269    1272    1273    1274    1273    1275
    1273    1276    1277    1278    1277    1279    1277    1280
    1281    1282    1281    1283    1281    1284    1285    1286
    1285    1287    1285    1288    1289    1290    1289    1291
    1289    1292    1293    1294    1293    1295    1293    1296
    1297    1298    1297    1299    1297    1300    1301    1302
    1301    1303    1301    1304    1305    1306    1305    1307
    1305    1308    1309    1310    1309    1311    1309    1312
    1313    1314    1313    1315    1313    1316    1317    1318
    1317    1319    1317    1320    1321    1322    1321    1323
    1321    1324    1325    1326    1325    1327    1325    1328
    1329    1330    1329    1331    1329    1332    1333    1334
    1333    1335    1333    1336    1337    1338    1337    1339
    1337    1340    1341    1342    1341    1343    1341    1344
    1345    1346    1345    1347    1345    1348    1349    1350
    1349    1351    1349    1352    1353    1354    1353    1355
    1353    1356    1357    1358    1357    1359    1357    1360
    1361    1362    1361    1363    1361    1364    1365    1366
    1365    1367    1365    1368    1369    1370    1369    1371
    1369    1372    1373    1374    1373    1375    1373    1376
    1377    1378    1377    1379    1377    1380    1381    1382
    1381    1383    1381    1384    1385    1386    1385    1387
    1385    1388    1389    1390    1389    1391    1389    1392
    1393    1394    1393    1395    1393    1396    1397    1398
    1397    1399    1397    1400    1401    1402    1401    1403
    1401    1404    1405    1406    1405    1407    1405    1408
    1409    1410    1409    1411    1409    1412    1413    1414
    1413    1415    1413    1416    1417    1418    1417    1419
    1417    1420    1421    1422    1421    1423    1421    1424
    1425    1426    1425    1427    1425    1428    1429    1430
    1429    1431    1429    1432    1433    1434    1433    1435
    1433    1436    1437    1438    1437    1439    1437    1440
    1441    1442    1441    1443    1441    1444    1445    1446
    1445    1447    1445    1448    1449    1450    1449    1451
    1449    1452    1453    1454    1453    1455    1453    1456
    1457    1458    1457    1459    1457    1460    1461    1462
    1461    1463    1461    1464    1465    1466    1465    1467
    1465    1468    1469    1470    1469    1471    1469    1472
    1473    1474    1473    1475    1473    1476    1477    1478
    1477    1479    1477    1480    1481    1482    1481    1483
    1481    1484    1485    1486    1485    1487    1485    1488
    1489    1490    1489    1491    1489    1492    1493    1494
    1493    1495    1493    1496    1497    1498    1497    1499
    1497    1500    1501    1502    1501    1503    1501    1504
    1505    1506    1505    1507    1505    1508    1509    1510
    1509    1511    1509    1512    1513    1514    1513    1515
    1513    1516    1517    1518    1517    1519    1517    1520
    1521    1522    1521    1523    1521    1524    1525    1526
    1525    1527    1525    1528    1529    1530    1529    1531
    1529    1532    1533    1534    1533    1535    1533    1536
    1537    1538    1537    1539    1537    1540    1541    1542
    1541    1543    1541    1544    1545    1546    1545    1547
    1545    1548    1549    1550    1549    1551    1549    1552
    1553    1554    1553    1555    1553    1556    1557    1558
    1557    1559    1557    1560    1561    1562    1561    1563
    1561    1564    1565    1566    1565    1567    1565    1568
    1569    1570    1569    1571    1569    1572    1573    1574
    1573    1575    1573    1576    1577    1578    1577    1579
    1577    1580    1581    1582    1581    1583    1581    1584
    1585    1586    1585    1587    1585    1588    1589    1590
    1589    1591    1589    1592    1593    1594    1593    1595
    1593    1596    1597    1598    1597    1599    1597    1600
    1601    1602    1601    1603    1601    1604    1605    1606
    1605    1607    1605    1608    1609    1610    1609    1611
    1609    1612    1613    1614    1613    1615    1613    1616
    1617    1618    1617    1619    1617    1620    1621    1622
    1621    1623    1621    1624    1625    1626    1625    1627
    1625    1628    1629    1630    1629    1631    1629    1632
    1633    1634    1633    1635    1633    1636    1637    1638
    1637    1639    1637    1640    1641    1642    1641    1643
    1641    1644    1645    1646    1645    1647    1645    1648
    1649    1650    1649    1651    1649    1652    1653    1654
    1653    1655    1653    1656    1657    1658    1657    1659
    1657    1660    1661    1662    1661    1663    1661    1664
    1665    1666    1665    1667    1665    1668    1669    1670
    1669    1671    1669    1672    1673    1674    1673    1675
    1673    1676    1677    1678    1677    1679    1677    1680
    1681    1682    1681    1683    1681    1684    1685    1686
    1685    1687    1685    1688    1689    1690    1689    1691
    1689    1692    1693    1694    1693    1695    1693    1696
    1697    1698    1697    1699    1697    1700    1701    1702
    1701    1703    1701    1704    1705    1706    1705    1707
    1705    1708    1709    1710    1709    1711    1709    1712
    1713    1714    1713    1715    1713    1716    1717    1718
    1717    1719    1717    1720    1721    1722    1721    1723
    1721    1724    1725    1726    1725    1727    1725    1728
    1729    1730    1729    1731    1729    1732    1733    1734
    1733    1735    1733    1736    1737    1738    1737    1739
    1737    1740    1741    1742    1741    1743    1741    1744
    1745    1746    1745    1747    1745    1748    1749    1750
    1749    1751    1749    1752    1753    1754    1753    1755
    1753    1756    1757    1758    1757    1759    1757    1760
    1761    1762    1761    1763    1761    1764    1765    1766
    1765    1767    1765    1768    1769    1770    1769    1771
    1769    1772    1773    1774    1773    1775    1773    1776
    1777    1778    1777    1779    1777    1780    1781    1782
    1781    1783    1781    1784    1785    1786    1785    1787
    1785    1788    1789    1790    1789    1791    1789    1792
    1793    1794    1793    1795    1793    1796    1797    1798
    1797    1799    1797    1800    1801    1802    1801    1803
    1801    1804    1805    1806    1805    1807    1805    1808
    1809    1810    1809    1811    1809    1812    1813    1814
    1813    1815    1813    1816    1817    1818    1817    1819
    1817    1820    1821    1822    1821    1823    1821    1824
    1825    1826    1825    1827    1825    1828    1829    1830
    1829    1831    1829    1832    1833    1834    1833    1835
    1833    1836    1837    1838    1837    1839    1837    1840
    1841    1842    1841    1843    1841    1844    1845    1846
    1845    1847    1845    1848    1849    1850    1849    1851
    1849    1852    1853    1854    1853    1855    1853    1856
    1857    1858    1857    1859    1857    1860    1861    1862
    1861    1863    1861    1864    1865    1866    1865    1867
    1865    1868    1869    1870    1869    1871    1869    1872
    1873    1874    1873    1875    1873    1876    1877    1878
    1877    1879    1877    1880    1881    1882    1881    1883
    1881    1884    1885    1886    1885    1887    1885    1888
    1889    1890    1889    1891    1889    1892    1893    1894
    1893    1895    1893    1896    1897    1898    1897    1899
    1897    1900    1901    1902    1901    1903    1901    1904
    1905    1906    1905    1907    1905    1908    1909    1910
    1909    1911    1909    1912    1913    1914    1913    1915
    1913    1916    1917    1918    1917    1919    1917    1920
    1921    1922    1921    1923    1921    1924    1925    1926
    1925    1927    1925    1928    1929    1930    1929    1931
    1929    1932    1933    1934    1933    1935    1933    1936
    1937    1938    1937    1939    1937    1940    1941    1942
    1941    1943    1941    1944    1945    1946    1945    1947
    1945    1948    1949    1950    1949    1951    1949    1952
    1953    1954    1953    1955    1953    1956    1957    1958
    1957    1959    1957    1960    1961    1962    1961    1963
    1961    1964    1965    1966    1965    1967    1965    1968
    1969    1970    1969    1971    1969    1972    1973    1974
    1973    1975    1973    1976    1977    1978    1977    1979
    1977    1980    1981    1982    1981    1983    1981    1984
    1985    1986    1985    1987    1985    1988    1989    1990
    1989    1991    1989    1992    1993    1994    1993    1995
    1993    1996    1997    1998    1997    1999    1997    2000
    2001    2002    2001    2003    2001    2004    2005    2006
    2005    2007    2005    2008    2009    2010    2009    2011
    2009    2012    2013    2014    2013    2015    2013    2016
    2017    2018    2017    2019    2017    2020    2021    2022
    2021    2023    2021    2024    2025    2026    2025    2027
    2025    2028    2029    2030    2029    2031    2029    2032
    2033    2034    2033    2035    2033    2036    2037    2038
    2037    2039    2037    2040    2041    2042    2041    2043
    2041    2044    2045    2046    2045    2047    2045    2048
    2049    2050    2049    2051    2049    2052    2053    2054
    2053    2055    2053    2056    2057    2058    2057    2059
    2057    2060    2061    2062    2061    2063    2061    2064
    2065    2066    2065    2067    2065    2068    2069    2070
    2069    2071    2069    2072    2073    2074    2073    2075
    2073    2076    2077    2078    2077    2079    2077    2080
    2081    2082    2081    2083    2081    2084    2085    2086
    2085    2087    2085    2088    2089    2090    2089    2091
    2089    2092    2093    2094    2093    2095    2093    2096
    2097    2098    2097    2099    2097    2100    2101    2102
    2101    2103    2101    2104    2105    2106    2105    2107
    2105    2108    2109    2110    2109    2111    2109    2112
    2113    2114    2113    2115    2113    2116    2117    2118
    2117    2119    2117    2120    2121    2122    2121    2123
    2121    2124    2125    2126    2125    2127    2125    2128
    2129    2130    2129    2131    2129    2132    2133    2134
    2133    2135    2133    2136    2137    2138    2137    2139
    2137    2140    2141    2142    2141    2143    2141    2144
    2145    2146    2145    2147    2145    2148    2149    2150
    2149    2151    2149    2152    2153    2154    2153    2155
    2153    2156    2157    2158    2157    2159    2157    2160
    2161    2162    2161    2163    2161    2164    2165    2166
    2165    2167    2165    2168    2169    2170    2169    2171
    2169    2172    2173    2174    2173    2175    2173    2176
    2177    2178    2177    2179    2177    2180    2181    2182
    2181    2183    2181    2184    2185    2186    2185    2187
    2185    2188    2189    2190    2189    2191    2189    2192
    2193    2194    2193    2195    2193    2196    2197    2198
    2197    2199    2197    2200    2201    2202    2201    2203
    2201    2204    2205    2206    2205    2207    2205    2208
    2209    2210    2209    2211    2209    2212    2213    2214
    2213    2215    2213    2216    2217    2218    2217    2219
    2217    2220    2221    2222    2221    2223    2221    2224
    2225    2226    2225    2227    2225    2228    2229    2230
    2229    2231    2229    2232    2233    2234    2233    2235
    2233    2236    2237    2238    2237    2239    2237    2240
    2241    2242    2241    2243    2241    2244    2245    2246
    2245    2247    2245    2248    2249    2250    2249    2251
    2249    2252    2253    2254    2253    2255    2253    2256
    2257    2258    2257    2259    2257    2260    2261    2262
    2261    2263    2261    2264    2265    2266    2265    2267
    2265    2268    2269    2270    2269    2271    2269    2272
    2273    2274    2273    2275    2273    2276    2277    2278
    2277    2279    2277    2280    2281    2282    2281    2283
    2281    2284    2285    2286    2285    2287    2285    2288
    2289    2290    2289    2291    2289    2292    2293    2294
    2293    2295    2293    2296    2297    2298    2297    2299
    2297    2300    2301    2302    2301    2303    2301    2304
    2305    2306    2305    2307    2305    2308    2309    2310
    2309    2311    2309    2312    2313    2314    2313    2315
    2313    2316    2317    2318    2317    2319    2317    2320
    2321    2322    2321    2323    2321    2324    2325    2326
    2325    2327    2325    2328    2329    2330    2329    2331
    2329    2332    2333    2334    2333    2335    2333    2336
    2337    2338    2337    2339    2337    2340    2341    2342
    2341    2343    2341    2344    2345    2346    2345    2347
    2345    2348    2349    2350    2349    2351    2349    2352
    2353    2354    2353    2355    2353    2356    2357    2358
    2357    2359    2357    2360    2361    2362    2361    2363
    2361    2364    2365    2366    2365    2367    2365    2368
    2369    2370    2369    2371    2369    2372    2373    2374
    2373    2375    2373    2376    2377    2378    2377    2379
    2377    2380    2381    2382    2381    2383    2381    2384
    2385    2386    2385    2387    2385    2388    2389    2390
    2389    2391    2389    2392    2393    2394    2393    2395
    2393    2396    2397    2398    2397    2399    2397    2400
    2401    2402    2401    2403    2401    2404    2405    2406
    2405    2407    2405    2408    2409    2410    2409    2411
    2409    2412    2413    2414    2413    2415    2413    2416
    2417    2418    2417    2419    2417    2420    2421    2422
    2421    2423    2421    2424    2425    2426    2425    2427
    2425    2428    2429    2430    2429    2431    2429    2432
    2433    2434    2433    2435    2433    2436    2437    2438
    2437    2439    2437    2440    2441    2442    2441    2443
    2441    2444    2445    2446    2445    2447    2445    2448
    2449    2450    2449    2451    2449    2452    2453    2454
    2453    2455    2453    2456    2457    2458    2457    2459
    2457    2460    2461    2462    2461    2463    2461    2464
    2465    2466    2465    2467    2465    2468    2469    2470
    2469    2471    2469    2472    2473    2474    2473    2475
    2473    2476    2477    2478    2477    2479    2477    2480
    2481    2482    2481    2483    2481    2484    2485    2486
    2485    2487    2485    2488    2489    2490    2489    2491
    2489    2492    2493    2494    2493    2495    2493    2496
    2497    2498    2497    2499    2497    2500    2501    2502
    2501    2503    2501    2504    2505    2506    2505    2507
    2505    2508    2509    2510    2509    2511    2509    2512
    2513    2514    2513    2515    2513    2516    2517    2518
    2517    2519    2517    2520    2521    2522    2521    2523
    2521    2524    2525    2526    2525    2527    2525    2528
    2529    2530    2529    2531    2529    2532    2533    2534
    2533    2535    2533    2536    2537    2538    2537    2539
    2537    2540    2541    2542    2541    2543    2541    2544
    2545    2546    2545    2547    2545    2548    2549    2550
    2549    2551    2549    2552    2553    2554    2553    2555
    2553    2556    2557    2558    2557    2559    2557    2560
    2561    2562    2561    2563    2561    2564    2565    2566
    2565    2567    2565    2568    2569    2570    2569    2571
    2569    2572    2573    2574    2573    2575    2573    2576
    2577    2578    2577    2579    2577    2580    2581    2582
    2581    2583    2581    2584    2585    2586    2585    2587
    2585    2588    2589    2590    2589    2591    2589    2592
    2593    2594    2593    2595    2593    2596    2597    2598
    2597    2599    2597    2600    2601    2602    2601    2603
    2601    2604    2605    2606    2605    2607    2605    2608
    2609    2610    2609    2611    2609    2612    2613    2614
    2613    2615    2613    2616    2617    2618    2617    2619
    2617    2620    2621    2622    2621    2623    2621    2624
    2625    2626    2625    2627    2625    2628    2629    2630
    2629    2631    2629    2632    2633    2634    2633    2635
    2633    2636    2637    2638    2637    2639    2637    2640
    2641    2642    2641    2643    2641    2644    2645    2646
    2645    2647    2645    2648    2649    2650    2649    2651
    2649    2652    2653    2654    2653    2655    2653    2656
    2657    2658    2657    2659    2657    2660    2661    2662
    2661    2663    2661    2664    2665    2666    2665    2667
    2665    2668    2669    2670    2669    2671    2669    2672
    2673    2674    2673    2675    2673    2676    2677    2678
    2677    2679    2677    2680    2681    2682    2681    2683
    2681    2684    2685    2686    2685    2687    2685    2688
    2689    2690    2689    2691    2689    2692    2693    2694
    2693    2695    2693    2696    2697    2698    2697    2699
    2697    2700    2701    2702    2701    2703    2701    2704
    2705    2706    2705    2707    2705    2708    2709    2710
    2709    2711    2709    2712    2713    2714    2713    2715
    2713    2716    2717    2718    2717    2719    2717    2720
    2721    2722    2721    2723    2721    2724    2725    2726
    2725    2727    2725    2728    2729    2730    2729    2731
    2729    2732    2733    2734    2733    2735    2733    2736
    2737    2738    2737    2739    2737    2740    2741    2742
    2741    2743    2741    2744    2745    2746    2745    2747
    2745    2748    2749    2750    2749    2751    2749    2752
    2753    2754    2753    2755    2753    2756    2757    2758
    2757    2759    2757    2760    2761    2762    2761    2763
    2761    2764    2765    2766    2765    2767    2765    2768
    2769    2770    2769    2771    2769    2772    2773    2774
    2773    2775    2773    2776    2777    2778    2777    2779
    2777    2780    2781    2782    2781    2783    2781    2784
    2785    2786    2785    2787    2785    2788    2789    2790
    2789    2791    2789    2792    2793    2794    2793    2795
    2793    2796    2797    2798    2797    2799    2797    2800
    2801    2802    2801    2803    2801    2804    2805    2806
    2805    2807    2805    2808    2809    2810    2809    2811
    2809    2812    2813    2814    2813    2815    2813    2816
    2817    2818    2817    2819    2817    2820    2821    2822
    2821    2823    2821    2824    2825    2826    2825    2827
    2825    2828    2829    2830    2829    2831    2829    2832
    2833    2834    2833    2835    2833    2836    2837    2838
    2837    2839    2837    2840    2841    2842    2841    2843
    2841    2844    2845    2846    2845    2847    2845    2848
    2849    2850    2849    2851    2849    2852    2853    2854
    2853    2855    2853    2856    2857    2858    2857    2859
    2857    2860    2861    2862    2861    2863    2861    2864
    2865    2866    2865    2867    2865    2868    2869    2870
    2869    2871    2869    2872    2873    2874    2873    2875
    2873    2876    2877    2878    2877    2879    2877    2880
    2881    2882    2881    2883    2881    2884    2885    2886
    2885    2887    2885    2888    2889    2890    2889    2891
    2889    2892    2893    2894    2893    2895    2893    2896
    2897    2898    2897    2899    2897    2900    2901    2902
    2901    2903    2901    2904    2905    2906    2905    2907
    2905    2908    2909    2910    2909    2911    2909    2912
    2913    2914    2913    2915    2913    2916    2917    2918
    2917    2919    2917    2920    2921    2922    2921    2923
    2921    2924    2925    2926    2925    2927    2925    2928
    2929    2930    2929    2931    2929    2932    2933    2934
    2933    2935    2933    2936    2937    2938    2937    2939
    2937    2940    2941    2942    2941    2943    2941    2944
    2945    2946    2945    2947    2945    2948    2949    2950
    2949    2951    2949    2952    2953    2954    2953    2955
    2953    2956    2957    2958    2957    2959    2957    2960
    2961    2962    2961    2963    2961    2964    2965    2966
    2965    2967    2965    2968    2969    2970    2969    2971
    2969    2972    2973    2974    2973    2975    2973    2976
    2977    2978    2977    2979    2977    2980    2981    2982
    2981    2983    2981    2984    2985    2986    2985    2987
    2985    2988    2989    2990    2989    2991    2989    2992
    2993    2994    2993    2995    2993    2996    2997    2998
    2997    2999    2997    3000    3001    3002    3001    3003
    3001    3004    3005    3006    3005    3007    3005    3008
    3009    3010    3009    3011    3009    3012    3013    3014
    3013    3015    3013    3016    3017    3018    3017    3019
    3017    3020    3021    3022    3021    3023    3021    3024
    3025    3026    3025    3027    3025    3028    3029    3030
    3029    3031    3029    3032    3033    3034    3033    3035
    3033    3036    3037    3038    3037    3039    3037    3040
    3041    3042    3041    3043    3041    3044    3045    3046
    3045    3047    3045    3048    3049    3050    3049    3051
    3049    3052    3053    3054    3053    3055    3053    3056
    3057    3058    3057    3059    3057    3060    3061    3062
    3061    3063    3061    3064    3065    3066    3065    3067
    3065    3068    3069    3070    3069    3071    3069    3072
    3073    3074    3073    3075    3073    3076    3077    3078
    3077    3079    3077    3080    3081    3082    3081    3083
    3081    3084    3085    3086    3085    3087    3085    3088
    3089    3090    3089    3091    3089    3092    3093    3094
    3093    3095    3093    3096    3097    3098    3097    3099
    3097    3100    3101    3102    3101    3103    3101    3104
    3105    3106    3105    3107    3105    3108    3109    3110
    3109    3111    3109    3112    3113    3114    3113    3115
    3113    3116    3117    3118    3117    3119    3117    3120
    3121    3122    3121    3123    3121    3124    3125    3126
    3125    3127    3125    3128    3129    3130    3129    3131
    3129    3132    3133    3134    3133    3135    3133    3136
    3137    3138    3137    3139    3137    3140    3141    3142
    3141    3143    3141    3144    3145    3146    3145    3147
    3145    3148    3149    3150    3149    3151    3149    3152
    3153    3154    3153    3155    3153    3156    3157    3158
    3157    3159    3157    3160    3161    3162    3161    3163
    3161    3164    3165    3166    3165    3167    3165    3168
    3169    3170    3169    3171    3169    3172    3173    3174
    3173    3175    3173    3176    3177    3178    3177    3179
    3177    3180    3181    3182    3181    3183    3181    3184
    3185    3186    3185    3187    3185    3188    3189    3190
    3189    3191    3189    3192    3193    3194    3193    3195
    3193    3196    3197    3198    3197    3199    3197    3200
    3201    3202    3201    3203    3201    3204    3205    3206
    3205    3207    3205    3208    3209    3210    3209    3211
    3209    3212    3213    3214    3213    3215    3213    3216
    3217    3218    3217    3219    3217    3220    3221    3222
    3221    3223    3221    3224    3225    3226    3225    3227
    3225    3228    3229    3230    3229    3231    3229    3232
    3233    3234    3233    3235    3233    3236    3237    3238
    3237    3239    3237    3240    3241    3242    3241    3243
    3241    3244    3245    3246    3245    3247    3245    3248
    3249    3250    3249    3251    3249    3252    3253    3254
    3253    3255    3253    3256    3257    3258    3257    3259
    3257    3260    3261    3262    3261    3263    3261    3264
    3265    3266    3265    3267    3265    3268    3269    3270
    3269    3271    3269    3272    3273    3274    3273    3275
    3273    3276    3277    3278    3277    3279    3277    3280
    3281    3282    3281    3283    3281    3284    3285    3286
    3285    3287    3285    3288    3289    3290    3289    3291
    3289    3292    3293    3294    3293    3295    3293    3296
    3297    3298    3297    3299    3297    3300    3301    3302
    3301    3303    3301    3304    3305    3306    3305    3307
    3305    3308    3309    3310    3309    3311    3309    3312
    3313    3314    3313    3315    3313    3316    3317    3318
    3317    3319    3317    3320    3321    3322    3321    3323
    3321    3324    3325    3326    3325    3327    3325    3328
    3329    3330    3329    3331    3329    3332    3333    3334
    3333    3335    3333    3336    3337    3338    3337    3339
    3337    3340    3341    3342    3341    3343    3341    3344
    3345    3346    3345    3347    3345    3348    3349    3350
    3349    3351    3349    3352    3353    3354    3353    3355
    3353    3356    3357    3358    3357    3359    3357    3360
    3361    3362    3361    3363    3361    3364    3365    3366
    3365    3367    3365    3368    3369    3370    3369    3371
    3369    3372    3373    3374    3373    3375    3373    3376
    3377    3378    3377    3379    3377    3380    3381    3382
    3381    3383    3381    3384    3385    3386    3385    3387
    3385    3388    3389    3390    3389    3391    3389    3392
    3393    3394    3393    3395    3393    3396    3397    3398
    3397    3399    3397    3400    3401    3402    3401    3403
    3401    3404    3405    3406    3405    3407    3405    3408
    3409    3410    3409    3411    3409    3412    3413    3414
    3413    3415    3413    3416    3417    3418    3417    3419
    3417    3420    3421    3422    3421    3423    3421    3424
    3425    3426    3425    3427    3425    3428    3429    3430
    3429    3431    3429    3432    3433    3434    3433    3435
    3433    3436    3437    3438    3437    3439    3437    3440
    3441    3442    3441    3443    3441    3444    3445    3446
    3445    3447    3445    3448    3449    3450    3449    3451
    3449    3452    3453    3454    3453    3455    3453    3456
    3457    3458    3457    3459    3457    3460    3461    3462
    3461    3463    3461    3464    3465    3466    3465    3467
    3465    3468    3469    3470    3469    3471    3469    3472
    3473    3474    3473    3475    3473    3476    3477    3478
    3477    3479    3477    3480    3481    3482    3481    3483
    3481    3484    3485    3486    3485    3487    3485    3488
    3489    3490    3489    3491    3489    3492    3493    3494
    3493    3495    3493    3496    3497    3498    3497    3499
    3497    3500    3501    3502    3501    3503    3501    3504
    3505    3506    3505    3507    3505    3508    3509    3510
    3509    3511    3509    3512    3513    3514    3513    3515
    3513    3516    3517    3518    3517    3519    3517    3520
    3521    3522    3521    3523    3521    3524    3525    3526
    3525    3527    3525    3528    3529    3530    3529    3531
    3529    3532    3533    3534    3533    3535    3533    3536
    3537    3538    3537    3539    3537    3540    3541    3542
    3541    3543    3541    3544    3545    3546    3545    3547
    3545    3548    3549    3550    3549    3551    3549    3552
    3553    3554    3553    3555    3553    3556    3557    3558
    3557    3559    3557    3560    3561    3562    3561    3563
    3561    3564    3565    3566    3565    3567    3565    3568
    3569    3570    3569    3571    3569    3572    3573    3574
    3573    3575    3573    3576    3577    3578    3577    3579
    3577    3580    3581    3582    3581    3583    3581    3584
    3585    3586    3585    3587    3585    3588    3589    3590
    3589    3591    3589    3592    3593    3594    3593    3595
    3593    3596    3597    3598    3597    3599    3597    3600
    3601    3602    3601    3603    3601    3604    3605    3606
    3605    3607    3605    3608    3609    3610    3609    3611
    3609    3612    3613    3614    3613    3615    3613    3616
    3617    3618    3617    3619    3617    3620    3621    3622
    3621    3623    3621    3624    3625    3626    3625    3627
    3625    3628    3629    3630    3629    3631    3629    3632
    3633    3634    3633    3635    3633    3636    3637    3638
    3637    3639    3637    3640    3641    3642    3641    3643
    3641    3644    3645    3646    3645    3647    3645    3648
    3649    3650    3649    3651    3649    3652    3653    3654
    3653    3655    3653    3656    3657    3658    3657    3659
    3657    3660    3661    3662    3661    3663    3661    3664
    3665    3666    3665    3667    3665    3668    3669    3670
    3669    3671    3669    3672    3673    3674    3673    3675
    3673    3676    3677    3678    3677    3679    3677    3680
    3681    3682    3681    3683    3681    3684    3685    3686
    3685    3687    3685    3688    3689    3690    3689    3691
    3689    3692    3693    3694    3693    3695    3693    3696
    3697    3698    3697    3699    3697    3700    3701    3702
    3701    3703    3701    3704    3705    3706    3705    3707
    3705    3708    3709    3710    3709    3711    3709    3712
    3713    3714    3713    3715    3713    3716    3717    3718
    3717    3719    3717    3720    3721    3722    3721    3723
    3721    3724    3725    3726    3725    3727    3725    3728
    3729    3730    3729    3731    3729    3732    3733    3734
    3733    3735    3733    3736    3737    3738    3737    3739
    3737    3740    3741    3742    3741    3743    3741    3744
    3745    3746    3745    3747    3745    3748    3749    3750
    3749    3751    3749    3752    3753    3754    3753    3755
    3753    3756    3757    3758    3757    3759    3757    3760
    3761    3762    3761    3763    3761    3764    3765    3766
    3765    3767    3765    3768    3769    3770    3769    3771
    3769    3772    3773    3774    3773    3775    3773    3776
    3777    3778    3777    3779    3777    3780    3781    3782
    3781    3783    3781    3784    3785    3786    3785    3787
    3785    3788    3789    3790    3789    3791    3789    3792
    3793    3794    3793    3795    3793    3796    3797    3798
    3797    3799    3797    3800    3801    3802    3801    3803
    3801    3804    3805    3806    3805    3807    3805    3808
    3809    3810    3809    3811    3809    3812    3813    3814
    3813    3815    3813    3816    3817    3818    3817    3819
    3817    3820    3821    3822    3821    3823    3821    3824
    3825    3826    3825    3827    3825    3828    3829    3830
    3829    3831    3829    3832    3833    3834    3833    3835
    3833    3836    3837    3838    3837    3839    3837    3840
    3841    3842    3841    3843    3841    3844    3845    3846
    3845    3847    3845    3848    3849    3850    3849    3851
    3849    3852    3853    3854    3853    3855    3853    3856
    3857    3858    3857    3859    3857    3860    3861    3862
    3861    3863    3861    3864    3865    3866    3865    3867
    3865    3868    3869    3870    3869    3871    3869    3872
    3873    3874    3873    3875    3873    3876    3877    3878
    3877    3879    3877    3880    3881    3882    3881    3883
    3881    3884    3885    3886    3885    3887    3885    3888
    3889    3890    3889    3891    3889    3892    3893    3894
    3893    3895    3893    3896    3897    3898    3897    3899
    3897    3900    3901    3902    3901    3903    3901    3904
    3905    3906    3905    3907    3905    3908    3909    3910
    3909    3911    3909    3912    3913    3914    3913    3915
    3913    3916    3917    3918    3917    3919    3917    3920
    3921    3922    3921    3923    3921    3924    3925    3926
    3925    3927    3925    3928    3929    3930    3929    3931
    3929    3932    3933    3934    3933    3935    3933    3936
    3937    3938    3937    3939    3937    3940    3941    3942
    3941    3943    3941    3944    3945    3946    3945    3947
    3945    3948    3949    3950    3949    3951    3949    3952
    3953    3954    3953    3955    3953    3956    3957    3958
    3957    3959    3957    3960    3961    3962    3961    3963
    3961    3964    3965    3966    3965    3967    3965    3968
    3969    3970    3969    3971    3969    3972    3973    3974
    3973    3975    3973    3976    3977    3978    3977    3979
    3977    3980    3981    3982    3981    3983    3981    3984
    3985    3986    3985    3987    3985    3988    3989    3990
    3989    3991    3989    3992    3993    3994    3993    3995
    3993    3996    3997    3998    3997    3999    3997    4000
    4001    4002    4001    4003    4001    4004    4005    4006
    4005    4007    4005    4008    4009    4010    4009    4011
    4009    4012    4013    4014    4013    4015    4013    4016
    4017    4018    4017    4019    4017    4020    4021    4022
    4021    4023    4021    4024    4025    4026    4025    4027
    4025    4028    4029    4030    4029    4031    4029    4032
    4033    4034    4033    4035    4033    4036    4037    4038
    4037    4039    4037    4040    4041    4042    4041    4043
    4041    4044    4045    4046    4045    4047    4045    4048
    4049    4050    4049    4051    4049    4052    4053    4054
    4053    4055    4053    4056    4057    4058    4057    4059
    4057    4060    4061    4062    4061    4063    4061    4064
    4065    4066    4065    4067    4065    4068    4069    4070
    4069    4071    4069    4072    4073    4074    4073    4075
    4073    4076    4077    4078    4077    4079    4077    4080
    4081    4082    4081    4083    4081    4084    4085    4086
    4085    4087    4085    4088    4089    4090    4089    4091
    4089    4092    4093    4094    4093    4095    4093    4096
    4097    4098    4097    4099    4097    4100    4101    4102
    4101    4103    4101    4104    4105    4106    4105    4107
    4105    4108    4109    4110    4109    4111    4109    4112
    4113    4114    4113    4115    4113    4116    4117    4118
    4117    4119    4117    4120    4121    4122    4121    4123
    4121    4124    4125    4126    4125    4127    4125    4128
    4129    4130    4129    4131    4129    4132    4133    4134
    4133    4135    4133    4136    4137    4138    4137    4139
    4137    4140    4141    4142    4141    4143    4141    4144
    4145    4146    4145    4147    4145    4148    4149    4150
    4149    4151    4149    4152    4153    4154    4153    4155
    4153    4156    4157    4158    4157    4159    4157    4160
    4161    4162    4161    4163    4161    4164    4165    4166
    4165    4167    4165    4168    4169    4170    4169    4171
    4169    4172    4173    4174    4173    4175    4173    4176
    4177    4178    4177    4179    4177    4180    4181    4182
    4181    4183    4181    4184    4185    4186    4185    4187
    4185    4188    4189    4190    4189    4191    4189    4192
    4193    4194    4193    4195    4193    4196    4197    4198
    4197    4199    4197    4200    4201    4202    4201    4203
    4201    4204    4205    4206    4205    4207    4205    4208
    4209    4210    4209    4211    4209    4212    4213    4214
    4213    4215    4213    4216    4217    4218    4217    4219
    4217    4220    4221    4222    4221    4223    4221    4224
    4225    4226    4225    4227    4225    4228    4229    4230
    4229    4231    4229    4232    4233    4234    4233    4235
    4233    4236    4237    4238    4237    4239    4237    4240
    4241    4242    4241    4243    4241    4244    4245    4246
    4245    4247    4245    4248    4249    4250    4249    4251
    4249    4252    4253    4254    4253    4255    4253    4256
    4257    4258    4257    4259    4257    4260    4261    4262
    4261    4263    4261    4264    4265    4266    4265    4267
    4265    4268    4269    4270    4269    4271    4269    4272
    4273    4274    4273    4275    4273    4276    4277    4278
    4277    4279    4277    4280    4281    4282    4281    4283
    4281    4284    4285    4286    4285    4287    4285    4288
    4289    4290    4289    4291    4289    4292    4293    4294
    4293    4295    4293    4296    4297    4298    4297    4299
    4297    4300    4301    4302    4301    4303    4301    4304
    4305    4306    4305    4307    4305    4308    4309    4310
    4309    4311    4309    4312    4313    4314    4313    4315
    4313    4316    4317    4318    4317    4319    4317    4320
    4321    4322    4321    4323    4321    4324    4325    4326
    4325    4327    4325    4328    4329    4330    4329    4331
    4329    4332    4333    4334    4333    4335    4333    4336
    4337    4338    4337    4339    4337    4340    4341    4342
    4341    4343    4341    4344    4345    4346    4345    4347
    4345    4348    4349    4350    4349    4351    4349    4352
    4353    4354    4353    4355    4353    4356    4357    4358
    4357    4359    4357    4360    4361    4362    4361    4363
    4361    4364    4365    4366    4365    4367    4365    4368
    4369    4370    4369    4371    4369    4372    4373    4374
    4373    4375    4373    4376    4377    4378    4377    4379
    4377    4380    4381    4382    4381    4383    4381    4384
    4385    4386    4385    4387    4385    4388    4389    4390
    4389    4391    4389    4392    4393    4394    4393    4395
    4393    4396    4397    4398    4397    4399    4397    4400
    4401    4402    4401    4403    4401    4404    4405    4406
    4405    4407    4405    4408    4409    4410    4409    4411
    4409    4412    4413    4414    4413    4415    4413    4416
    4417    4418    4417    4419    4417    4420    4421    4422
    4421    4423    4421    4424    4425    4426    4425    4427
    4425    4428    4429    4430    4429    4431    4429    4432
    4433    4434    4433    4435    4433    4436    4437    4438
    4437    4439    4437    4440    4441    4442    4441    4443
    4441    4444    4445    4446    4445    4447    4445    4448
    4449    4450    4449    4451    4449    4452    4453    4454
    4453    4455    4453    4456    4457    4458    4457    4459
    4457    4460    4461    4462    4461    4463    4461    4464
    4465    4466    4465    4467    4465    4468    4469    4470
    4469    4471    4469    4472    4473    4474    4473    4475
    4473    4476    4477    4478    4477    4479    4477    4480
    4481    4482    4481    4483    4481    4484    4485    4486
    4485    4487    4485    4488    4489    4490    4489    4491
    4489    4492    4493    4494    4493    4495    4493    4496
    4497    4498    4497    4499    4497    4500    4501    4502
    4501    4503    4501    4504    4505    4506    4505    4507
    4505    4508    4509    4510    4509    4511    4509    4512
    4513    4514    4513    4515    4513    4516    4517    4518
    4517    4519    4517    4520    4521    4522    4521    4523
    4521    4524    4525    4526    4525    4527    4525    4528
    4529    4530    4529    4531    4529    4532    4533    4534
    4533    4535    4533    4536    4537    4538    4537    4539
    4537    4540    4541    4542    4541    4543    4541    4544
    4545    4546    4545    4547    4545    4548    4549    4550
    4549    4551    4549    4552    4553    4554    4553    4555
    4553    4556    4557    4558    4557    4559    4557    4560
    4561    4562    4561    4563    4561    4564    4565    4566
    4565    4567    4565    4568    4569    4570    4569    4571
    4569    4572    4573    4574    4573    4575    4573    4576
    4577    4578    4577    4579    4577    4580    4581    4582
    4581    4583    4581    4584    4585    4586    4585    4587
    4585    4588    4589    4590    4589    4591    4589    4592
    4593    4594    4593    4595    4593    4596    4597    4598
    4597    4599    4597    4600    4601    4602    4601    4603
    4601    4604    4605    4606    4605    4607    4605    4608
    4609    4610    4609    4611    4609    4612    4613    4614
    4613    4615    4613    4616    4617    4618    4617    4619
    4617    4620    4621    4622    4621    4623    4621    4624
    4625    4626    4625    4627    4625    4628    4629    4630
    4629    4631    4629    4632    4633    4634    4633    4635
    4633    4636    4637    4638    4637    4639    4637    4640
    4641    4642    4641    4643    4641    4644    4645    4646
    4645    4647    4645    4648    4649    4650    4649    4651
    4649    4652    4653    4654    4653    4655    4653    4656
    4657    4658    4657    4659    4657    4660    4661    4662
    4661    4663    4661    4664    4665    4666    4665    4667
    4665    4668    4669    4670    4669    4671    4669    4672
    4673    4674    4673    4675    4673    4676    4677    4678
    4677    4679    4677    4680    4681    4682    4681    4683
    4681    4684    4685    4686    4685    4687    4685    4688
    4689    4690    4689    4691    4689    4692    4693    4694
    4693    4695    4693    4696    4697    4698    4697    4699
    4697    4700    4701    4702    4701    4703    4701    4704
    4705    4706    4705    4707    4705    4708    4709    4710
    4709    4711    4709    4712    4713    4714    4713    4715
    4713    4716    4717    4718    4717    4719    4717    4720
    4721    4722    4721    4723    4721    4724    4725    4726
    4725    4727    4725    4728    4729    4730    4729    4731
    4729    4732    4733    4734    4733    4735    4733    4736
    4737    4738    4737    4739    4737    4740    4741    4742
    4741    4743    4741    4744    4745    4746    4745    4747
    4745    4748    4749    4750    4749    4751    4749    4752
    4753    4754    4753    4755    4753    4756    4757    4758
    4757    4759    4757    4760    4761    4762    4761    4763
    4761    4764    4765    4766    4765    4767    4765    4768
    4769    4770    4769    4771    4769    4772    4773    4774
    4773    4775    4773    4776    4777    4778    4777    4779
    4777    4780    4781    4782    4781    4783    4781    4784
    4785    4786    4785    4787    4785    4788    4789    4790
    4789    4791    4789    4792    4793    4794    4793    4795
    4793    4796    4797    4798    4797    4799    4797    4800
    4801    4802    4801    4803    4801    4804    4805    4806
    4805    4807    4805    4808    4809    4810    4809    4811
    4809    4812    4813    4814    4813    4815    4813    4816
    4817    4818    4817    4819    4817    4820    4821    4822
    4821    4823    4821    4824    4825    4826    4825    4827
    4825    4828    4829    4830    4829    4831    4829    4832
    4833    4834    4833    4835    4833    4836    4837    4838
    4837    4839    4837    4840    4841    4842    4841    4843
    4841    4844    4845    4846    4845    4847    4845    4848
    4849    4850    4849    4851    4849    4852    4853    4854
    4853    4855    4853    4856    4857    4858    4857    4859
    4857    4860    4861    4862    4861    4863    4861    4864
    4865    4866    4865    4867    4865    4868    4869    4870
    4869    4871    4869    4872    4873    4874    4873    4875
    4873    4876    4877    4878    4877    4879    4877    4880
    4881    4882    4881    4883    4881    4884    4885    4886
    4885    4887    4885    4888    4889    4890    4889    4891
    4889    4892    4893    4894    4893    4895    4893    4896
    4897    4898    4897    4899    4897    4900    4901    4902
    4901    4903    4901    4904    4905    4906    4905    4907
    4905    4908    4909    4910    4909    4911    4909    4912
    4913    4914    4913    4915    4913    4916    4917    4918
    4917    4919    4917    4920    4921    4922    4921    4923
    4921    4924    4925    4926    4925    4927    4925    4928
    4929    4930    4929    4931    4929    4932    4933    4934
    4933    4935    4933    4936    4937    4938    4937    4939
    4937    4940    4941    4942    4941    4943    4941    4944
    4945    4946    4945    4947    4945    4948    4949    4950
    4949    4951    4949    4952    4953    4954    4953    4955
    4953    4956    4957    4958    4957    4959    4957    4960
    4961    4962    4961    4963    4961    4964    4965    4966
    4965    4967    4965    4968    4969    4970    4969    4971
    4969    4972    4973    4974    4973    4975    4973    4976
    4977    4978    4977    4979    4977    4980    4981    4982
    4981    4983    4981    4984    4985    4986    4985    4987
    4985    4988    4989    4990    4989    4991    4989    4992
    4993    4994    4993    4995    4993    4996    4997    4998
    4997    4999    4997    5000    5001    5002    5001    5003
    5001    5004    5005    5006    5005    5007    5005    5008
    5009    5010    5009    5011    5009    5012    5013    5014
    5013    5015    5013    5016    5017    5018    5017    5019
    5017    5020    5021    5022    5021    5023    5021    5024
    5025    5026    5025    5027    5025    5028    5029    5030
    5029    5031    5029    5032    5033    5034    5033    5035
    5033    5036    5037    5038    5037    5039    5037    5040
    5041    5042    5041    5043    5041    5044    5045    5046
    5045    5047    5045    5048    5049    5050    5049    5051
    5049    5052    5053    5054    5053    5055    5053    5056
    5057    5058    5057    5059    5057    5060    5061    5062
    5061    5063    5061    5064    5065    5066    5065    5067
    5065    5068    5069    5070    5069    5071    5069    5072
    5073    5074    5073    5075    5073    5076    5077    5078
    5077    5079    5077    5080    5081    5082    5081    5083
    5081    5084    5085    5086    5085    5087    5085    5088
    5089    5090    5089    5091    5089    5092    5093    5094
    5093    5095    5093    5096    5097    5098    5097    5099
    5097    5100    5101    5102    5101    5103    5101    5104
    5105    5106    5105    5107    5105    5108    5109    5110
    5109    5111    5109    5112    5113    5114    5113    5115
    5113    5116    5117    5118    5117    5119    5117    5120
    5121    5122    5121    5123    5121    5124    5125    5126
    5125    5127    5125    5128    5129    5130    5129    5131
    5129    5132    5133    5134    5133    5135    5133    5136
    5137    5138    5137    5139    5137    5140    5141    5142
    5141    5143    5141    5144    5145    5146    5145    5147
    5145    5148    5149    5150    5149    5151    5149    5152
    5153    5154    5153    5155    5153    5156    5157    5158
    5157    5159    5157    5160    5161    5162    5161    5163
    5161    5164    5165    5166    5165    5167    5165    5168
    5169    5170    5169    5171    5169    5172    5173    5174
    5173    5175    5173    5176    5177    5178    5177    5179
    5177    5180    5181    5182    5181    5183    5181    5184
    5185    5186    5185    5187    5185    5188    5189    5190
    5189    5191    5189    5192    5193    5194    5193    5195
    5193    5196    5197    5198    5197    5199    5197    5200
    5201    5202    5201    5203    5201    5204    5205    5206
    5205    5207    5205    5208    5209    5210    5209    5211
    5209    5212    5213    5214    5213    5215    5213    5216
    5217    5218    5217    5219    5217    5220    5221    5222
    5221    5223    5221    5224    5225    5226    5225    5227
    5225    5228    5229    5230    5229    5231    5229    5232
    5233    5234    5233    5235    5233    5236    5237    5238
    5237    5239    5237    5240    5241    5242    5241    5243
    5241    5244    5245    5246    5245    5247    5245    5248
    5249    5250    5249    5251    5249    5252    5253    5254
    5253    5255    5253    5256    5257    5258    5257    5259
    5257    5260    5261    5262    5261    5263    5261    5264
    5265    5266    5265    5267    5265    5268    5269    5270
    5269    5271    5269    5272    5273    5274    5273    5275
    5273    5276    5277    5278    5277    5279    5277    5280
    5281    5282    5281    5283    5281    5284    5285    5286
    5285    5287    5285    5288    5289    5290    5289    5291
    5289    5292    5293    5294    5293    5295    5293    5296
    5297    5298    5297    5299    5297    5300    5301    5302
    5301    5303    5301    5304    5305    5306    5305    5307
    5305    5308    5309    5310    5309    5311    5309    5312
    5313    5314    5313    5315    5313    5316    5317    5318
    5317    5319    5317    5320    5321    5322    5321    5323
    5321    5324    5325    5326    5325    5327    5325    5328
    5329    5330    5329    5331    5329    5332    5333    5334
    5333    5335    5333    5336    5337    5338    5337    5339
    5337    5340    5341    5342    5341    5343    5341    5344
    5345    5346    5345    5347    5345    5348    5349    5350
    5349    5351    5349    5352    5353    5354    5353    5355
    5353    5356    5357    5358    5357    5359    5357    5360
    5361    5362    5361    5363    5361    5364    5365    5366
    5365    5367    5365    5368    5369    5370    5369    5371
    5369    5372    5373    5374    5373    5375    5373    5376
    5377    5378    5377    5379    5377    5380    5381    5382
    5381    5383    5381    5384    5385    5386    5385    5387
    5385    5388    5389    5390    5389    5391    5389    5392
    5393    5394    5393    5395    5393    5396    5397    5398
    5397    5399    5397    5400    5401    5402    5401    5403
    5401    5404    5405    5406    5405    5407    5405    5408
    5409    5410    5409    5411    5409    5412    5413    5414
    5413    5415    5413    5416    5417    5418    5417    5419
    5417    5420    5421    5422    5421    5423    5421    5424
    5425    5426    5425    5427    5425    5428    5429    5430
    5429    5431    5429    5432    5433    5434    5433    5435
    5433    5436    5437    5438    5437    5439    5437    5440
    5441    5442    5441    5443    5441    5444    5445    5446
    5445    5447    5445    5448    5449    5450    5449    5451
    5449    5452    5453    5454    5453    5455    5453    5456
    5457    5458    5457    5459    5457    5460    5461    5462
    5461    5463    5461    5464    5465    5466    5465    5467
    5465    5468    5469    5470    5469    5471    5469    5472
    5473    5474    5473    5475    5473    5476    5477    5478
    5477    5479    5477    5480    5481    5482    5481    5483
    5481    5484    5485    5486    5485    5487    5485    5488
    5489    5490    5489    5491    5489    5492    5493    5494
    5493    5495    5493    5496    5497    5498    5497    5499
    5497    5500    5501    5502    5501    5503    5501    5504
    5505    5506    5505    5507    5505    5508    5509    5510
    5509    5511    5509    5512    5513    5514    5513    5515
    5513    5516    5517    5518    5517    5519    5517    5520
    5521    5522    5521    5523    5521    5524    5525    5526
    5525    5527    5525    5528    5529    5530    5529    5531
    5529    5532    5533    5534    5533    5535    5533    5536
    5537    5538    5537    5539    5537    5540    5541    5542
    5541    5543    5541    5544    5545    5546    5545    5547
    5545    5548    5549    5550    5549    5551    5549    5552
    5553    5554    5553    5555    5553    5556    5557    5558
    5557    5559    5557    5560    5561    5562    5561    5563
    5561    5564    5565    5566    5565    5567    5565    5568
    5569    5570    5569    5571    5569    5572    5573    5574
    5573    5575    5573    5576    5577    5578    5577    5579
    5577    5580    5581    5582    5581    5583    5581    5584
    5585    5586    5585    5587    5585    5588    5589    5590
    5589    5591    5589    5592    5593    5594    5593    5595
    5593    5596    5597    5598    5597    5599    5597    5600
    5601    5602    5601    5603    5601    5604    5605    5606
    5605    5607    5605    5608    5609    5610    5609    5611
    5609    5612    5613    5614    5613    5615    5613    5616
    5617    5618    5617    5619    5617    5620    5621    5622
    5621    5623    5621    5624    5625    5626    5625    5627
    5625    5628    5629    5630    5629    5631    5629    5632
    5633    5634    5633    5635    5633    5636    5637    5638
    5637    5639    5637    5640    5641    5642    5641    5643
    5641    5644    5645    5646    5645    5647    5645    5648
    5649    5650    5649    5651    5649    5652    5653    5654
    5653    5655    5653    5656    5657    5658    5657    5659
    5657    5660    5661    5662    5661    5663    5661    5664
    5665    5666    5665    5667    5665    5668    5669    5670
    5669    5671    5669    5672    5673    5674    5673    5675
    5673    5676    5677    5678    5677    5679    5677    5680
    5681    5682    5681    5683    5681    5684    5685    5686
    5685    5687    5685    5688    5689    5690    5689    5691
    5689    5692    5693    5694    5693    5695    5693    5696
    5697    5698    5697    5699    5697    5700    5701    5702
    5701    5703    5701    5704    5705    5706    5705    5707
    5705    5708    5709    5710    5709    5711    5709    5712
    5713    5714    5713    5715    5713    5716    5717    5718
    5717    5719    5717    5720    5721    5722    5721    5723
    5721    5724    5725    5726    5725    5727    5725    5728
    5729    5730    5729    5731    5729    5732    5733    5734
    5733    5735    5733    5736    5737    5738    5737    5739
    5737    5740    5741    5742    5741    5743    5741    5744
    5745    5746    5745    5747    5745    5748    5749    5750
    5749    5751    5749    5752    5753    5754    5753    5755
    5753    5756    5757    5758    5757    5759    5757    5760
    5761    5762    5761    5763    5761    5764    5765    5766
    5765    5767    5765    5768    5769    5770    5769    5771
    5769    5772    5773    5774    5773    5775    5773    5776
    5777    5778    5777    5779    5777    5780    5781    5782
    5781    5783    5781    5784    5785    5786    5785    5787
    5785    5788    5789    5790    5789    5791    5789    5792
    5793    5794    5793    5795    5793    5796    5797    5798
    5797    5799    5797    5800    5801    5802    5801    5803
    5801    5804    5805    5806    5805    5807    5805    5808
    5809    5810    5809    5811    5809    5812    5813    5814
    5813    5815    5813    5816    5817    5818    5817    5819
    5817    5820    5821    5822    5821    5823    5821    5824
    5825    5826    5825    5827    5825    5828    5829    5830
    5829    5831    5829    5832    5833    5834    5833    5835
    5833    5836    5837    5838    5837    5839    5837    5840
    5841    5842    5841    5843    5841    5844    5845    5846
    5845    5847    5845    5848    5849    5850    5849    5851
    5849    5852    5853    5854    5853    5855    5853    5856
    5857    5858    5857    5859    5857    5860    5861    5862
    5861    5863    5861    5864    5865    5866    5865    5867
    5865    5868    5869    5870    5869    5871    5869    5872
    5873    5874    5873    5875    5873    5876    5877    5878
    5877    5879    5877    5880    5881    5882    5881    5883
    5881    5884    5885    5886    5885    5887    5885    5888
    5889    5890    5889    5891    5889    5892    5893    5894
    5893    5895    5893    5896    5897    5898    5897    5899
    5897    5900    5901    5902    5901    5903    5901    5904
    5905    5906    5905    5907    5905    5908    5909    5910
    5909    5911    5909    5912    5913    5914    5913    5915
    5913    5916    5917    5918    5917    5919    5917    5920
    5921    5922    5921    5923    5921    5924    5925    5926
    5925    5927    5925    5928    5929    5930    5929    5931
    5929    5932    5933    5934    5933    5935    5933    5936
    5937    5938    5937    5939    5937    5940    5941    5942
    5941    5943    5941    5944    5945    5946    5945    5947
    5945    5948    5949    5950    5949    5951    5949    5952
    5953    5954    5953    5955    5953    5956    5957    5958
    5957    5959    5957    5960    5961    5962    5961    5963
    5961    5964    5965    5966    5965    5967    5965    5968
    5969    5970    5969    5971    5969    5972    5973    5974
    5973    5975    5973    5976    5977    5978    5977    5979
    5977    5980    5981    5982    5981    5983    5981    5984
    5985    5986    5985    5987    5985    5988    5989    5990
    5989    5991    5989    5992    5993    5994    5993    5995
    5993    5996    5997    5998    5997    5999    5997    6000
    6001    6002    6001    6003    6001    6004    6005    6006
    6005    6007    6005    6008    6009    6010    6009    6011
    6009    6012    6013    6014    6013    6015    6013    6016
    6017    6018    6017    6019    6017    6020    6021    6022
    6021    6023    6021    6024    6025    6026    6025    6027
    6025    6028    6029    6030    6029    6031    6029    6032
    6033    6034    6033    6035    6033    6036    6037    6038
    6037    6039    6037    6040    6041    6042    6041    6043
    6041    6044    6045    6046    6045    6047    6045    6048
    6049    6050    6049    6051    6049    6052    6053    6054
    6053    6055    6053    6056    6057    6058    6057    6059
    6057    6060    6061    6062    6061    6063    6061    6064
    6065    6066    6065    6067    6065    6068    6069    6070
    6069    6071    6069    6072    6073    6074    6073    6075
    6073    6076    6077    6078    6077    6079    6077    6080
    6081    6082    6081    6083    6081    6084    6085    6086
    6085    6087    6085    6088    6089    6090    6089    6091
    6089    6092    6093    6094    6093    6095    6093    6096
    6097    6098    6097    6099    6097    6100    6101    6102
    6101    6103    6101    6104    6105    6106    6105    6107
    6105    6108    6109    6110    6109    6111    6109    6112
    6113    6114    6113    6115    6113    6116    6117    6118
    6117    6119    6117    6120    6121    6122    6121    6123
    6121    6124    6125    6126    6125    6127    6125    6128
    6129    6130    6129    6131    6129    6132    6133    6134
    6133    6135    6133    6136    6137    6138    6137    6139
    6137    6140    6141    6142    6141    6143    6141    6144
    6145    6146    6145    6147    6145    6148    6149    6150
    6149    6151    6149    6152    6153    6154    6153    6155
    6153    6156    6157    6158    6157    6159    6157    6160
    6161    6162    6161    6163    6161    6164    6165    6166
    6165    6167    6165    6168    6169    6170    6169    6171
    6169    6172    6173    6174    6173    6175    6173    6176
    6177    6178    6177    6179    6177    6180    6181    6182
    6181    6183    6181    6184    6185    6186    6185    6187
    6185    6188    6189    6190    6189    6191    6189    6192
    6193    6194    6193    6195    6193    6196    6197    6198
    6197    6199    6197    6200    6201    6202    6201    6203
    6201    6204    6205    6206    6205    6207    6205    6208
    6209    6210    6209    6211    6209    6212    6213    6214
    6213    6215    6213    6216    6217    6218    6217    6219
    6217    6220    6221    6222    6221    6223    6221    6224
    6225    6226    6225    6227    6225    6228    6229    6230
    6229    6231    6229    6232    6233    6234    6233    6235
    6233    6236    6237    6238    6237    6239    6237    6240
    6241    6242    6241    6243    6241    6244    6245    6246
    6245    6247    6245    6248    6249    6250    6249    6251
    6249    6252    6253    6254    6253    6255    6253    6256
    6257    6258    6257    6259    6257    6260    6261    6262
    6261    6263    6261    6264    6265    6266    6265    6267
    6265    6268    6269    6270    6269    6271    6269    6272
    6273    6274    6273    6275    6273    6276    6277    6278
    6277    6279    6277    6280    6281    6282    6281    6283
    6281    6284    6285    6286    6285    6287    6285    6288
    6289    6290    6289    6291    6289    6292    6293    6294
    6293    6295    6293    6296    6297    6298    6297    6299
    6297    6300    6301    6302    6301    6303    6301    6304
    6305    6306    6305    6307    6305    6308    6309    6310
    6309    6311    6309    6312    6313    6314    6313    6315
    6313    6316    6317    6318    6317    6319    6317    6320
    6321    6322    6321    6323    6321    6324    6325    6326
    6325    6327    6325    6328    6329    6330    6329    6331
    6329    6332    6333    6334    6333    6335    6333    6336
    6337    6338    6337    6339    6337    6340    6341    6342
    6341    6343    6341    6344    6345    6346    6345    6347
    6345    6348    6349    6350    6349    6351    6349    6352
    6353    6354    6353    6355    6353    6356    6357    6358
    6357    6359    6357    6360    6361    6362    6361    6363
    6361    6364    6365    6366    6365    6367    6365    6368
    6369    6370    6369    6371    6369    6372    6373    6374
    6373    6375    6373    6376    6377    6378    6377    6379
    6377    6380    6381    6382    6381    6383    6381    6384
    6385    6386    6385    6387    6385    6388    6389    6390
    6389    6391    6389    6392    6393    6394    6393    6395
    6393    6396    6397    6398    6397    6399    6397    6400
    6401    6402    6401    6403    6401    6404    6405    6406
    6405    6407    6405    6408    6409    6410    6409    6411
    6409    6412    6413    6414    6413    6415    6413    6416
    6417    6418    6417    6419    6417    6420    6421    6422
    6421    6423    6421    6424    6425    6426    6425    6427
    6425    6428    6429    6430    6429    6431    6429    6432
    6433    6434    6433    6435    6433    6436    6437    6438
    6437    6439    6437    6440    6441    6442    6441    6443
    6441    6444    6445    6446    6445    6447    6445    6448
    6449    6450    6449    6451    6449    6452    6453    6454
    6453    6455    6453    6456    6457    6458    6457    6459
    6457    6460    6461    6462    6461    6463    6461    6464
    6465    6466    6465    6467    6465    6468    6469    6470
    6469    6471    6469    6472    6473    6474    6473    6475
    6473    6476    6477    6478    6477    6479    6477    6480
    6481    6482    6481    6483    6481    6484    6485    6486
    6485    6487    6485    6488    6489    6490    6489    6491
    6489    6492    6493    6494    6493    6495    6493    6496
    6497    6498    6497    6499    6497    6500    6501    6502
    6501    6503    6501    6504    6505    6506    6505    6507
    6505    6508    6509    6510    6509    6511    6509    6512
    6513    6514    6513    6515    6513    6516    6517    6518
    6517    6519    6517    6520    6521    6522    6521    6523
    6521    6524    6525    6526    6525    6527    6525    6528
    6529    6530    6529    6531    6529    6532    6533    6534
    6533    6535    6533    6536    6537    6538    6537    6539
    6537    6540    6541    6542    6541    6543    6541    6544
    6545    6546    6545    6547    6545    6548    6549    6550
    6549    6551    6549    6552    6553    6554    6553    6555
    6553    6556    6557    6558    6557    6559    6557    6560
    6561    6562    6561    6563    6561    6564    6565    6566
    6565    6567    6565    6568    6569    6570    6569    6571
    6569    6572    6573    6574    6573    6575    6573    6576
    6577    6578    6577    6579    6577    6580    6581    6582
    6581    6583    6581    6584    6585    6586    6585    6587
    6585    6588    6589    6590    6589    6591    6589    6592
    6593    6594    6593    6595    6593    6596    6597    6598
    6597    6599    6597    6600    6601    6602    6601    6603
    6601    6604    6605    6606    6605    6607    6605    6608
    6609    6610    6609    6611    6609    6612    6613    6614
    6613    6615    6613    6616    6617    6618    6617    6619
    6617    6620    6621    6622    6621    6623    6621    6624
    6625    6626    6625    6627    6625    6628    6629    6630
    6629    6631    6629    6632    6633    6634    6633    6635
    6633    6636    6637    6638    6637    6639    6637    6640
    6641    6642    6641    6643    6641    6644    6645    6646
    6645    6647    6645    6648    6649    6650    6649    6651
    6649    6652    6653    6654    6653    6655    6653    6656
    6657    6658    6657    6659    6657    6660    6661    6662
    6661    6663    6661    6664    6665    6666    6665    6667
    6665    6668    6669    6670    6669    6671    6669    6672
    6673    6674    6673    6675    6673    6676    6677    6678
    6677    6679    6677    6680    6681    6682    6681    6683
    6681    6684    6685    6686    6685    6687    6685    6688
    6689    6690    6689    6691    6689    6692    6693    6694
    6693    6695    6693    6696    6697    6698    6697    6699
    6697    6700    6701    6702    6701    6703    6701    6704
    6705    6706    6705    6707    6705    6708    6709    6710
    6709    6711    6709    6712    6713    6714    6713    6715
    6713    6716    6717    6718    6717    6719    6717    6720
    6721    6722    6721    6723    6721    6724    6725    6726
    6725    6727    6725    6728    6729    6730    6729    6731
    6729    6732    6733    6734    6733    6735    6733    6736
    6737    6738    6737    6739    6737    6740    6741    6742
    6741    6743    6741    6744    6745    6746    6745    6747
    6745    6748    6749    6750    6749    6751    6749    6752
    6753    6754    6753    6755    6753    6756    6757    6758
    6757    6759    6757    6760    6761    6762    6761    6763
    6761    6764    6765    6766    6765    6767    6765    6768
    6769    6770    6769    6771    6769    6772    6773    6774
    6773    6775    6773    6776    6777    6778    6777    6779
    6777    6780    6781    6782    6781    6783    6781    6784
    6785    6786    6785    6787    6785    6788    6789    6790
    6789    6791    6789    6792    6793    6794    6793    6795
    6793    6796    6797    6798    6797    6799    6797    6800
    6801    6802    6801    6803    6801    6804    6805    6806
    6805    6807    6805    6808    6809    6810    6809    6811
    6809    6812    6813    6814    6813    6815    6813    6816
    6817    6818    6817    6819    6817    6820    6821    6822
    6821    6823    6821    6824    6825    6826    6825    6827
    6825    6828    6829    6830    6829    6831    6829    6832
    6833    6834    6833    6835    6833    6836    6837    6838
    6837    6839    6837    6840    6841    6842    6841    6843
    6841    6844    6845    6846    6845    6847    6845    6848
    6849    6850    6849    6851    6849    6852    6853    6854
    6853    6855    6853    6856    6857    6858    6857    6859
    6857    6860    6861    6862    6861    6863    6861    6864
    6865    6866    6865    6867    6865    6868    6869    6870
    6869    6871    6869    6872    6873    6874    6873    6875
    6873    6876    6877    6878    6877    6879    6877    6880
    6881    6882    6881    6883    6881    6884    6885    6886
    6885    6887    6885    6888    6889    6890    6889    6891
    6889    6892    6893    6894    6893    6895    6893    6896
    6897    6898    6897    6899    6897    6900    6901    6902
    6901    6903    6901    6904    6905    6906    6905    6907
    6905    6908    6909    6910    6909    6911    6909    6912
    6913    6914    6913    6915    6913    6916    6917    6918
    6917    6919    6917    6920    6921    6922    6921    6923
    6921    6924    6925    6926    6925    6927    6925    6928
    6929    6930    6929    6931    6929    6932    6933    6934
    6933    6935    6933    6936    6937    6938    6937    6939
    6937    6940    6941    6942    6941    6943    6941    6944
    6945    6946    6945    6947    6945    6948    6949    6950
    6949    6951    6949    6952    6953    6954    6953    6955
    6953    6956    6957    6958    6957    6959    6957    6960
    6961    6962    6961    6963    6961    6964    6965    6966
    6965    6967    6965    6968    6969    6970    6969    6971
    6969    6972    6973    6974    6973    6975    6973    6976
    6977    6978    6977    6979    6977    6980    6981    6982
    6981    6983    6981    6984    6985    6986    6985    6987
    6985    6988    6989    6990    6989    6991    6989    6992
    6993    6994    6993    6995    6993    6996    6997    6998
    6997    6999    6997    7000    7001    7002    7001    7003
    7001    7004    7005    7006    7005    7007    7005    7008
    7009    7010    7009    7011    7009    7012    7013    7014
    7013    7015    7013    7016    7017    7018    7017    7019
    7017    7020    7021    7022    7021    7023    7021    7024
    7025    7026    7025    7027    7025    7028    7029    7030
    7029    7031    7029    7032    7033    7034    7033    7035
    7033    7036    7037    7038    7037    7039    7037    7040
    7041    7042    7041    7043    7041    7044    7045    7046
    7045    7047    7045    7048    7049    7050    7049    7051
    7049    7052    7053    7054    7053    7055    7053    7056
    7057    7058    7057    7059    7057    7060    7061    7062
    7061    7063    7061    7064    7065    7066    7065    7067
    7065    7068    7069    7070    7069    7071    7069    7072
    7073    7074    7073    7075    7073    7076    7077    7078
    7077    7079    7077    7080    7081    7082    7081    7083
    7081    7084    7085    7086    7085    7087    7085    7088
    7089    7090    7089    7091    7089    7092    7093    7094
    7093    7095    7093    7096    7097    7098    7097    7099
    7097    7100    7101    7102    7101    7103    7101    7104
    7105    7106    7105    7107    7105    7108    7109    7110
    7109    7111    7109    7112    7113    7114    7113    7115
    7113    7116    7117    7118    7117    7119    7117    7120
    7121    7122    7121    7123    7121    7124    7125    7126
    7125    7127    7125    7128    7129    7130    7129    7131
    7129    7132    7133    7134    7133    7135    7133    7136
    7137    7138    7137    7139    7137    7140    7141    7142
    7141    7143    7141    7144    7145    7146    7145    7147
    7145    7148    7149    7150    7149    7151    7149    7152
    7153    7154    7153    7155    7153    7156    7157    7158
    7157    7159    7157    7160    7161    7162    7161    7163
    7161    7164    7165    7166    7165    7167    7165    7168
    7169    7170    7169    7171    7169    7172    7173    7174
    7173    7175    7173    7176    7177    7178    7177    7179
    7177    7180    7181    7182    7181    7183    7181    7184
    7185    7186    7185    7187    7185    7188    7189    7190
    7189    7191    7189    7192    7193    7194    7193    7195
    7193    7196    7197    7198    7197    7199    7197    7200
    7201    7202    7201    7203    7201    7204    7205    7206
    7205    7207    7205    7208    7209    7210    7209    7211
    7209    7212    7213    7214    7213    7215    7213    7216
    7217    7218    7217    7219    7217    7220    7221    7222
    7221    7223    7221    7224    7225    7226    7225    7227
    7225    7228    7229    7230    7229    7231    7229    7232
    7233    7234    7233    7235    7233    7236    7237    7238
    7237    7239    7237    7240    7241    7242    7241    7243
    7241    7244    7245    7246    7245    7247    7245    7248
    7249    7250    7249    7251    7249    7252    7253    7254
    7253    7255    7253    7256    7257    7258    7257    7259
    7257    7260    7261    7262    7261    7263    7261    7264
    7265    7266    7265    7267    7265    7268    7269    7270
    7269    7271    7269    7272    7273    7274    7273    7275
    7273    7276    7277    7278    7277    7279    7277    7280
    7281    7282    7281    7283    7281    7284    7285    7286
    7285    7287    7285    7288    7289    7290    7289    7291
    7289    7292    7293    7294    7293    7295    7293    7296
    7297    7298    7297    7299    7297    7300    7301    7302
    7301    7303    7301    7304    7305    7306    7305    7307
    7305    7308    7309    7310    7309    7311    7309    7312
    7313    7314    7313    7315    7313    7316    7317    7318
    7317    7319    7317    7320    7321    7322    7321    7323
    7321    7324    7325    7326    7325    7327    7325    7328
    7329    7330    7329    7331    7329    7332    7333    7334
    7333    7335    7333    7336    7337    7338    7337    7339
    7337    7340    7341    7342    7341    7343    7341    7344
    7345    7346    7345    7347    7345    7348    7349    7350
    7349    7351    7349    7352    7353    7354    7353    7355
    7353    7356    7357    7358    7357    7359    7357    7360
    7361    7362    7361    7363    7361    7364    7365    7366
    7365    7367    7365    7368    7369    7370    7369    7371
    7369    7372    7373    7374    7373    7375    7373    7376
    7377    7378    7377    7379    7377    7380    7381    7382
    7381    7383    7381    7384    7385    7386    7385    7387
    7385    7388    7389    7390    7389    7391    7389    7392
    7393    7394    7393    7395    7393    7396    7397    7398
    7397    7399    7397    7400    7401    7402    7401    7403
    7401    7404    7405    7406    7405    7407    7405    7408
    7409    7410    7409    7411    7409    7412    7413    7414
    7413    7415    7413    7416    7417    7418    7417    7419
    7417    7420    7421    7422    7421    7423    7421    7424
    7425    7426    7425    7427    7425    7428    7429    7430
    7429    7431    7429    7432    7433    7434    7433    7435
    7433    7436    7437    7438    7437    7439    7437    7440
    7441    7442    7441    7443    7441    7444    7445    7446
    7445    7447    7445    7448    7449    7450    7449    7451
    7449    7452    7453    7454    7453    7455    7453    7456
    7457    7458    7457    7459    7457    7460    7461    7462
    7461    7463    7461    7464    7465    7466    7465    7467
    7465    7468    7469    7470    7469    7471    7469    7472
    7473    7474    7473    7475    7473    7476    7477    7478
    7477    7479    7477    7480    7481    7482    7481    7483
    7481    7484    7485    7486    7485    7487    7485    7488
    7489    7490    7489    7491    7489    7492    7493    7494
    7493    7495    7493    7496    7497    7498    7497    7499
    7497    7500    7501    7502    7501    7503    7501    7504
    7505    7506    7505    7507    7505    7508    7509    7510
    7509    7511    7509    7512    7513    7514    7513    7515
    7513    7516    7517    7518    7517    7519    7517    7520
    7521    7522    7521    7523    7521    7524    7525    7526
    7525    7527    7525    7528    7529    7530    7529    7531
    7529    7532    7533    7534    7533    7535    7533    7536
    7537    7538    7537    7539    7537    7540    7541    7542
    7541    7543    7541    7544    7545    7546    7545    7547
    7545    7548    7549    7550    7549    7551    7549    7552
    7553    7554    7553    7555    7553    7556    7557    7558
    7557    7559    7557    7560    7561    7562    7561    7563
    7561    7564    7565    7566    7565    7567    7565    7568
    7569    7570    7569    7571    7569    7572    7573    7574
    7573    7575    7573    7576    7577    7578    7577    7579
    7577    7580    7581    7582    7581    7583    7581    7584
    7585    7586    7585    7587    7585    7588    7589    7590
    7589    7591    7589    7592    7593    7594    7593    7595
    7593    7596    7597    7598    7597    7599    7597    7600
    7601    7602    7601    7603    7601    7604    7605    7606
    7605    7607    7605    7608    7609    7610    7609    7611
    7609    7612    7613    7614    7613    7615    7613    7616
    7617    7618    7617    7619    7617    7620    7621    7622
    7621    7623    7621    7624    7625    7626    7625    7627
    7625    7628    7629    7630    7629    7631    7629    7632
    7633    7634    7633    7635    7633    7636    7637    7638
    7637    7639    7637    7640    7641    7642    7641    7643
    7641    7644    7645    7646    7645    7647    7645    7648
    7649    7650    7649    7651    7649    7652    7653    7654
    7653    7655    7653    7656    7657    7658    7657    7659
    7657    7660    7661    7662    7661    7663    7661    7664
    7665    7666    7665    7667    7665    7668    7669    7670
    7669    7671    7669    7672    7673    7674    7673    7675
    7673    7676    7677    7678    7677    7679    7677    7680
    7681    7682    7681    7683    7681    7684    7685    7686
    7685    7687    7685    7688    7689    7690    7689    7691
    7689    7692    7693    7694    7693    7695    7693    7696
    7697    7698    7697    7699    7697    7700    7701    7702
    7701    7703    7701    7704    7705    7706    7705    7707
    7705    7708    7709    7710    7709    7711    7709    7712
    7713    7714    7713    7715    7713    7716    7717    7718
    7717    7719    7717    7720    7721    7722    7721    7723
    7721    7724    7725    7726    7725    7727    7725    7728
    7729    7730    7729    7731    7729    7732    7733    7734
    7733    7735    7733    7736    7737    7738    7737    7739
    7737    7740    7741    7742    7741    7743    7741    7744
    7745    7746    7745    7747    7745    7748    7749    7750
    7749    7751    7749    7752    7753    7754    7753    7755
    7753    7756    7757    7758    7757    7759    7757    7760
    7761    7762    7761    7763    7761    7764    7765    7766
    7765    7767    7765    7768    7769    7770    7769    7771
    7769    7772    7773    7774    7773    7775    7773    7776
    7777    7778    7777    7779    7777    7780    7781    7782
    7781    7783    7781    7784    7785    7786    7785    7787
    7785    7788    7789    7790    7789    7791    7789    7792
    7793    7794    7793    7795    7793    7796    7797    7798
    7797    7799    7797    7800    7801    7802    7801    7803
    7801    7804    7805    7806    7805    7807    7805    7808
    7809    7810    7809    7811    7809    7812    7813    7814
    7813    7815    7813    7816    7817    7818    7817    7819
    7817    7820    7821    7822    7821    7823    7821    7824
    7825    7826    7825    7827    7825    7828    7829    7830
    7829    7831    7829    7832    7833    7834    7833    7835
    7833    7836    7837    7838    7837    7839    7837    7840
    7841    7842    7841    7843    7841    7844    7845    7846
    7845    7847    7845    7848    7849    7850    7849    7851
    7849    7852    7853    7854    7853    7855    7853    7856
    7857    7858    7857    7859    7857    7860    7861    7862
    7861    7863    7861    7864    7865    7866    7865    7867
    7865    7868    7869    7870    7869    7871    7869    7872
    7873    7874    7873    7875    7873    7876    7877    7878
    7877    7879    7877    7880    7881    7882    7881    7883
    7881    7884    7885    7886    7885    7887    7885    7888
    7889    7890    7889    7891    7889    7892    7893    7894
    7893    7895    7893    7896    7897    7898    7897    7899
    7897    7900    7901    7902    7901    7903    7901    7904
    7905    7906    7905    7907    7905    7908    7909    7910
    7909    7911    7909    7912    7913    7914    7913    7915
    7913    7916    7917    7918    7917    7919    7917    7920
    7921    7922    7921    7923    7921    7924    7925    7926
    7925    7927    7925    7928    7929    7930    7929    7931
    7929    7932    7933    7934    7933    7935    7933    7936
    7937    7938    7937    7939    7937    7940    7941    7942
    7941    7943    7941    7944    7945    7946    7945    7947
    7945    7948    7949    7950    7949    7951    7949    7952
    7953    7954    7953    7955    7953    7956    7957    7958
    7957    7959    7957    7960    7961    7962    7961    7963
    7961    7964    7965    7966    7965    7967    7965    7968
    7969    7970    7969    7971    7969    7972    7973    7974
    7973    7975    7973    7976    7977    7978    7977    7979
    7977    7980    7981    7982    7981    7983    7981    7984
    7985    7986    7985    7987    7985    7988    7989    7990
    7989    7991    7989    7992    7993    7994    7993    7995
    7993    7996    7997    7998    7997    7999    7997    8000
    8001    8002    8001    8003    8001    8004    8005    8006
    8005    8007    8005    8008    8009    8010    8009    8011
    8009    8012    8013    8014    8013    8015    8013    8016
    8017    8018    8017    8019    8017    8020    8021    8022
    8021    8023    8021    8024    8025    8026    8025    8027
    8025    8028    8029    8030    8029    8031    8029    8032
    8033    8034    8033    8035    8033    8036    8037    8038
    8037    8039    8037    8040    8041    8042    8041    8043
    8041    8044    8045    8046    8045    8047    8045    8048
    8049    8050    8049    8051    8049    8052    8053    8054
    8053    8055    8053    8056    8057    8058    8057    8059
    8057    8060    8061    8062    8061    8063    8061    8064
    8065    8066    8065    8067    8065    8068    8069    8070
    8069    8071    8069    8072    8073    8074    8073    8075
    8073    8076    8077    8078    8077    8079    8077    8080
    8081    8082    8081    8083    8081    8084    8085    8086
    8085    8087    8085    8088    8089    8090    8089    8091
    8089    8092    8093    8094    8093    8095    8093    8096
    8097    8098    8097    8099    8097    8100    8101    8102
    8101    8103    8101    8104    8105    8106    8105    8107
    8105    8108    8109    8110    8109    8111    8109    8112
    8113    8114    8113    8115    8113    8116    8117    8118
    8117    8119    8117    8120    8121    8122    8121    8123
    8121    8124    8125    8126    8125    8127    8125    8128
    8129    8130    8129    8131    8129    8132    8133    8134
    8133    8135    8133    8136    8137    8138    8137    8139
    8137    8140    8141    8142    8141    8143    8141    8144
    8145    8146    8145    8147    8145    8148    8149    8150
    8149    8151    8149    8152    8153    8154    8153    8155
    8153    8156    8157    8158    8157    8159    8157    8160
    8161    8162    8161    8163    8161    8164    8165    8166
    8165    8167    8165    8168    8169    8170    8169    8171
    8169    8172    8173    8174    8173    8175    8173    8176
    8177    8178    8177    8179    8177    8180    8181    8182
    8181    8183    8181    8184    8185    8186    8185    8187
    8185    8188    8189    8190    8189    8191    8189    8192
    8193    8194    8193    8195    8193    8196    8197    8198
    8197    8199    8197    8200    8201    8202    8201    8203
    8201    8204    8205    8206    8205    8207    8205    8208
    8209    8210    8209    8211    8209    8212    8213    8214
    8213    8215    8213    8216    8217    8218    8217    8219
    8217    8220    8221    8222    8221    8223    8221    8224
    8225    8226    8225    8227    8225    8228    8229    8230
    8229    8231    8229    8232    8233    8234    8233    8235
    8233    8236    8237    8238    8237    8239    8237    8240
    8241    8242    8241    8243    8241    8244    8245    8246
    8245    8247    8245    8248    8249    8250    8249    8251
    8249    8252    8253    8254    8253    8255    8253    8256
    8257    8258    8257    8259    8257    8260    8261    8262
    8261    8263    8261    8264    8265    8266    8265    8267
    8265    8268    8269    8270    8269    8271    8269    8272
    8273    8274    8273    8275    8273    8276    8277    8278
    8277    8279    8277    8280    8281    8282    8281    8283
    8281    8284    8285    8286    8285    8287    8285    8288
    8289    8290    8289    8291    8289    8292    8293    8294
    8293    8295    8293    8296    8297    8298    8297    8299
    8297    8300    8301    8302    8301    8303    8301    8304
    8305    8306    8305    8307    8305    8308    8309    8310
    8309    8311    8309    8312    8313    8314    8313    8315
    8313    8316    8317    8318    8317    8319    8317    8320
    8321    8322    8321    8323    8321    8324    8325    8326
    8325    8327    8325    8328    8329    8330    8329    8331
    8329    8332    8333    8334    8333    8335    8333    8336
    8337    8338    8337    8339    8337    8340    8341    8342
    8341    8343    8341    8344    8345    8346    8345    8347
    8345    8348    8349    8350    8349    8351    8349    8352
    8353    8354    8353    8355    8353    8356    8357    8358
    8357    8359    8357    8360    8361    8362    8361    8363
    8361    8364    8365    8366    8365    8367    8365    8368
    8369    8370    8369    8371    8369    8372    8373    8374
    8373    8375    8373    8376    8377    8378    8377    8379
    8377    8380    8381    8382    8381    8383    8381    8384
    8385    8386    8385    8387    8385    8388    8389    8390
    8389    8391    8389    8392    8393    8394    8393    8395
    8393    8396    8397    8398    8397    8399    8397    8400
    8401    8402    8401    8403    8401    8404    8405    8406
    8405    8407    8405    8408    8409    8410    8409    8411
    8409    8412    8413    8414    8413    8415    8413    8416
    8417    8418    8417    8419    8417    8420    8421    8422
    8421    8423    8421    8424    8425    8426    8425    8427
    8425    8428    8429    8430    8429    8431    8429    8432
    8433    8434    8433    8435    8433    8436    8437    8438
    8437    8439    8437    8440    8441    8442    8441    8443
    8441    8444    8445    8446    8445    8447    8445    8448
    8449    8450    8449    8451    8449    8452    8453    8454
    8453    8455    8453    8456    8457    8458    8457    8459
    8457    8460    8461    8462    8461    8463    8461    8464
    8465    8466    8465    8467    8465    8468    8469    8470
    8469    8471    8469    8472    8473    8474    8473    8475
    8473    8476    8477    8478    8477    8479    8477    8480
    8481    8482    8481    8483    8481    8484    8485    8486
    8485    8487    8485    8488    8489    8490    8489    8491
    8489    8492    8493    8494    8493    8495    8493    8496
    8497    8498    8497    8499    8497    8500    8501    8502
    8501    8503    8501    8504    8505    8506    8505    8507
    8505    8508    8509    8510    8509    8511    8509    8512
    8513    8514    8513    8515    8513    8516    8517    8518
    8517    8519    8517    8520    8521    8522    8521    8523
    8521    8524    8525    8526    8525    8527    8525    8528
    8529    8530    8529    8531    8529    8532    8533    8534
    8533    8535    8533    8536    8537    8538    8537    8539
    8537    8540    8541    8542    8541    8543    8541    8544
    8545    8546    8545    8547    8545    8548    8549    8550
    8549    8551    8549    8552    8553    8554    8553    8555
    8553    8556    8557    8558    8557    8559    8557    8560
    8561    8562    8561    8563    8561    8564    8565    8566
    8565    8567    8565    8568    8569    8570    8569    8571
    8569    8572    8573    8574    8573    8575    8573    8576
    8577    8578    8577    8579    8577    8580    8581    8582
    8581    8583    8581    8584    8585    8586    8585    8587
    8585    8588    8589    8590    8589    8591    8589    8592
    8593    8594    8593    8595    8593    8596    8597    8598
    8597    8599    8597    8600    8601    8602    8601    8603
    8601    8604    8605    8606    8605    8607    8605    8608
    8609    8610    8609    8611    8609    8612    8613    8614
    8613    8615    8613    8616    8617    8618    8617    8619
    8617    8620    8621    8622    8621    8623    8621    8624
    8625    8626    8625    8627    8625    8628    8629    8630
    8629    8631    8629    8632    8633    8634    8633    8635
    8633    8636    8637    8638    8637    8639    8637    8640
    8641    8642    8641    8643    8641    8644    8645    8646
    8645    8647    8645    8648    8649    8650    8649    8651
    8649    8652    8653    8654    8653    8655    8653    8656
    8657    8658    8657    8659    8657    8660    8661    8662
    8661    8663    8661    8664    8665    8666    8665    8667
    8665    8668    8669    8670    8669    8671    8669    8672
    8673    8674    8673    8675    8673    8676    8677    8678
    8677    8679    8677    8680    8681    8682    8681    8683
    8681    8684    8685    8686    8685    8687    8685    8688
    8689    8690    8689    8691    8689    8692    8693    8694
    8693    8695    8693    8696    8697    8698    8697    8699
    8697    8700    8701    8702    8701    8703    8701    8704
    8705    8706    8705    8707    8705    8708    8709    8710
    8709    8711    8709    8712    8713    8714    8713    8715
    8713    8716    8717    8718    8717    8719    8717    8720
    8721    8722    8721    8723    8721    8724    8725    8726
    8725    8727    8725    8728    8729    8730    8729    8731
    8729    8732    8733    8734    8733    8735    8733    8736
    8737    8738    8737    8739    8737    8740    8741    8742
    8741    8743    8741    8744    8745    8746    8745    8747
    8745    8748    8749    8750    8749    8751    8749    8752
    8753    8754    8753    8755    8753    8756    8757    8758
    8757    8759    8757    8760    8761    8762    8761    8763
    8761    8764    8765    8766    8765    8767    8765    8768
    8769    8770    8769    8771    8769    8772    8773    8774
    8773    8775    8773    8776    8777    8778    8777    8779
    8777    8780    8781    8782    8781    8783    8781    8784
    8785    8786    8785    8787    8785    8788    8789    8790
    8789    8791    8789    8792    8793    8794    8793    8795
    8793    8796    8797    8798    8797    8799    8797    8800
    8801    8802    8801    8803    8801    8804    8805    8806
    8805    8807    8805    8808    8809    8810    8809    8811
    8809    8812    8813    8814    8813    8815    8813    8816
    8817    8818    8817    8819    8817    8820    8821    8822
    8821    8823    8821    8824    8825    8826    8825    8827
    8825    8828    8829    8830    8829    8831    8829    8832
    8833    8834    8833    8835    8833    8836    8837    8838
    8837    8839    8837    8840    8841    8842    8841    8843
    8841    8844    8845    8846    8845    8847    8845    8848
    8849    8850    8849    8851    8849    8852    8853    8854
    8853    8855    8853    8856    8857    8858    8857    8859
    8857    8860    8861    8862    8861    8863    8861    8864
    8865    8866    8865    8867    8865    8868    8869    8870
    8869    8871    8869    8872    8873    8874    8873    8875
    8873    8876    8877    8878    8877    8879    8877    8880
    8881    8882    8881    8883    8881    8884    8885    8886
    8885    8887    8885    8888    8889    8890    8889    8891
    8889    8892    8893    8894    8893    8895    8893    8896
    8897    8898    8897    8899    8897    8900    8901    8902
    8901    8903    8901    8904    8905    8906    8905    8907
    8905    8908    8909    8910    8909    8911    8909    8912
    8913    8914    8913    8915    8913    8916    8917    8918
    8917    8919    8917    8920    8921    8922    8921    8923
    8921    8924    8925    8926    8925    8927    8925    8928
    8929    8930    8929    8931    8929    8932    8933    8934
    8933    8935    8933    8936    8937    8938    8937    8939
    8937    8940    8941    8942    8941    8943    8941    8944
    8945    8946    8945    8947    8945    8948    8949    8950
    8949    8951    8949    8952    8953    8954    8953    8955
    8953    8956    8957    8958    8957    8959    8957    8960
    8961    8962    8961    8963    8961    8964    8965    8966
    8965    8967    8965    8968    8969    8970    8969    8971
    8969    8972    8973    8974    8973    8975    8973    8976
    8977    8978    8977    8979    8977    8980    8981    8982
    8981    8983    8981    8984    8985    8986    8985    8987
    8985    8988    8989    8990    8989    8991    8989    8992
    8993    8994    8993    8995    8993    8996    8997    8998
    8997    8999    8997    9000    9001    9002    9001    9003
    9001    9004    9005    9006    9005    9007    9005    9008
    9009    9010    9009    9011    9009    9012    9013    9014
    9013    9015    9013    9016    9017    9018    9017    9019
    9017    9020    9021    9022    9021    9023    9021    9024
    9025    9026    9025    9027    9025    9028    9029    9030
    9029    9031    9029    9032    9033    9034    9033    9035
    9033    9036    9037    9038    9037    9039    9037    9040
    9041    9042    9041    9043    9041    9044    9045    9046
    9045    9047    9045    9048    9049    9050    9049    9051
    9049    9052    9053    9054    9053    9055    9053    9056
    9057    9058    9057    9059    9057    9060    9061    9062
    9061    9063    9061    9064    9065    9066    9065    9067
    9065    9068    9069    9070    9069    9071    9069    9072
    9073    9074    9073    9075    9073    9076    9077    9078
    9077    9079    9077    9080    9081    9082    9081    9083
    9081    9084    9085    9086    9085    9087    9085    9088
    9089    9090    9089    9091    9089    9092    9093    9094
    9093    9095    9093    9096    9097    9098    9097    9099
    9097    9100    9101    9102    9101    9103    9101    9104
    9105    9106    9105    9107    9105    9108    9109    9110
    9109    9111    9109    9112    9113    9114    9113    9115
    9113    9116    9117    9118    9117    9119    9117    9120
    9121    9122    9121    9123    9121    9124    9125    9126
    9125    9127    9125    9128    9129    9130    9129    9131
    9129    9132    9133    9134    9133    9135    9133    9136
    9137    9138    9137    9139    9137    9140    9141    9142
    9141    9143    9141    9144    9145    9146    9145    9147
    9145    9148    9149    9150    9149    9151    9149    9152
    9153    9154    9153    9155    9153    9156    9157    9158
    9157    9159    9157    9160    9161    9162    9161    9163
    9161    9164    9165    9166    9165    9167    9165    9168
    9169    9170    9169    9171    9169    9172    9173    9174
    9173    9175    9173    9176    9177    9178    9177    9179
    9177    9180    9181    9182    9181    9183    9181    9184
    9185    9186    9185    9187    9185    9188    9189    9190
    9189    9191    9189    9192    9193    9194    9193    9195
    9193    9196    9197    9198    9197    9199    9197    9200
    9201    9202    9201    9203    9201    9204    9205    9206
    9205    9207    9205    9208    9209    9210    9209    9211
    9209    9212    9213    9214    9213    9215    9213    9216
    9217    9218    9217    9219    9217    9220    9221    9222
    9221    9223    9221    9224    9225    9226    9225    9227
    9225    9228    9229    9230    9229    9231    9229    9232
    9233    9234    9233    9235    9233    9236    9237    9238
    9237    9239    9237    9240    9241    9242    9241    9243
    9241    9244    9245    9246    9245    9247    9245    9248
    9249    9250    9249    9251    9249    9252    9253    9254
    9253    9255    9253    9256    9257    9258    9257    9259
    9257    9260    9261    9262    9261    9263    9261    9264
    9265    9266    9265    9267    9265    9268    9269    9270
    9269    9271    9269    9272    9273    9274    9273    9275
    9273    9276    9277    9278    9277    9279    9277    9280
    9281    9282    9281    9283    9281    9284    9285    9286
    9285    9287    9285    9288    9289    9290    9289    9291
    9289    9292    9293    9294    9293    9295    9293    9296
    9297    9298    9297    9299    9297    9300    9301    9302
    9301    9303    9301    9304    9305    9306    9305    9307
    9305    9308    9309    9310    9309    9311    9309    9312
    9313    9314    9313    9315    9313    9316    9317    9318
    9317    9319    9317    9320    9321    9322    9321    9323
    9321    9324    9325    9326    9325    9327    9325    9328
    9329    9330    9329    9331    9329    9332    9333    9334
    9333    9335    9333    9336    9337    9338    9337    9339
    9337    9340    9341    9342    9341    9343    9341    9344
    9345    9346    9345    9347    9345    9348    9349    9350
    9349    9351    9349    9352    9353    9354    9353    9355
    9353    9356    9357    9358    9357    9359    9357    9360
    9361    9362    9361    9363    9361    9364    9365    9366
    9365    9367    9365    9368    9369    9370    9369    9371
    9369    9372    9373    9374    9373    9375    9373    9376
    9377    9378    9377    9379    9377    9380    9381    9382
    9381    9383    9381    9384    9385    9386    9385    9387
    9385    9388    9389    9390    9389    9391    9389    9392
    9393    9394    9393    9395    9393    9396    9397    9398
    9397    9399    9397    9400    9401    9402    9401    9403
    9401    9404    9405    9406    9405    9407    9405    9408
    9409    9410    9409    9411    9409    9412    9413    9414
    9413    9415    9413    9416    9417    9418    9417    9419
    9417    9420    9421    9422    9421    9423    9421    9424
    9425    9426    9425    9427    9425    9428    9429    9430
    9429    9431    9429    9432    9433    9434    9433    9435
    9433    9436    9437    9438    9437    9439    9437    9440
    9441    9442    9441    9443    9441    9444    9445    9446
    9445    9447    9445    9448    9449    9450    9449    9451
    9449    9452    9453    9454    9453    9455    9453    9456
    9457    9458    9457    9459    9457    9460    9461    9462
    9461    9463    9461    9464    9465    9466    9465    9467
    9465    9468    9469    9470    9469    9471    9469    9472
    9473    9474    9473    9475    9473    9476    9477    9478
    9477    9479    9477    9480    9481    9482    9481    9483
    9481    9484    9485    9486    9485    9487    9485    9488
    9489    9490    9489    9491    9489    9492    9493    9494
    9493    9495    9493    9496    9497    9498    9497    9499
    9497    9500    9501    9502    9501    9503    9501    9504
    9505    9506    9505    9507    9505    9508    9509    9510
    9509    9511    9509    9512    9513    9514    9513    9515
    9513    9516    9517    9518    9517    9519    9517    9520
    9521    9522    9521    9523    9521    9524    9525    9526
    9525    9527    9525    9528    9529    9530    9529    9531
    9529    9532    9533    9534    9533    9535    9533    9536
    9537    9538    9537    9539    9537    9540    9541    9542
    9541    9543    9541    9544    9545    9546    9545    9547
    9545    9548    9549    9550    9549    9551    9549    9552
    9553    9554    9553    9555    9553    9556    9557    9558
    9557    9559    9557    9560    9561    9562    9561    9563
    9561    9564    9565    9566    9565    9567    9565    9568
    9569    9570    9569    9571    9569    9572    9573    9574
    9573    9575    9573    9576    9577    9578    9577    9579
    9577    9580    9581    9582    9581    9583    9581    9584
    9585    9586    9585    9587    9585    9588    9589    9590
    9589    9591    9589    9592    9593    9594    9593    9595
    9593    9596    9597    9598    9597    9599    9597    9600
    9601    9602    9601    9603    9601    9604    9605    9606
    9605    9607    9605    9608    9609    9610    9609    9611
    9609    9612    9613    9614    9613    9615    9613    9616
    9617    9618    9617    9619    9617    9620    9621    9622
    9621    9623    9621    9624    9625    9626    9625    9627
    9625    9628    9629    9630    9629    9631    9629    9632
    9633    9634    9633    9635    9633    9636    9637    9638
    9637    9639    9637    9640    9641    9642    9641    9643
    9641    9644    9645    9646    9645    9647    9645    9648
    9649    9650    9649    9651    9649    9652    9653    9654
    9653    9655    9653    9656    9657    9658    9657    9659
    9657    9660    9661    9662    9661    9663    9661    9664
    9665    9666    9665    9667    9665    9668    9669    9670
    9669    9671    9669    9672    9673    9674    9673    9675
    9673    9676    9677    9678    9677    9679    9677    9680
    9681    9682    9681    9683    9681    9684    9685    9686
    9685    9687    9685    9688    9689    9690    9689    9691
    9689    9692    9693    9694    9693    9695    9693    9696
    9697    9698    9697    9699    9697    9700    9701    9702
    9701    9703    9701    9704    9705    9706    9705    9707
    9705    9708    9709    9710    9709    9711    9709    9712
    9713    9714    9713    9715    9713    9716    9717    9718
    9717    9719    9717    9720    9721    9722    9721    9723
    9721    9724    9725    9726    9725    9727    9725    9728
    9729    9730    9729    9731    9729    9732    9733    9734
    9733    9735    9733    9736    9737    9738    9737    9739
    9737    9740    9741    9742    9741    9743    9741    9744
    9745    9746    9745    9747    9745    9748    9749    9750
    9749    9751    9749    9752    9753    9754    9753    9755
    9753    9756    9757    9758    9757    9759    9757    9760
    9761    9762    9761    9763    9761    9764    9765    9766
    9765    9767    9765    9768    9769    9770    9769    9771
    9769    9772    9773    9774    9773    9775    9773    9776
    9777    9778    9777    9779    9777    9780    9781    9782
    9781    9783    9781    9784    9785    9786    9785    9787
    9785    9788    9789    9790    9789    9791    9789    9792
    9793    9794    9793    9795    9793    9796    9797    9798
    9797    9799    9797    9800    9801    9802    9801    9803
    9801    9804    9805    9806    9805    9807    9805    9808
    9809    9810    9809    9811    9809    9812    9813    9814
    9813    9815    9813    9816    9817    9818    9817    9819
    9817    9820    9821    9822    9821    9823    9821    9824
    9825    9826    9825    9827    9825    9828    9829    9830
    9829    9831    9829    9832    9833    9834    9833    9835
    9833    9836    9837    9838    9837    9839    9837    9840
    9841    9842    9841    9843    9841    9844    9845    9846
    9845    9847    9845    9848    9849    9850    9849    9851
    9849    9852    9853    9854    9853    9855    9853    9856
    9857    9858    9857    9859    9857    9860    9861    9862
    9861    9863    9861    9864    9865    9866    9865    9867
    9865    9868    9869    9870    9869    9871    9869    9872
    9873    9874    9873    9875    9873    9876    9877    9878
    9877    9879    9877    9880    9881    9882    9881    9883
    9881    9884    9885    9886    9885    9887    9885    9888
    9889    9890    9889    9891    9889    9892    9893    9894
    9893    9895    9893    9896    9897    9898    9897    9899
    9897    9900    9901    9902    9901    9903    9901    9904
    9905    9906    9905    9907    9905    9908    9909    9910
    9909    9911    9909    9912    9913    9914    9913    9915
    9913    9916    9917    9918    9917    9919    9917    9920
    9921    9922    9921    9923    9921    9924    9925    9926
    9925    9927    9925    9928    9929    9930    9929    9931
    9929    9932    9933    9934    9933    9935    9933    9936
    9937    9938    9937    9939    9937    9940    9941    9942
    9941    9943    9941    9944    9945    9946    9945    9947
    9945    9948    9949    9950    9949    9951    9949    9952
    9953    9954    9953    9955    9953    9956    9957    9958
    9957    9959    9957    9960    9961    9962    9961    9963
    9961    9964    9965    9966    9965    9967    9965    9968
    9969    9970    9969    9971    9969    9972    9973    9974
    9973    9975    9973    9976    9977    9978    9977    9979
    9977    9980    9981    9982    9981    9983    9981    9984
    9985    9986    9985    9987    9985    9988    9989    9990
    9989    9991    9989    9992    9993    9994    9993    9995
    9993    9996    9997    9998    9997    9999    9997   10000
   10001   10002   10001   10003   10001   10004   10005   10006
   10005   10007   10005   10008   10009   10010   10009   10011
   10009   10012   10013   10014   10013   10015   10013   10016
   10017   10018   10017   10019   10017   10020   10021   10022
   10021   10023   10021   10024   10025   10026   10025   10027
   10025   10028   10029   10030   10029   10031   10029   10032
   10033   10034   10033   10035   10033   10036   10037   10038
   10037   10039   10037   10040   10041   10042   10041   10043
   10041   10044   10045   10046   10045   10047   10045   10048
   10049   10050   10049   10051   10049   10052   10053   10054
   10053   10055   10053   10056   10057   10058   10057   10059
   10057   10060   10061   10062   10061   10063   10061   10064
   10065   10066   10065   10067   10065   10068   10069   10070
   10069   10071   10069   10072   10073   10074   10073   10075
   10073   10076   10077   10078   10077   10079   10077   10080
   10081   10082   10081   10083   10081   10084   10085   10086
   10085   10087   10085   10088   10089   10090   10089   10091
   10089   10092   10093   10094   10093   10095   10093   10096
   10097   10098   10097   10099   10097   10100   10101   10102
   10101   10103   10101   10104   10105   10106   10105   10107
   10105   10108   10109   10110   10109   10111   10109   10112
   10113   10114   10113   10115   10113   10116   10117   10118
   10117   10119   10117   10120   10121   10122   10121   10123
   10121   10124   10125   10126   10125   10127   10125   10128
   10129   10130   10129   10131   10129   10132   10133   10134
   10133   10135   10133   10136   10137   10138   10137   10139
   10137   10140   10141   10142   10141   10143   10141   10144
   10145   10146   10145   10147   10145   10148   10149   10150
   10149   10151   10149   10152   10153   10154   10153   10155
   10153   10156   10157   10158   10157   10159   10157   10160
   10161   10162   10161   10163   10161   10164   10165   10166
   10165   10167   10165   10168   10169   10170   10169   10171
   10169   10172   10173   10174   10173   10175   10173   10176
   10177   10178   10177   10179   10177   10180   10181   10182
   10181   10183   10181   10184   10185   10186   10185   10187
   10185   10188   10189   10190   10189   10191   10189   10192
   10193   10194   10193   10195   10193   10196   10197   10198
   10197   10199   10197   10200   10201   10202   10201   10203
   10201   10204   10205   10206   10205   10207   10205   10208
   10209   10210   10209   10211   10209   10212   10213   10214
   10213   10215   10213   10216   10217   10218   10217   10219
   10217   10220   10221   10222   10221   10223   10221   10224
   10225   10226   10225   10227   10225   10228   10229   10230
   10229   10231   10229   10232   10233   10234   10233   10235
   10233   10236   10237   10238   10237   10239   10237   10240
   10241   10242   10241   10243   10241   10244   10245   10246
   10245   10247   10245   10248   10249   10250   10249   10251
   10249   10252   10253   10254   10253   10255   10253   10256
   10257   10258   10257   10259   10257   10260   10261   10262
   10261   10263   10261   10264   10265   10266   10265   10267
   10265   10268   10269   10270   10269   10271   10269   10272
   10273   10274   10273   10275   10273   10276   10277   10278
   10277   10279   10277   10280   10281   10282   10281   10283
   10281   10284   10285   10286   10285   10287   10285   10288
   10289   10290   10289   10291   10289   10292   10293   10294
   10293   10295   10293   10296   10297   10298   10297   10299
   10297   10300   10301   10302   10301   10303   10301   10304
   10305   10306   10305   10307   10305   10308   10309   10310
   10309   10311   10309   10312   10313   10314   10313   10315
   10313   10316   10317   10318   10317   10319   10317   10320
   10321   10322   10321   10323   10321   10324   10325   10326
   10325   10327   10325   10328   10329   10330   10329   10331
   10329   10332   10333   10334   10333   10335   10333   10336
   10337   10338   10337   10339   10337   10340   10341   10342
   10341   10343   10341   10344   10345   10346   10345   10347
   10345   10348   10349   10350   10349   10351   10349   10352
   10353   10354   10353   10355   10353   10356   10357   10358
   10357   10359   10357   10360   10361   10362   10361   10363
   10361   10364   10365   10366   10365   10367   10365   10368
   10369   10370   10369   10371   10369   10372   10373   10374
   10373   10375   10373   10376   10377   10378   10377   10379
   10377   10380   10381   10382   10381   10383   10381   10384
   10385   10386   10385   10387   10385   10388   10389   10390
   10389   10391   10389   10392   10393   10394   10393   10395
   10393   10396   10397   10398   10397   10399   10397   10400
   10401   10402   10401   10403   10401   10404   10405   10406
   10405   10407   10405   10408   10409   10410   10409   10411
   10409   10412   10413   10414   10413   10415   10413   10416
   10417   10418   10417   10419   10417   10420   10421   10422
   10421   10423   10421   10424   10425   10426   10425   10427
   10425   10428   10429   10430   10429   10431   10429   10432
   10433   10434   10433   10435   10433   10436   10437   10438
   10437   10439   10437   10440   10441   10442   10441   10443
   10441   10444   10445   10446   10445   10447   10445   10448
   10449   10450   10449   10451   10449   10452   10453   10454
   10453   10455   10453   10456   10457   10458   10457   10459
   10457   10460   10461   10462   10461   10463   10461   10464
   10465   10466   10465   10467   10465   10468   10469   10470
   10469   10471   10469   10472   10473   10474   10473   10475
   10473   10476   10477   10478   10477   10479   10477   10480
   10481   10482   10481   10483   10481   10484   10485   10486
   10485   10487   10485   10488   10489   10490   10489   10491
   10489   10492   10493   10494   10493   10495   10493   10496
   10497   10498   10497   10499   10497   10500   10501   10502
   10501   10503   10501   10504   10505   10506   10505   10507
   10505   10508   10509   10510   10509   10511   10509   10512
   10513   10514   10513   10515   10513   10516   10517   10518
   10517   10519   10517   10520   10521   10522   10521   10523
   10521   10524   10525   10526   10525   10527   10525   10528
   10529   10530   10529   10531   10529   10532   10533   10534
   10533   10535   10533   10536   10537   10538   10537   10539
   10537   10540   10541   10542   10541   10543   10541   10544
   10545   10546   10545   10547   10545   10548   10549   10550
   10549   10551   10549   10552   10553   10554   10553   10555
   10553   10556   10557   10558   10557   10559   10557   10560
   10561   10562   10561   10563   10561   10564   10565   10566
   10565   10567   10565   10568   10569   10570   10569   10571
   10569   10572   10573   10574   10573   10575   10573   10576
   10577   10578   10577   10579   10577   10580   10581   10582
   10581   10583   10581   10584   10585   10586   10585   10587
   10585   10588   10589   10590   10589   10591   10589   10592
   10593   10594   10593   10595   10593   10596   10597   10598
   10597   10599   10597   10600   10601   10602   10601   10603
   10601   10604   10605   10606   10605   10607   10605   10608
   10609   10610   10609   10611   10609   10612   10613   10614
   10613   10615   10613   10616   10617   10618   10617   10619
   10617   10620   10621   10622   10621   10623   10621   10624
   10625   10626   10625   10627   10625   10628   10629   10630
   10629   10631   10629   10632   10633   10634   10633   10635
   10633   10636   10637   10638   10637   10639   10637   10640
   10641   10642   10641   10643   10641   10644   10645   10646
   10645   10647   10645   10648   10649   10650   10649   10651
   10649   10652   10653   10654   10653   10655   10653   10656
   10657   10658   10657   10659   10657   10660   10661   10662
   10661   10663   10661   10664   10665   10666   10665   10667
   10665   10668   10669   10670   10669   10671   10669   10672
   10673   10674   10673   10675   10673   10676   10677   10678
   10677   10679   10677   10680   10681   10682   10681   10683
   10681   10684   10685   10686   10685   10687   10685   10688
   10689   10690   10689   10691   10689   10692   10693   10694
   10693   10695   10693   10696   10697   10698   10697   10699
   10697   10700   10701   10702   10701   10703   10701   10704
   10705   10706   10705   10707   10705   10708   10709   10710
   10709   10711   10709   10712   10713   10714   10713   10715
   10713   10716   10717   10718   10717   10719   10717   10720
   10721   10722   10721   10723   10721   10724   10725   10726
   10725   10727   10725   10728   10729   10730   10729   10731
   10729   10732   10733   10734   10733   10735   10733   10736
   10737   10738   10737   10739   10737   10740   10741   10742
   10741   10743   10741   10744   10745   10746   10745   10747
   10745   10748   10749   10750   10749   10751   10749   10752
   10753   10754   10753   10755   10753   10756   10757   10758
   10757   10759   10757   10760   10761   10762   10761   10763
   10761   10764   10765   10766   10765   10767   10765   10768
   10769   10770   10769   10771   10769   10772   10773   10774
   10773   10775   10773   10776   10777   10778   10777   10779
   10777   10780   10781   10782   10781   10783   10781   10784
   10785   10786   10785   10787   10785   10788   10789   10790
   10789   10791   10789   10792   10793   10794   10793   10795
   10793   10796   10797   10798   10797   10799   10797   10800
   10801   10802   10801   10803   10801   10804   10805   10806
   10805   10807   10805   10808   10809   10810   10809   10811
   10809   10812   10813   10814   10813   10815   10813   10816
   10817   10818   10817   10819   10817   10820   10821   10822
   10821   10823   10821   10824   10825   10826   10825   10827
   10825   10828   10829   10830   10829   10831   10829   10832
   10833   10834   10833   10835   10833   10836   10837   10838
   10837   10839   10837   10840   10841   10842   10841   10843
   10841   10844   10845   10846   10845   10847   10845   10848
   10849   10850   10849   10851   10849   10852   10853   10854
   10853   10855   10853   10856   10857   10858   10857   10859
   10857   10860   10861   10862   10861   10863   10861   10864
   10865   10866   10865   10867   10865   10868   10869   10870
   10869   10871   10869   10872   10873   10874   10873   10875
   10873   10876   10877   10878   10877   10879   10877   10880
   10881   10882   10881   10883   10881   10884   10885   10886
   10885   10887   10885   10888   10889   10890   10889   10891
   10889   10892   10893   10894   10893   10895   10893   10896
   10897   10898   10897   10899   10897   10900   10901   10902
   10901   10903   10901   10904   10905   10906   10905   10907
   10905   10908   10909   10910   10909   10911   10909   10912
   10913   10914   10913   10915   10913   10916   10917   10918
   10917   10919   10917   10920   10921   10922   10921   10923
   10921   10924   10925   10926   10925   10927   10925   10928
   10929   10930   10929   10931   10929   10932   10933   10934
   10933   10935   10933   10936   10937   10938   10937   10939
   10937   10940   10941   10942   10941   10943   10941   10944
   10945   10946   10945   10947   10945   10948   10949   10950
   10949   10951   10949   10952   10953   10954   10953   10955
   10953   10956   10957   10958   10957   10959   10957   10960
   10961   10962   10961   10963   10961   10964   10965   10966
   10965   10967   10965   10968   10969   10970   10969   10971
   10969   10972   10973   10974   10973   10975   10973   10976
   10977   10978   10977   10979   10977   10980   10981   10982
   10981   10983   10981   10984   10985   10986   10985   10987
   10985   10988   10989   10990   10989   10991   10989   10992
   10993   10994   10993   10995   10993   10996   10997   10998
   10997   10999   10997   11000   11001   11002   11001   11003
   11001   11004   11005   11006   11005   11007   11005   11008
   11009   11010   11009   11011   11009   11012   11013   11014
   11013   11015   11013   11016   11017   11018   11017   11019
   11017   11020   11021   11022   11021   11023   11021   11024
   11025   11026   11025   11027   11025   11028   11029   11030
   11029   11031   11029   11032   11033   11034   11033   11035
   11033   11036   11037   11038   11037   11039   11037   11040
   11041   11042   11041   11043   11041   11044   11045   11046
   11045   11047   11045   11048   11049   11050   11049   11051
   11049   11052   11053   11054   11053   11055   11053   11056
   11057   11058   11057   11059   11057   11060   11061   11062
   11061   11063   11061   11064   11065   11066   11065   11067
   11065   11068   11069   11070   11069   11071   11069   11072
   11073   11074   11073   11075   11073   11076   11077   11078
   11077   11079   11077   11080   11081   11082   11081   11083
   11081   11084   11085   11086   11085   11087   11085   11088
   11089   11090   11089   11091   11089   11092   11093   11094
   11093   11095   11093   11096   11097   11098   11097   11099
   11097   11100   11101   11102   11101   11103   11101   11104
   11105   11106   11105   11107   11105   11108   11109   11110
   11109   11111   11109   11112   11113   11114   11113   11115
   11113   11116   11117   11118   11117   11119   11117   11120
   11121   11122   11121   11123   11121   11124   11125   11126
   11125   11127   11125   11128   11129   11130   11129   11131
   11129   11132   11133   11134   11133   11135   11133   11136
   11137   11138   11137   11139   11137   11140   11141   11142
   11141   11143   11141   11144   11145   11146   11145   11147
   11145   11148   11149   11150   11149   11151   11149   11152
   11153   11154   11153   11155   11153   11156   11157   11158
   11157   11159   11157   11160   11161   11162   11161   11163
   11161   11164   11165   11166   11165   11167   11165   11168
   11169   11170   11169   11171   11169   11172   11173   11174
   11173   11175   11173   11176   11177   11178   11177   11179
   11177   11180   11181   11182   11181   11183   11181   11184
   11185   11186   11185   11187   11185   11188   11189   11190
   11189   11191   11189   11192   11193   11194   11193   11195
   11193   11196   11197   11198   11197   11199   11197   11200
   11201   11202   11201   11203   11201   11204   11205   11206
   11205   11207   11205   11208   11209   11210   11209   11211
   11209   11212   11213   11214   11213   11215   11213   11216
   11217   11218   11217   11219   11217   11220   11221   11222
   11221   11223   11221   11224   11225   11226   11225   11227
   11225   11228   11229   11230   11229   11231   11229   11232
   11233   11234   11233   11235   11233   11236   11237   11238
   11237   11239   11237   11240   11241   11242   11241   11243
   11241   11244   11245   11246   11245   11247   11245   11248
   11249   11250   11249   11251   11249   11252   11253   11254
   11253   11255   11253   11256   11257   11258   11257   11259
   11257   11260   11261   11262   11261   11263   11261   11264
   11265   11266   11265   11267   11265   11268   11269   11270
   11269   11271   11269   11272   11273   11274   11273   11275
   11273   11276   11277   11278   11277   11279   11277   11280
   11281   11282   11281   11283   11281   11284   11285   11286
   11285   11287   11285   11288   11289   11290   11289   11291
   11289   11292   11293   11294   11293   11295   11293   11296
   11297   11298   11297   11299   11297   11300   11301   11302
   11301   11303   11301   11304   11305   11306   11305   11307
   11305   11308   11309   11310   11309   11311   11309   11312
   11313   11314   11313   11315   11313   11316   11317   11318
   11317   11319   11317   11320   11321   11322   11321   11323
   11321   11324   11325   11326   11325   11327   11325   11328
   11329   11330   11329   11331   11329   11332   11333   11334
   11333   11335   11333   11336   11337   11338   11337   11339
   11337   11340   11341   11342   11341   11343   11341   11344
   11345   11346   11345   11347   11345   11348   11349   11350
   11349   11351   11349   11352   11353   11354   11353   11355
   11353   11356   11357   11358   11357   11359   11357   11360
   11361   11362   11361   11363   11361   11364   11365   11366
   11365   11367   11365   11368   11369   11370   11369   11371
   11369   11372   11373   11374   11373   11375   11373   11376
   11377   11378   11377   11379   11377   11380   11381   11382
   11381   11383   11381   11384   11385   11386   11385   11387
   11385   11388   11389   11390   11389   11391   11389   11392
   11393   11394   11393   11395   11393   11396   11397   11398
   11397   11399   11397   11400   11401   11402   11401   11403
   11401   11404   11405   11406   11405   11407   11405   11408
   11409   11410   11409   11411   11409   11412   11413   11414
   11413   11415   11413   11416   11417   11418   11417   11419
   11417   11420   11421   11422   11421   11423   11421   11424
   11425   11426   11425   11427   11425   11428   11429   11430
   11429   11431   11429   11432   11433   11434   11433   11435
   11433   11436   11437   11438   11437   11439   11437   11440
   11441   11442   11441   11443   11441   11444   11445   11446
   11445   11447   11445   11448   11449   11450   11449   11451
   11449   11452   11453   11454   11453   11455   11453   11456
   11457   11458   11457   11459   11457   11460   11461   11462
   11461   11463   11461   11464   11465   11466   11465   11467
   11465   11468   11469   11470   11469   11471   11469   11472
   11473   11474   11473   11475   11473   11476   11477   11478
   11477   11479   11477   11480   11481   11482   11481   11483
   11481   11484   11485   11486   11485   11487   11485   11488
   11489   11490   11489   11491   11489   11492   11493   11494
   11493   11495   11493   11496   11497   11498   11497   11499
   11497   11500   11501   11502   11501   11503   11501   11504
   11505   11506   11505   11507   11505   11508   11509   11510
   11509   11511   11509   11512   11513   11514   11513   11515
   11513   11516   11517   11518   11517   11519   11517   11520
   11521   11522   11521   11523   11521   11524   11525   11526
   11525   11527   11525   11528   11529   11530   11529   11531
   11529   11532   11533   11534   11533   11535   11533   11536
   11537   11538   11537   11539   11537   11540   11541   11542
   11541   11543   11541   11544   11545   11546   11545   11547
   11545   11548   11549   11550   11549   11551   11549   11552
   11553   11554   11553   11555   11553   11556   11557   11558
   11557   11559   11557   11560   11561   11562   11561   11563
   11561   11564   11565   11566   11565   11567   11565   11568
   11569   11570   11569   11571   11569   11572   11573   11574
   11573   11575   11573   11576   11577   11578   11577   11579
   11577   11580   11581   11582   11581   11583   11581   11584
   11585   11586   11585   11587   11585   11588   11589   11590
   11589   11591   11589   11592   11593   11594   11593   11595
   11593   11596   11597   11598   11597   11599   11597   11600
   11601   11602   11601   11603   11601   11604   11605   11606
   11605   11607   11605   11608   11609   11610   11609   11611
   11609   11612   11613   11614   11613   11615   11613   11616
   11617   11618   11617   11619   11617   11620   11621   11622
   11621   11623   11621   11624   11625   11626   11625   11627
   11625   11628   11629   11630   11629   11631   11629   11632
   11633   11634   11633   11635   11633   11636   11637   11638
   11637   11639   11637   11640   11641   11642   11641   11643
   11641   11644   11645   11646   11645   11647   11645   11648
   11649   11650   11649   11651   11649   11652   11653   11654
   11653   11655   11653   11656   11657   11658   11657   11659
   11657   11660   11661   11662   11661   11663   11661   11664
   11665   11666   11665   11667   11665   11668   11669   11670
   11669   11671   11669   11672   11673   11674   11673   11675
   11673   11676   11677   11678   11677   11679   11677   11680
   11681   11682   11681   11683   11681   11684   11685   11686
   11685   11687   11685   11688   11689   11690   11689   11691
   11689   11692   11693   11694   11693   11695   11693   11696
   11697   11698   11697   11699   11697   11700   11701   11702
   11701   11703   11701   11704   11705   11706   11705   11707
   11705   11708   11709   11710   11709   11711   11709   11712
   11713   11714   11713   11715   11713   11716   11717   11718
   11717   11719   11717   11720   11721   11722   11721   11723
   11721   11724   11725   11726   11725   11727   11725   11728
   11729   11730   11729   11731   11729   11732   11733   11734
   11733   11735   11733   11736   11737   11738   11737   11739
   11737   11740   11741   11742   11741   11743   11741   11744
   11745   11746   11745   11747   11745   11748   11749   11750
   11749   11751   11749   11752   11753   11754   11753   11755
   11753   11756   11757   11758   11757   11759   11757   11760
   11761   11762   11761   11763   11761   11764   11765   11766
   11765   11767   11765   11768   11769   11770   11769   11771
   11769   11772   11773   11774   11773   11775   11773   11776
   11777   11778   11777   11779   11777   11780   11781   11782
   11781   11783   11781   11784   11785   11786   11785   11787
   11785   11788   11789   11790   11789   11791   11789   11792
   11793   11794   11793   11795   11793   11796   11797   11798
   11797   11799   11797   11800   11801   11802   11801   11803
   11801   11804   11805   11806   11805   11807   11805   11808
   11809   11810   11809   11811   11809   11812   11813   11814
   11813   11815   11813   11816   11817   11818   11817   11819
   11817   11820   11821   11822   11821   11823   11821   11824
   11825   11826   11825   11827   11825   11828   11829   11830
   11829   11831   11829   11832   11833   11834   11833   11835
   11833   11836   11837   11838   11837   11839   11837   11840
   11841   11842   11841   11843   11841   11844   11845   11846
   11845   11847   11845   11848   11849   11850   11849   11851
   11849   11852   11853   11854   11853   11855   11853   11856
   11857   11858   11857   11859   11857   11860   11861   11862
   11861   11863   11861   11864   11865   11866   11865   11867
   11865   11868   11869   11870   11869   11871   11869   11872
   11873   11874   11873   11875   11873   11876   11877   11878
   11877   11879   11877   11880   11881   11882   11881   11883
   11881   11884   11885   11886   11885   11887   11885   11888
   11889   11890   11889   11891   11889   11892   11893   11894
   11893   11895   11893   11896   11897   11898   11897   11899
   11897   11900   11901   11902   11901   11903   11901   11904
   11905   11906   11905   11907   11905   11908   11909   11910
   11909   11911   11909   11912   11913   11914   11913   11915
   11913   11916   11917   11918   11917   11919   11917   11920
   11921   11922   11921   11923   11921   11924   11925   11926
   11925   11927   11925   11928   11929   11930   11929   11931
   11929   11932   11933   11934   11933   11935   11933   11936
   11937   11938   11937   11939   11937   11940   11941   11942
   11941   11943   11941   11944   11945   11946   11945   11947
   11945   11948   11949   11950   11949   11951   11949   11952
   11953   11954   11953   11955   11953   11956   11957   11958
   11957   11959   11957   11960   11961   11962   11961   11963
   11961   11964   11965   11966   11965   11967   11965   11968
   11969   11970   11969   11971   11969   11972   11973   11974
   11973   11975   11973   11976   11977   11978   11977   11979
   11977   11980   11981   11982   11981   11983   11981   11984
   11985   11986   11985   11987   11985   11988   11989   11990
   11989   11991   11989   11992   11993   11994   11993   11995
   11993   11996   11997   11998   11997   11999   11997   12000

    9000 !NTHETA: angles
       2       1       3       2       1       4       3       1       4
       6       5       7       6       5       8       7       5       8
      10       9      11      10       9      12      11       9      12
      14      13      15      14      13      16      15      13      16
      18      17      19      18      17      20      19      17      20
      22      21      23      22      21      24      23      21      24
      26      25      27      26      25      28      27      25      28
      30      29      31      30      29      32      31      29      32
      34      33      35      34      33      36      35      33      36
      38      37      39      38      37      40      39      37      40
      42      41      43      42      41      44      43      41      44
      46      45      47      46      45      48      47      45      48
      50      49      51      50      49      52      51      49      52
      54      53      55      54      53      56      55      53      56
      58      57      59      58      57      60      59      57      60
      62      61      63      62      61      64      63      61      64
      66      65      67      66      65      68      67      65      68
      70      69      71      70      69      72      71      69      72
      74      73      75      74      73      76      75      73      76
      78      77      79      78      77      80      79      77      80
      82      81      83      82      81      84      83      81      84
      86      85      87      86      85      88      87      85      88
      90      89      91      90      89      92      91      89      92
      94      93      95      94      93      96      95      93      96
      98      97      99      98      97     100      99      97     100
     102     101     103     102     101     104     103     101     104
     106     105     107     106     105     108     107     105     108
     110     109     111     110     109     112     111     109     112
     114     113     115     114     113     116     115     113     116
     118     117     119     118     117     120     119     117     120
     122     121     123     122     121     124     123     121     124
     126     125     127     126     125     128     127     125     128
     130     129     131     130     129     132     131     129     132
     134     133     135     134     133     136     135     133     136
     138     137     139     138     137     140     139     137     140
     142     141     143     142     141     144     143     141     144
     146     145     147     146     145     148     147     145     148
     150     149     151     150     149     152     151     149     152
     154     153     155     154     153     156     155     153     156
     158     157     159     158     157     160     159     157     160
     162     161     163     162     161     164     163     161     164
     166     165     167     166     165     168     167     165     168
     170     169     171     170     169     172     171     169     172
     174     173     175     174     173     176     175     173     176
     178     177     179     178     177     180     179     177     180
     182     181     183     182     181     184     183     181     184
     186     185     187     186     185     188     187     185     188
     190     189     191     190     189     192     191     189     192
     194     193     195     194     193     196     195     193     196
     198     197     199     198     197     200     199     197     200
     202     201     203     202     201     204     203     201     204
     206     205     207     206     205     208     207     205     208
     210     209     211     210     209     212     211     209     212
     214     213     215     214     213     216     215     213     216
     218     217     219     218     217     220     219     217     220
     222     221     223     222     221     224     223     221     224
     226     225     227     226     225     228     227     225     228
     230     229     231     230     229     232     231     229     232
     234     233     235     234     233     236     235     233     236
     238     237     239     238     237     240     239     237     240
     242     241     243     242     241     244     243     241     244
     246     245     247     246     245     248     247     245     248
     250     249     251     250     249     252     251     249     252
     254     253     255     254     253     256     255     253     256
     258     257     259     258     257     260     259     257     260
     262     261     263     262     261     264     263     261     264
     266     265     267     266     265     268     267     265     268
     270     269     271     270     269     272     271     269     272
     274     273     275     274     273     276     275     273     276
     278     277     279     278     277     280     279     277     280
     282     281     283     282     281     284     283     281     284
     286     285     287     286     285     288     287     285     288
     290     289     291     290     289     292     291     289     292
     294     293     295     294     293     296     295     293     296
     298     297     299     298     297     300     299     297     300
     302     301     303     302     301     304     303     301     304
     306     305     307     306     305     308     307     305     308
     310     309     311     310     309     312     311     309     312
     314     313     315     314     313     316     315     313     316
     318     317     319     318     317     320     319     317     320
     322     321     323     322     321     324     323     321     324
     326     325     327     326     325     328     327     325     328
     330     329     331     330     329     332     331     329     332
     334     333     335     334     333     336     335     333     336
     338     337     339     338     337     340     339     337     340
     342     341     343     342     341     344     343     341     344
     346     345     347     346     345     348     347     345     348
     350     349     351     350     349     352     351     349     352
     354     353     355     354     353     356     355     353     356
     358     357     359     358     357     360     359     357     360
     362     361     363     362     361     364     363     361     364
     366     365     367     366     365     368     367     365     368
     370     369     371     370     369     372     371     369     372
     374     373     375     374     373     376     375     373     376
     378     377     379     378     377     380     379     377     380
     382     381     383     382     381     384     383     381     384
     386     385     387     386     385     388     387     385     388
     390     389     391     390     389     392     391     389     392
     394     393     395     394     393     396     395     393     396
     398     397     399     398     397     400     399     397     400
     402     401     403     402     401     404     403     401     404
     406     405     407     406     405     408     407     405     408
     410     409     411     410     409     412     411     409     412
     414     413     415     414     413     416     415     413     416
     418     417     419     418     417     420     419     417     420
     422     421     423     422     421     424     423     421     424
     426     425     427     426     425     428     427     425     428
     430     429     431     430     429     432     431     429     432
     434     433     435     434     433     436     435     433     436
     438     437     439     438     437     440     439     437     440
     442     441     443     442     441     444     443     441     444
     446     445     447     446     445     448     447     445     448
     450     449     451     450     449     452     451     449     452
     454     453     455     454     453     456     455     453     456
     458     457     459     458     457     460     459     457     460
     462     461     463     462     461     464     463     461     464
     466     465     467     466     465     468     467     465     468
     470     469     471     470     469     472     471     469     472
     474     473     475     474     473     476     475     473     476
     478     477     479     478     477     480     479     477     480
     482     481     483     482     481     484     483     481     484
     486     485     487     486     485     488     487     485     488
     490     489     491     490     489     492     491     489     492
     494     493     495     494     493     496     495     493     496
     498     497     499     498     497     500     499     497     500
     502     501     503     502     501     504     503     501     504
     506     505     507     506     505     508     507     505     508
     510     509     511     510     509     512     511     509     512
     514     513     515     514     513     516     515     513     516
     518     517     519     518     517     520     519     517     520
     522     521     523     522     521     524     523     521     524
     526     525     527     526     525     528     527     525     528
     530     529     531     530     529     532     531     529     532
     534     533     535     534     533     536     535     533     536
     538     537     539     538     537     540     539     537     540
     542     541     543     542     541     544     543     541     544
     546     545     547     546     545     548     547     545     548
     550     549     551     550     549     552     551     549     552
     554     553     555     554     553     556     555     553     556
     558     557     559     558     557     560     559     557     560
     562     561     563     562     561     564     563     561     564
     566     565     567     566     565     568     567     565     568
     570     569     571     570     569     572     571     569     572
     574     573     575     574     573     576     575     573     576
     578     577     579     578     577     580     579     577     580
     582     581     583     582     581     584     583     581     584
     586     585     587     586     585     588     587     585     588
     590     589     591     590     589     592     591     589     592
     594     593     595     594     593     596     595     593     596
     598     597     599     598     597     600     599     597     600
     602     601     603     602     601     604     603     601     604
     606     605     607     606     605     608     607     605     608
     610     609     611     610     609     612     611     609     612
     614     613     615     614     613     616     615     613     616
     618     617     619     618     617     620     619     617     620
     622     621     623     622     621     624     623     621     624
     626     625     627     626     625     628     627     625     628
     630     629     631     630     629     632     631     629     632
     634     633     635     634     633     636     635     633     636
     638     637     639     638     637     640     639     637     640
     642     641     643     642     641     644     643     641     644
     646     645     647     646     645     648     647     645     648
     650     649     651     650     649     652     651     649     652
     654     653     655     654     653     656     655     653     656
     658     657     659     658     657     660     659     657     660
     662     661     663     662     661     664     663     661     664
     666     665     667     666     665     668     667     665     668
     670     669     671     670     669     672     671     669     672
     674     673     675     674     673     676     675     673     676
     678     677     679     678     677     680     679     677     680
     682     681     683     682     681     684     683     681     684
     686     685     687     686     685     688     687     685     688
     690     689     691     690     689     692     691     689     692
     694     693     695     694     693     696     695     693     696
     698     697     699     698     697     700     699     697     700
     702     701     703     702     701     704     703     701     704
     706     705     707     706     705     708     707     705     708
     710     709     711     710     709     712     711     709     712
     714     713     715     714     713     716     715     713     716
     718     717     719     718     717     720     719     717     720
     722     721     723     722     721     724     723     721     724
     726     725     727     726     725     728     727     725     728
     730     729     731     730     729     732     731     729     732
     734     733     735     734     733     736     735     733     736
     738     737     739     738     737     740     739     737     740
     742     741     743     742     741     744     743     741     744
     746     745     747     746     745     748     747     745     748
     750     749     751     750     749     752     751     749     752
     754     753     755     754     753     756     755     753     756
     758     757     759     758     757     760     759     757     760
     762     761     763     762     761     764     763     761     764
     766     765     767     766     765     768     767     765     768
     770     769     771     770     769     772     771     769     772
     774     773     775     774     773     776     775     773     776
     778     777     779     778     777     780     779     777     780
     782     781     783     782     781     784     783     781     784
     786     785     787     786     785     788     787     785     788
     790     789     791     790     789     792     791     789     792
     794     793     795     794     793     796     795     793     796
     798     797     799     798     797     800     799     797     800
     802     801     803     802     801     804     803     801     804
     806     805     807     806     805     808     807     805     808
     810     809     811     810     809     812     811     809     812
     814     813     815     814     813     816     815     813     816
     818     817     819     818     817     820     819     817     820
     822     821     823     822     821     824     823     821     824
     826     825     827     826     825     828     827     825     828
     830     829     831     830     829     832     831     829     832
     834     833     835     834     833     836     835     833     836
     838     837     839     838     837     840     839     837     840
     842     841     843     842     841     844     843     841     844
     846     845     847     846     845     848     847     845     848
     850     849     851     850     849     852     851     849     852
     854     853     855     854     853     856     855     853     856
     858     857     859     858     857     860     859     857     860
     862     861     863     862     861     864     863     861     864
     866     865     867     866     865     868     867     865     868
     870     869     871     870     869     872     871     869     872
     874     873     875     874     873     876     875     873     876
     878     877     879     878     877     880     879     877     880
     882     881     883     882     881     884     883     881     884
     886     885     887     886     885     888     887     885     888
     890     889     891     890     889     892     891     889     892
     894     893     895     894     893     896     895     893     896
     898     897     899     898     897     900     899     897     900
     902     901     903     902     901     904     903     901     904
     906     905     907     906     905     908     907     905     908
     910     909     911     910     909     912     911     909     912
     914     913     915     914     913     916     915     913     916
     918     917     919     918     917     920     919     917     920
     922     921     923     922     921     924     923     921     924
     926     925     927     926     925     928     927     925     928
     930     929     931     930     929     932     931     929     932
     934     933     935     934     933     936     935     933     936
     938     937     939     938     937     940     939     937     940
     942     941     943     942     941     944     943     941     944
     946     945     947     946     945     948     947     945     948
     950     949     951     950     949     952     951     949     952
     954     953     955     954     953     956     955     953     956
     958     957     959     958     957     960     959     957     960
     962     961     963     962     961     964     963     961     964
     966     965     967     966     965     968     967     965     968
     970     969     971     970     969     972     971     969     972
     974     973     975     974     973     976     975     973     976
     978     977     979     978     977     980     979     977     980
     982     981     983     982     981     984     983     981     984
     986     985     987     986     985     988     987     985     988
     990     989     991     990     989     992     991     989     992
     994     993     995     994     993     996     995     993     996
     998     997     999     998     997    1000     999     997    1000
    1002    1001    1003    1002    1001    1004    1003    1001    1004
    1006    1005    1007    1006    1005    1008    1007    1005    1008
    1010    1009    1011    1010    1009    1012    1011    1009    1012
    1014    1013    1015    1014    1013    1016    1015    1013    1016
    1018    1017    1019    1018    1017    1020    1019    1017    1020
    1022    1021    1023    1022    1021    1024    1023    1021    1024
    1026    1025    1027    1026    1025    1028    1027    1025    1028
    1030    1029    1031    1030    1029    1032    1031    1029    1032
    1034    1033    1035    1034    1033    1036    1035    1033    1036
    1038    1037    1039    1038    1037    1040    1039    1037    1040
    1042    1041    1043    1042    1041    1044    1043    1041    1044
    1046    1045    1047    1046    1045    1048    1047    1045    1048
    1050    1049    1051    1050    1049    1052    1051    1049    1052
    1054    1053    1055    1054    1053    1056    1055    1053    1056
    1058    1057    1059    1058    1057    1060    1059    1057    1060
    1062    1061    1063    1062    1061    1064    1063    1061    1064
    1066    1065    1067    1066    1065    1068    1067    1065    1068
    1070    1069    1071    1070    1069    1072    1071    1069    1072
    1074    1073    1075    1074    1073    1076    1075    1073    1076
    1078    1077    1079    1078    1077    1080    1079    1077    1080
    1082    1081    1083    1082    1081    1084    1083    1081    1084
    1086    1085    1087    1086    1085    1088    1087    1085    1088
    1090    1089    1091    1090    1089    1092    1091    1089    1092
    1094    1093    1095    1094    1093    1096    1095    1093    1096
    1098    1097    1099    1098    1097    1100    1099    1097    1100
    1102    1101    1103    1102    1101    1104    1103    1101    1104
    1106    1105    1107    1106    1105    1108    1107    1105    1108
    1110    1109    1111    1110    1109    1112    1111    1109    1112
    1114    1113    1115    1114    1113    1116    1115    1113    1116
    1118    1117    1119    1118    1117    1120    1119    1117    1120
    1122    1121    1123    1122    1121    1124    1123    1121    1124
    1126    1125    1127    1126    1125    1128    1127    1125    1128
    1130    1129    1131    1130    1129    1132    1131    1129    1132
    1134    1133    1135    1134    1133    1136    1135    1133    1136
    1138    1137    1139    1138    1137    1140    1139    1137    1140
    1142    1141    1143    1142    1141    1144    1143    1141    1144
    1146    1145    1147    1146    1145    1148    1147    1145    1148
    1150    1149    1151    1150    1149    1152    1151    1149    1152
    1154    1153    1155    1154    1153    1156    1155    1153    1156
    1158    1157    1159    1158    1157    1160    1159    1157    1160
    1162    1161    1163    1162    1161    1164    1163    1161    1164
    1166    1165    1167    1166    1165    1168    1167    1165    1168
    1170    1169    1171    1170    1169    1172    1171    1169    1172
    1174    1173    1175    1174    1173    1176    1175    1173    1176
    1178    1177    1179    1178    1177    1180    1179    1177    1180
    1182    1181    1183    1182    1181    1184    1183    1181    1184
    1186    1185    1187    1186    1185    1188    1187    1185    1188
    1190    1189    1191    1190    1189    1192    1191    1189    1192
    1194    1193    1195    1194    1193    1196    1195    1193    1196
    1198    1197    1199    1198    1197    1200    1199    1197    1200
    1202    1201    1203    1202    1201    1204    1203    1201    1204
    1206    1205    1207    1206    1205    1208    1207    1205    1208
    1210    1209    1211    1210    1209    1212    1211    1209    1212
    1214    1213    1215    1214    1213    1216    1215    1213    1216
    1218    1217    1219    1218    1217    1220    1219    1217    1220
    1222    1221    1223    1222    1221    1224    1223    1221    1224
    1226    1225    1227    1226    1225    1228    1227    1225    1228
    1230    1229    1231    1230    1229    1232    1231    1229    1232
    1234    1233    1235    1234    1233    1236    1235    1233    1236
    1238    1237    1239    1238    1237    1240    1239    1237    1240
    1242    1241    1243    1242    1241    1244    1243    1241    1244
    1246    1245    1247    1246    1245    1248    1247    1245    1248
    1250    1249    1251    1250    1249    1252    1251    1249    1252
    1254    1253    1255    1254    1253    1256    1255    1253    1256
    1258    1257    1259    1258    1257    1260    1259    1257    1260
    1262    1261    1263    1262    1261    1264    1263    1261    1264
    1266    1265    1267    1266    1265    1268    1267    1265    1268
    1270    1269    1271    1270    1269    1272    1271    1269    1272
    1274    1273    1275    1274    1273    1276    1275    1273    1276
    1278    1277    1279    1278    1277    1280    1279    1277    1280
    1282    1281    1283    1282    1281    1284    1283    1281    1284
    1286    1285    1287    1286    1285    1288    1287    1285    1288
    1290    1289    1291    1290    1289    1292    1291    1289    1292
    1294    1293    1295    1294    1293    1296    1295    1293    1296
    1298    1297    1299    1298    1297    1300    1299    1297    1300
    1302    1301    1303    1302    1301    1304    1303    1301    1304
    1306    1305    1307    1306    1305    1308    1307    1305    1308
    1310    1309    1311    1310    1309    1312    1311    1309    1312
    1314    1313    1315    1314    1313    1316    1315    1313    1316
    1318    1317    1319    1318    1317    1320    1319    1317    1320
    1322    1321    1323    1322    1321    1324    1323    1321    1324
    1326    1325    1327    1326    1325    1328    1327    1325    1328
    1330    1329    1331    1330    1329    1332    1331    1329    1332
    1334    1333    1335    1334    1333    1336    1335    1333    1336
    1338    1337    1339    1338    1337    1340    1339    1337    1340
    1342    1341    1343    1342    1341    1344    1343    1341    1344
    1346    1345    1347    1346    1345    1348    1347    1345    1348
    1350    1349    1351    1350    1349    1352    1351    1349    1352
    1354    1353    1355    1354    1353    1356    1355    1353    1356
    1358    1357    1359    1358    1357    1360    1359    1357    1360
    1362    1361    1363    1362    1361    1364    1363    1361    1364
    1366    1365    1367    1366    1365    1368    1367    1365    1368
    1370    1369    1371    1370    1369    1372    1371    1369    1372
    1374    1373    1375    1374    1373    1376    1375    1373    1376
    1378    1377    1379    1378    1377    1380    1379    1377    1380
    1382    1381    1383    1382    1381    1384    1383    1381    1384
    1386    1385    1387    1386    1385    1388    1387    1385    1388
    1390    1389    1391    1390    1389    1392    1391    1389    1392
    1394    1393    1395    1394    1393    1396    1395    1393    1396
    1398    1397    1399    1398    1397    1400    1399    1397    1400
    1402    1401    1403    1402    1401    1404    1403    1401    1404
    1406    1405    1407    1406    1405    1408    1407    1405    1408
    1410    1409    1411    1410    1409    1412    1411    1409    1412
    1414    1413    1415    1414    1413    1416    1415    1413    1416
    1418    1417    1419    1418    1417    1420    1419    1417    1420
    1422    1421    1423    1422    1421    1424    1423    1421    1424
    1426    1425    1427    1426    1425    1428    1427    1425    1428
    1430    1429    1431    1430    1429    1432    1431    1429    1432
    1434    1433    1435    1434    1433    1436    1435    1433    1436
    1438    1437    1439    1438    1437    1440    1439    1437    1440
    1442    1441    1443    1442    1441    1444    1443    1441    1444
    1446    1445    1447    1446    1445    1448    1447    1445    1448
    1450    1449    1451    1450    1449    1452    1451    1449    1452
    1454    1453    1455    1454    1453    1456    1455    1453    1456
    1458    1457    1459    1458    1457    1460    1459    1457    1460
    1462    1461    1463    1462    1461    1464    1463    1461    1464
    1466    1465    1467    1466    1465    1468    1467    1465    1468
    1470    1469    1471    1470    1469    1472    1471    1469    1472
    1474    1473    1475    1474    1473    1476    1475    1473    1476
    1478    1477    1479    1478    1477    1480    1479    1477    1480
    1482    1481    1483    1482    1481    1484    1483    1481    1484
    1486    1485    1487    1486    1485    1488    1487    1485    1488
    1490    1489    1491    1490    1489    1492    1491    1489    1492
    1494    1493    1495    1494    1493    1496    1495    1493    1496
    1498    1497    1499    1498    1497    1500    1499    1497    1500
    1502    1501    1503    1502    1501    1504    1503    1501    1504
    1506    1505    1507    1506    1505    1508    1507    1505    1508
    1510    1509    1511    1510    1509    1512    1511    1509    1512
    1514    1513    1515    1514    1513    1516    1515    1513    1516
    1518    1517    1519    1518    1517    1520    1519    1517    1520
    1522    1521    1523    1522    1521    1524    1523    1521    1524
    1526    1525    1527    1526    1525    1528    1527    1525    1528
    1530    1529    1531    1530    1529    1532    1531    1529    1532
    1534    1533    1535    1534    1533    1536    1535    1533    1536
    1538    1537    1539    1538    1537    1540    1539    1537    1540
    1542    1541    1543    1542    1541    1544    1543    1541    1544
    1546    1545    1547    1546    1545    1548    1547    1545    1548
    1550    1549    1551    1550    1549    1552    1551    1549    1552
    1554    1553    1555    1554    1553    1556    1555    1553    1556
    1558    1557    1559    1558    1557    1560    1559    1557    1560
    1562    1561    1563    1562    1561    1564    1563    1561    1564
    1566    1565    1567    1566    1565    1568    1567    1565    1568
    1570    1569    1571    1570    1569    1572    1571    1569    1572
    1574    1573    1575    1574    1573    1576    1575    1573    1576
    1578    1577    1579    1578    1577    1580    1579    1577    1580
    1582    1581    1583    1582    1581    1584    1583    1581    1584
    1586    1585    1587    1586    1585    1588    1587    1585    1588
    1590    1589    1591    1590    1589    1592    1591    1589    1592
    1594    1593    1595    1594    1593    1596    1595    1593    1596
    1598    1597    1599    1598    1597    1600    1599    1597    1600
    1602    1601    1603    1602    1601    1604    1603    1601    1604
    1606    1605    1607    1606    1605    1608    1607    1605    1608
    1610    1609    1611    1610    1609    1612    1611    1609    1612
    1614    1613    1615    1614    1613    1616    1615    1613    1616
    1618    1617    1619    1618    1617    1620    1619    1617    1620
    1622    1621    1623    1622    1621    1624    1623    1621    1624
    1626    1625    1627    1626    1625    1628    1627    1625    1628
    1630    1629    1631    1630    1629    1632    1631    1629    1632
    1634    1633    1635    1634    1633    1636    1635    1633    1636
    1638    1637    1639    1638    1637    1640    1639    1637    1640
    1642    1641    1643    1642    1641    1644    1643    1641    1644
    1646    1645    1647    1646    1645    1648    1647    1645    1648
    1650    1649    1651    1650    1649    1652    1651    1649    1652
    1654    1653    1655    1654    1653    1656    1655    1653    1656
    1658    1657    1659    1658    1657    1660    1659    1657    1660
    1662    1661    1663    1662    1661    1664    1663    1661    1664
    1666    1665    1667    1666    1665    1668    1667    1665    1668
    1670    1669    1671    1670    1669    1672    1671    1669    1672
    1674    1673    1675    1674    1673    1676    1675    1673    1676
    1678    1677    1679    1678    1677    1680    1679    1677    1680
    1682    1681    1683    1682    1681    1684    1683    1681    1684
    1686    1685    1687    1686    1685    1688    1687    1685    1688
    1690    1689    1691    1690    1689    1692    1691    1689    1692
    1694    1693    1695    1694    1693    1696    1695    1693    1696
    1698    1697    1699    1698    1697    1700    1699    1697    1700
    1702    1701    1703    1702    1701    1704    1703    1701    1704
    1706    1705    1707    1706    1705    1708    1707    1705    1708
    1710    1709    1711    1710    1709    1712    1711    1709    1712
    1714    1713    1715    1714    1713    1716    1715    1713    1716
    1718    1717    1719    1718    1717    1720    1719    1717    1720
    1722    1721    1723    1722    1721    1724    1723    1721    1724
    1726    1725    1727    1726    1725    1728    1727    1725    1728
    1730    1729    1731    1730    1729    1732    1731    1729    1732
    1734    1733    1735    1734    1733    1736    1735    1733    1736
    1738    1737    1739    1738    1737    1740    1739    1737    1740
    1742    1741    1743    1742    1741    1744    1743    1741    1744
    1746    1745    1747    1746    1745    1748    1747    1745    1748
    1750    1749    1751    1750    1749    1752    1751    1749    1752
    1754    1753    1755    1754    1753    1756    1755    1753    1756
    1758    1757    1759    1758    1757    1760    1759    1757    1760
    1762    1761    1763    1762    1761    1764    1763    1761    1764
    1766    1765    1767    1766    1765    1768    1767    1765    1768
    1770    1769    1771    1770    1769    1772    1771    1769    1772
    1774    1773    1775    1774    1773    1776    1775    1773    1776
    1778    1777    1779    1778    1777    1780    1779    1777    1780
    1782    1781    1783    1782    1781    1784    1783    1781    1784
    1786    1785    1787    1786    1785    1788    1787    1785    1788
    1790    1789    1791    1790    1789    1792    1791    1789    1792
    1794    1793    1795    1794    1793    1796    1795    1793    1796
    1798    1797    1799    1798    1797    1800    1799    1797    1800
    1802    1801    1803    1802    1801    1804    1803    1801    1804
    1806    1805    1807    1806    1805    1808    1807    1805    1808
    1810    1809    1811    1810    1809    1812    1811    1809    1812
    1814    1813    1815    1814    1813    1816    1815    1813    1816
    1818    1817    1819    1818    1817    1820    1819    1817    1820
    1822    1821    1823    1822    1821    1824    1823    1821    1824
    1826    1825    1827    1826    1825    1828    1827    1825    1828
    1830    1829    1831    1830    1829    1832    1831    1829    1832
    1834    1833    1835    1834    1833    1836    1835    1833    1836
    1838    1837    1839    1838    1837    1840    1839    1837    1840
    1842    1841    1843    1842    1841    1844    1843    1841    1844
    1846    1845    1847    1846    1845    1848    1847    1845    1848
    1850    1849    1851    1850    1849    1852    1851    1849    1852
    1854    1853    1855    1854    1853    1856    1855    1853    1856
    1858    1857    1859    1858    1857    1860    1859    1857    1860
    1862    1861    1863    1862    1861    1864    1863    1861    1864
    1866    1865    1867    1866    1865    1868    1867    1865    1868
    1870    1869    1871    1870    1869    1872    1871    1869    1872
    1874    1873    1875    1874    1873    1876    1875    1873    1876
    1878    1877    1879    1878    1877    1880    1879    1877    1880
    1882    1881    1883    1882    1881    1884    1883    1881    1884
    1886    1885    1887    1886    1885    1888    1887    1885    1888
    1890    1889    1891    1890    1889    1892    1891    1889    1892
    1894    1893    1895    1894    1893    1896    1895    1893    1896
    1898    1897    1899    1898    1897    1900    1899    1897    1900
    1902    1901    1903    1902    1901    1904    1903    1901    1904
    1906    1905    1907    1906    1905    1908    1907    1905    1908
    1910    1909    1911    1910    1909    1912    1911    1909    1912
    1914    1913    1915    1914    1913    1916    1915    1913    1916
    1918    1917    1919    1918    1917    1920    1919    1917    1920
    1922    1921    1923    1922    1921    1924    1923    1921    1924
    1926    1925    1927    1926    1925    1928    1927    1925    1928
    1930    1929    1931    1930    1929    1932    1931    1929    1932
    1934    1933    1935    1934    1933    1936    1935    1933    1936
    1938    1937    1939    1938    1937    1940    1939    1937    1940
    1942    1941    1943    1942    1941    1944    1943    1941    1944
    1946    1945    1947    1946    1945    1948    1947    1945    1948
    1950    1949    1951    1950    1949    1952    1951    1949    1952
    1954    1953    1955    1954    1953    1956    1955    1953    1956
    1958    1957    1959    1958    1957    1960    1959    1957    1960
    1962    1961    1963    1962    1961    1964    1963    1961    1964
    1966    1965    1967    1966    1965    1968    1967    1965    1968
    1970    1969    1971    1970    1969    1972    1971    1969    1972
    1974    1973    1975    1974    1973    1976    1975    1973    1976
    1978    1977    1979    1978    1977    1980    1979    1977    1980
    1982    1981    1983    1982    1981    1984    1983    1981    1984
    1986    1985    1987    1986    1985    1988    1987    1985    1988
    1990    1989    1991    1990    1989    1992    1991    1989    1992
    1994    1993    1995    1994    1993    1996    1995    1993    1996
    1998    1997    1999    1998    1997    2000    1999    1997    2000
    2002    2001    2003    2002    2001    2004    2003    2001    2004
    2006    2005    2007    2006    2005    2008    2007    2005    2008
    2010    2009    2011    2010    2009    2012    2011    2009    2012
    2014    2013    2015    2014    2013    2016    2015    2013    2016
    2018    2017    2019    2018    2017    2020    2019    2017    2020
    2022    2021    2023    2022    2021    2024    2023    2021    2024
    2026    2025    2027    2026    2025    2028    2027    2025    2028
    2030    2029    2031    2030    2029    2032    2031    2029    2032
    2034    2033    2035    2034    2033    2036    2035    2033    2036
    2038    2037    2039    2038    2037    2040    2039    2037    2040
    2042    2041    2043    2042    2041    2044    2043    2041    2044
    2046    2045    2047    2046    2045    2048    2047    2045    2048
    2050    2049    2051    2050    2049    2052    2051    2049    2052
    2054    2053    2055    2054    2053    2056    2055    2053    2056
    2058    2057    2059    2058    2057    2060    2059    2057    2060
    2062    2061    2063    2062    2061    2064    2063    2061    2064
    2066    2065    2067    2066    2065    2068    2067    2065    2068
    2070    2069    2071    2070    2069    2072    2071    2069    2072
    2074    2073    2075    2074    2073    2076    2075    2073    2076
    2078    2077    2079    2078    2077    2080    2079    2077    2080
    2082    2081    2083    2082    2081    2084    2083    2081    2084
    2086    2085    2087    2086    2085    2088    2087    2085    2088
    2090    2089    2091    2090    2089    2092    2091    2089    2092
    2094    2093    2095    2094    2093    2096    2095    2093    2096
    2098    2097    2099    2098    2097    2100    2099    2097    2100
    2102    2101    2103    2102    2101    2104    2103    2101    2104
    2106    2105    2107    2106    2105    2108    2107    2105    2108
    2110    2109    2111    2110    2109    2112    2111    2109    2112
    2114    2113    2115    2114    2113    2116    2115    2113    2116
    2118    2117    2119    2118    2117    2120    2119    2117    2120
    2122    2121    2123    2122    2121    2124    2123    2121    2124
    2126    2125    2127    2126    2125    2128    2127    2125    2128
    2130    2129    2131    2130    2129    2132    2131    2129    2132
    2134    2133    2135    2134    2133    2136    2135    2133    2136
    2138    2137    2139    2138    2137    2140    2139    2137    2140
    2142    2141    2143    2142    2141    2144    2143    2141    2144
    2146    2145    2147    2146    2145    2148    2147    2145    2148
    2150    2149    2151    2150    2149    2152    2151    2149    2152
    2154    2153    2155    2154    2153    2156    2155    2153    2156
    2158    2157    2159    2158    2157    2160    2159    2157    2160
    2162    2161    2163    2162    2161    2164    2163    2161    2164
    2166    2165    2167    2166    2165    2168    2167    2165    2168
    2170    2169    2171    2170    2169    2172    2171    2169    2172
    2174    2173    2175    2174    2173    2176    2175    2173    2176
    2178    2177    2179    2178    2177    2180    2179    2177    2180
    2182    2181    2183    2182    2181    2184    2183    2181    2184
    2186    2185    2187    2186    2185    2188    2187    2185    2188
    2190    2189    2191    2190    2189    2192    2191    2189    2192
    2194    2193    2195    2194    2193    2196    2195    2193    2196
    2198    2197    2199    2198    2197    2200    2199    2197    2200
    2202    2201    2203    2202    2201    2204    2203    2201    2204
    2206    2205    2207    2206    2205    2208    2207    2205    2208
    2210    2209    2211    2210    2209    2212    2211    2209    2212
    2214    2213    2215    2214    2213    2216    2215    2213    2216
    2218    2217    2219    2218    2217    2220    2219    2217    2220
    2222    2221    2223    2222    2221    2224    2223    2221    2224
    2226    2225    2227    2226    2225    2228    2227    2225    2228
    2230    2229    2231    2230    2229    2232    2231    2229    2232
    2234    2233    2235    2234    2233    2236    2235    2233    2236
    2238    2237    2239    2238    2237    2240    2239    2237    2240
    2242    2241    2243    2242    2241    2244    2243    2241    2244
    2246    2245    2247    2246    2245    2248    2247    2245    2248
    2250    2249    2251    2250    2249    2252    2251    2249    2252
    2254    2253    2255    2254    2253    2256    2255    2253    2256
    2258    2257    2259    2258    2257    2260    2259    2257    2260
    2262    2261    2263    2262    2261    2264    2263    2261    2264
    2266    2265    2267    2266    2265    2268    2267    2265    2268
    2270    2269    2271    2270    2269    2272    2271    2269    2272
    2274    2273    2275    2274    2273    2276    2275    2273    2276
    2278    2277    2279    2278    2277    2280    2279    2277    2280
    2282    2281    2283    2282    2281    2284    2283    2281    2284
    2286    2285    2287    2286    2285    2288    2287    2285    2288
    2290    2289    2291    2290    2289    2292    2291    2289    2292
    2294    2293    2295    2294    2293    2296    2295    2293    2296
    2298    2297    2299    2298    2297    2300    2299    2297    2300
    2302    2301    2303    2302    2301    2304    2303    2301    2304
    2306    2305    2307    2306    2305    2308    2307    2305    2308
    2310    2309    2311    2310    2309    2312    2311    2309    2312
    2314    2313    2315    2314    2313    2316    2315    2313    2316
    2318    2317    2319    2318    2317    2320    2319    2317    2320
    2322    2321    2323    2322    2321    2324    2323    2321    2324
    2326    2325    2327    2326    2325    2328    2327    2325    2328
    2330    2329    2331    2330    2329    2332    2331    2329    2332
    2334    2333    2335    2334    2333    2336    2335    2333    2336
    2338    2337    2339    2338    2337    2340    2339    2337    2340
    2342    2341    2343    2342    2341    2344    2343    2341    2344
    2346    2345    2347    2346    2345    2348    2347    2345    2348
    2350    2349    2351    2350    2349    2352    2351    2349    2352
    2354    2353    2355    2354    2353    2356    2355    2353    2356
    2358    2357    2359    2358    2357    2360    2359    2357    2360
    2362    2361    2363    2362    2361    2364    2363    2361    2364
    2366    2365    2367    2366    2365    2368    2367    2365    2368
    2370    2369    2371    2370    2369    2372    2371    2369    2372
    2374    2373    2375    2374    2373    2376    2375    2373    2376
    2378    2377    2379    2378    2377    2380    2379    2377    2380
    2382    2381    2383    2382    2381    2384    2383    2381    2384
    2386    2385    2387    2386    2385    2388    2387    2385    2388
    2390    2389    2391    2390    2389    2392    2391    2389    2392
    2394    2393    2395    2394    2393    2396    2395    2393    2396
    2398    2397    2399    2398    2397    2400    2399    2397    2400
    2402    2401    2403    2402    2401    2404    2403    2401    2404
    2406    2405    2407    2406    2405    2408    2407    2405    2408
    2410    2409    2411    2410    2409    2412    2411    2409    2412
    2414    2413    2415    2414    2413    2416    2415    2413    2416
    2418    2417    2419    2418    2417    2420    2419    2417    2420
    2422    2421    2423    2422    2421    2424    2423    2421    2424
    2426    2425    2427    2426    2425    2428    2427    2425    2428
    2430    2429    2431    2430    2429    2432    2431    2429    2432
    2434    2433    2435    2434    2433    2436    2435    2433    2436
    2438    2437    2439    2438    2437    2440    2439    2437    2440
    2442    2441    2443    2442    2441    2444    2443    2441    2444
    2446    2445    2447    2446    2445    2448    2447    2445    2448
    2450    2449    2451    2450    2449    2452    2451    2449    2452
    2454    2453    2455    2454    2453    2456    2455    2453    2456
    2458    2457    2459    2458    2457    2460    2459    2457    2460
    2462    2461    2463    2462    2461    2464    2463    2461    2464
    2466    2465    2467    2466    2465    2468    2467    2465    2468
    2470    2469    2471    2470    2469    2472    2471    2469    2472
    2474    2473    2475    2474    2473    2476    2475    2473    2476
    2478    2477    2479    2478    2477    2480    2479    2477    2480
    2482    2481    2483    2482    2481    2484    2483    2481    2484
    2486    2485    2487    2486    2485    2488    2487    2485    2488
    2490    2489    2491    2490    2489    2492    2491    2489    2492
    2494    2493    2495    2494    2493    2496    2495    2493    2496
    2498    2497    2499    2498    2497    2500    2499    2497    2500
    2502    2501    2503    2502    2501    2504    2503    2501    2504
    2506    2505    2507    2506    2505    2508    2507    2505    2508
    2510    2509    2511    2510    2509    2512    2511    2509    2512
    2514    2513    2515    2514    2513    2516    2515    2513    2516
    2518    2517    2519    2518    2517    2520    2519    2517    2520
    2522    2521    2523    2522    2521    2524    2523    2521    2524
    2526    2525    2527    2526    2525    2528    2527    2525    2528
    2530    2529    2531    2530    2529    2532    2531    2529    2532
    2534    2533    2535    2534    2533    2536    2535    2533    2536
    2538    2537    2539    2538    2537    2540    2539    2537    2540
    2542    2541    2543    2542    2541    2544    2543    2541    2544
    2546    2545    2547    2546    2545    2548    2547    2545    2548
    2550    2549    2551    2550    2549    2552    2551    2549    2552
    2554    2553    2555    2554    2553    2556    2555    2553    2556
    2558    2557    2559    2558    2557    2560    2559    2557    2560
    2562    2561    2563    2562    2561    2564    2563    2561    2564
    2566    2565    2567    2566    2565    2568    2567    2565    2568
    2570    2569    2571    2570    2569    2572    2571    2569    2572
    2574    2573    2575    2574    2573    2576    2575    2573    2576
    2578    2577    2579    2578    2577    2580    2579    2577    2580
    2582    2581    2583    2582    2581    2584    2583    2581    2584
    2586    2585    2587    2586    2585    2588    2587    2585    2588
    2590    2589    2591    2590    2589    2592    2591    2589    2592
    2594    2593    2595    2594    2593    2596    2595    2593    2596
    2598    2597    2599    2598    2597    2600    2599    2597    2600
    2602    2601    2603    2602    2601    2604    2603    2601    2604
    2606    2605    2607    2606    2605    2608    2607    2605    2608
    2610    2609    2611    2610    2609    2612    2611    2609    2612
    2614    2613    2615    2614    2613    2616    2615    2613    2616
    2618    2617    2619    2618    2617    2620    2619    2617    2620
    2622    2621    2623    2622    2621    2624    2623    2621    2624
    2626    2625    2627    2626    2625    2628    2627    2625    2628
    2630    2629    2631    2630    2629    2632    2631    2629    2632
    2634    2633    2635    2634    2633    2636    2635    2633    2636
    2638    2637    2639    2638    2637    2640    2639    2637    2640
    2642    2641    2643    2642    2641    2644    2643    2641    2644
    2646    2645    2647    2646    2645    2648    2647    2645    2648
    2650    2649    2651    2650    2649    2652    2651    2649    2652
    2654    2653    2655    2654    2653    2656    2655    2653    2656
    2658    2657    2659    2658    2657    2660    2659    2657    2660
    2662    2661    2663    2662    2661    2664    2663    2661    2664
    2666    2665    2667    2666    2665    2668    2667    2665    2668
    2670    2669    2671    2670    2669    2672    2671    2669    2672
    2674    2673    2675    2674    2673    2676    2675    2673    2676
    2678    2677    2679    2678    2677    2680    2679    2677    2680
    2682    2681    2683    2682    2681    2684    2683    2681    2684
    2686    2685    2687    2686    2685    2688    2687    2685    2688
    2690    2689    2691    2690    2689    2692    2691    2689    2692
    2694    2693    2695    2694    2693    2696    2695    2693    2696
    2698    2697    2699    2698    2697    2700    2699    2697    2700
    2702    2701    2703    2702    2701    2704    2703    2701    2704
    2706    2705    2707    2706    2705    2708    2707    2705    2708
    2710    2709    2711    2710    2709    2712    2711    2709    2712
    2714    2713    2715    2714    2713    2716    2715    2713    2716
    2718    2717    2719    2718    2717    2720    2719    2717    2720
    2722    2721    2723    2722    2721    2724    2723    2721    2724
    2726    2725    2727    2726    2725    2728    2727    2725    2728
    2730    2729    2731    2730    2729    2732    2731    2729    2732
    2734    2733    2735    2734    2733    2736    2735    2733    2736
    2738    2737    2739    2738    2737    2740    2739    2737    2740
    2742    2741    2743    2742    2741    2744    2743    2741    2744
    2746    2745    2747    2746    2745    2748    2747    2745    2748
    2750    2749    2751    2750    2749    2752    2751    2749    2752
    2754    2753    2755    2754    2753    2756    2755    2753    2756
    2758    2757    2759    2758    2757    2760    2759    2757    2760
    2762    2761    2763    2762    2761    2764    2763    2761    2764
    2766    2765    2767    2766    2765    2768    2767    2765    2768
    2770    2769    2771    2770    2769    2772    2771    2769    2772
    2774    2773    2775    2774    2773    2776    2775    2773    2776
    2778    2777    2779    2778    2777    2780    2779    2777    2780
    2782    2781    2783    2782    2781    2784    2783    2781    2784
    2786    2785    2787    2786    2785    2788    2787    2785    2788
    2790    2789    2791    2790    2789    2792    2791    2789    2792
    2794    2793    2795    2794    2793    2796    2795    2793    2796
    2798    2797    2799    2798    2797    2800    2799    2797    2800
    2802    2801    2803    2802    2801    2804    2803    2801    2804
    2806    2805    2807    2806    2805    2808    2807    2805    2808
    2810    2809    2811    2810    2809    2812    2811    2809    2812
    2814    2813    2815    2814    2813    2816    2815    2813    2816
    2818    2817    2819    2818    2817    2820    2819    2817    2820
    2822    2821    2823    2822    2821    2824    2823    2821    2824
    2826    2825    2827    2826    2825    2828    2827    2825    2828
    2830    2829    2831    2830    2829    2832    2831    2829    2832
    2834    2833    2835    2834    2833    2836    2835    2833    2836
    2838    2837    2839    2838    2837    2840    2839    2837    2840
    2842    2841    2843    2842    2841    2844    2843    2841    2844
    2846    2845    2847    2846    2845    2848    2847    2845    2848
    2850    2849    2851    2850    2849    2852    2851    2849    2852
    2854    2853    2855    2854    2853    2856    2855    2853    2856
    2858    2857    2859    2858    2857    2860    2859    2857    2860
    2862    2861    2863    2862    2861    2864    2863    2861    2864
    2866    2865    2867    2866    2865    2868    2867    2865    2868
    2870    2869    2871    2870    2869    2872    2871    2869    2872
    2874    2873    2875    2874    2873    2876    2875    2873    2876
    2878    2877    2879    2878    2877    2880    2879    2877    2880
    2882    2881    2883    2882    2881    2884    2883    2881    2884
    2886    2885    2887    2886    2885    2888    2887    2885    2888
    2890    2889    2891    2890    2889    2892    2891    2889    2892
    2894    2893    2895    2894    2893    2896    2895    2893    2896
    2898    2897    2899    2898    2897    2900    2899    2897    2900
    2902    2901    2903    2902    2901    2904    2903    2901    2904
    2906    2905    2907    2906    2905    2908    2907    2905    2908
    2910    2909    2911    2910    2909    2912    2911    2909    2912
    2914    2913    2915    2914    2913    2916    2915    2913    2916
    2918    2917    2919    2918    2917    2920    2919    2917    2920
    2922    2921    2923    2922    2921    2924    2923    2921    2924
    2926    2925    2927    2926    2925    2928    2927    2925    2928
    2930    2929    2931    2930    2929    2932    2931    2929    2932
    2934    2933    2935    2934    2933    2936    2935    2933    2936
    2938    2937    2939    2938    2937    2940    2939    2937    2940
    2942    2941    2943    2942    2941    2944    2943    2941    2944
    2946    2945    2947    2946    2945    2948    2947    2945    2948
    2950    2949    2951    2950    2949    2952    2951    2949    2952
    2954    2953    2955    2954    2953    2956    2955    2953    2956
    2958    2957    2959    2958    2957    2960    2959    2957    2960
    2962    2961    2963    2962    2961    2964    2963    2961    2964
    2966    2965    2967    2966    2965    2968    2967    2965    2968
    2970    2969    2971    2970    2969    2972    2971    2969    2972
    2974    2973    2975    2974    2973    2976    2975    2973    2976
    2978    2977    2979    2978    2977    2980    2979    2977    2980
    2982    2981    2983    2982    2981    2984    2983    2981    2984
    2986    2985    2987    2986    2985    2988    2987    2985    2988
    2990    2989    2991    2990    2989    2992    2991    2989    2992
    2994    2993    2995    2994    2993    2996    2995    2993    2996
    2998    2997    2999    2998    2997    3000    2999    2997    3000
    3002    3001    3003    3002    3001    3004    3003    3001    3004
    3006    3005    3007    3006    3005    3008    3007    3005    3008
    3010    3009    3011    3010    3009    3012    3011    3009    3012
    3014    3013    3015    3014    3013    3016    3015    3013    3016
    3018    3017    3019    3018    3017    3020    3019    3017    3020
    3022    3021    3023    3022    3021    3024    3023    3021    3024
    3026    3025    3027    3026    3025    3028    3027    3025    3028
    3030    3029    3031    3030    3029    3032    3031    3029    3032
    3034    3033    3035    3034    3033    3036    3035    3033    3036
    3038    3037    3039    3038    3037    3040    3039    3037    3040
    3042    3041    3043    3042    3041    3044    3043    3041    3044
    3046    3045    3047    3046    3045    3048    3047    3045    3048
    3050    3049    3051    3050    3049    3052    3051    3049    3052
    3054    3053    3055    3054    3053    3056    3055    3053    3056
    3058    3057    3059    3058    3057    3060    3059    3057    3060
    3062    3061    3063    3062    3061    3064    3063    3061    3064
    3066    3065    3067    3066    3065    3068    3067    3065    3068
    3070    3069    3071    3070    3069    3072    3071    3069    3072
    3074    3073    3075    3074    3073    3076    3075    3073    3076
    3078    3077    3079    3078    3077    3080    3079    3077    3080
    3082    3081    3083    3082    3081    3084    3083    3081    3084
    3086    3085    3087    3086    3085    3088    3087    3085    3088
    3090    3089    3091    3090    3089    3092    3091    3089    3092
    3094    3093    3095    3094    3093    3096    3095    3093    3096
    3098    3097    3099    3098    3097    3100    3099    3097    3100
    3102    3101    3103    3102    3101    3104    3103    3101    3104
    3106    3105    3107    3106    3105    3108    3107    3105    3108
    3110    3109    3111    3110    3109    3112    3111    3109    3112
    3114    3113    3115    3114    3113    3116    3115    3113    3116
    3118    3117    3119    3118    3117    3120    3119    3117    3120
    3122    3121    3123    3122    3121    3124    3123    3121    3124
    3126    3125    3127    3126    3125    3128    3127    3125    3128
    3130    3129    3131    3130    3129    3132    3131    3129    3132
    3134    3133    3135    3134    3133    3136    3135    3133    3136
    3138    3137    3139    3138    3137    3140    3139    3137    3140
    3142    3141    3143    3142    3141    3144    3143    3141    3144
    3146    3145    3147    3146    3145    3148    3147    3145    3148
    3150    3149    3151    3150    3149    3152    3151    3149    3152
    3154    3153    3155    3154    3153    3156    3155    3153    3156
    3158    3157    3159    3158    3157    3160    3159    3157    3160
    3162    3161    3163    3162    3161    3164    3163    3161    3164
    3166    3165    3167    3166    3165    3168    3167    3165    3168
    3170    3169    3171    3170    3169    3172    3171    3169    3172
    3174    3173    3175    3174    3173    3176    3175    3173    3176
    3178    3177    3179    3178    3177    3180    3179    3177    3180
    3182    3181    3183    3182    3181    3184    3183    3181    3184
    3186    3185    3187    3186    3185    3188    3187    3185    3188
    3190    3189    3191    3190    3189    3192    3191    3189    3192
    3194    3193    3195    3194    3193    3196    3195    3193    3196
    3198    3197    3199    3198    3197    3200    3199    3197    3200
    3202    3201    3203    3202    3201    3204    3203    3201    3204
    3206    3205    3207    3206    3205    3208    3207    3205    3208
    3210    3209    3211    3210    3209    3212    3211    3209    3212
    3214    3213    3215    3214    3213    3216    3215    3213    3216
    3218    3217    3219    3218    3217    3220    3219    3217    3220
    3222    3221    3223    3222    3221    3224    3223    3221    3224
    3226    3225    3227    3226    3225    3228    3227    3225    3228
    3230    3229    3231    3230    3229    3232    3231    3229    3232
    3234    3233    3235    3234    3233    3236    3235    3233    3236
    3238    3237    3239    3238    3237    3240    3239    3237    3240
    3242    3241    3243    3242    3241    3244    3243    3241    3244
    3246    3245    3247    3246    3245    3248    3247    3245    3248
    3250    3249    3251    3250    3249    3252    3251    3249    3252
    3254    3253    3255    3254    3253    3256    3255    3253    3256
    3258    3257    3259    3258    3257    3260    3259    3257    3260
    3262    3261    3263    3262    3261    3264    3263    3261    3264
    3266    3265    3267    3266    3265    3268    3267    3265    3268
    3270    3269    3271    3270    3269    3272    3271    3269    3272
    3274    3273    3275    3274    3273    3276    3275    3273    3276
    3278    3277    3279    3278    3277    3280    3279    3277    3280
    3282    3281    3283    3282    3281    3284    3283    3281    3284
    3286    3285    3287    3286    3285    3288    3287    3285    3288
    3290    3289    3291    3290    3289    3292    3291    3289    3292
    3294    3293    3295    3294    3293    3296    3295    3293    3296
    3298    3297    3299    3298    3297    3300    3299    3297    3300
    3302    3301    3303    3302    3301    3304    3303    3301    3304
    3306    3305    3307    3306    3305    3308    3307    3305    3308
    3310    3309    3311    3310    3309    3312    3311    3309    3312
    3314    3313    3315    3314    3313    3316    3315    3313    3316
    3318    3317    3319    3318    3317    3320    3319    3317    3320
    3322    3321    3323    3322    3321    3324    3323    3321    3324
    3326    3325    3327    3326    3325    3328    3327    3325    3328
    3330    3329    3331    3330    3329    3332    3331    3329    3332
    3334    3333    3335    3334    3333    3336    3335    3333    3336
    3338    3337    3339    3338    3337    3340    3339    3337    3340
    3342    3341    3343    3342    3341    3344    3343    3341    3344
    3346    3345    3347    3346    3345    3348    3347    3345    3348
    3350    3349    3351    3350    3349    3352    3351    3349    3352
    3354    3353    3355    3354    3353    3356    3355    3353    3356
    3358    3357    3359    3358    3357    3360    3359    3357    3360
    3362    3361    3363    3362    3361    3364    3363    3361    3364
    3366    3365    3367    3366    3365    3368    3367    3365    3368
    3370    3369    3371    3370    3369    3372    3371    3369    3372
    3374    3373    3375    3374    3373    3376    3375    3373    3376
    3378    3377    3379    3378    3377    3380    3379    3377    3380
    3382    3381    3383    3382    3381    3384    3383    3381    3384
    3386    3385    3387    3386    3385    3388    3387    3385    3388
    3390    3389    3391    3390    3389    3392    3391    3389    3392
    3394    3393    3395    3394    3393    3396    3395    3393    3396
    3398    3397    3399    3398    3397    3400    3399    3397    3400
    3402    3401    3403    3402    3401    3404    3403    3401    3404
    3406    3405    3407    3406    3405    3408    3407    3405    3408
    3410    3409    3411    3410    3409    3412    3411    3409    3412
    3414    3413    3415    3414    3413    3416    3415    3413    3416
    3418    3417    3419    3418    3417    3420    3419    3417    3420
    3422    3421    3423    3422    3421    3424    3423    3421    3424
    3426    3425    3427    3426    3425    3428    3427    3425    3428
    3430    3429    3431    3430    3429    3432    3431    3429    3432
    3434    3433    3435    3434    3433    3436    3435    3433    3436
    3438    3437    3439    3438    3437    3440    3439    3437    3440
    3442    3441    3443    3442    3441    3444    3443    3441    3444
    3446    3445    3447    3446    3445    3448    3447    3445    3448
    3450    3449    3451    3450    3449    3452    3451    3449    3452
    3454    3453    3455    3454    3453    3456    3455    3453    3456
    3458    3457    3459    3458    3457    3460    3459    3457    3460
    3462    3461    3463    3462    3461    3464    3463    3461    3464
    3466    3465    3467    3466    3465    3468    3467    3465    3468
    3470    3469    3471    3470    3469    3472    3471    3469    3472
    3474    3473    3475    3474    3473    3476    3475    3473    3476
    3478    3477    3479    3478    3477    3480    3479    3477    3480
    3482    3481    3483    3482    3481    3484    3483    3481    3484
    3486    3485    3487    3486    3485    3488    3487    3485    3488
    3490    3489    3491    3490    3489    3492    3491    3489    3492
    3494    3493    3495    3494    3493    3496    3495    3493    3496
    3498    3497    3499    3498    3497    3500    3499    3497    3500
    3502    3501    3503    3502    3501    3504    3503    3501    3504
    3506    3505    3507    3506    3505    3508    3507    3505    3508
    3510    3509    3511    3510    3509    3512    3511    3509    3512
    3514    3513    3515    3514    3513    3516    3515    3513    3516
    3518    3517    3519    3518    3517    3520    3519    3517    3520
    3522    3521    3523    3522    3521    3524    3523    3521    3524
    3526    3525    3527    3526    3525    3528    3527    3525    3528
    3530    3529    3531    3530    3529    3532    3531    3529    3532
    3534    3533    3535    3534    3533    3536    3535    3533    3536
    3538    3537    3539    3538    3537    3540    3539    3537    3540
    3542    3541    3543    3542    3541    3544    3543    3541    3544
    3546    3545    3547    3546    3545    3548    3547    3545    3548
    3550    3549    3551    3550    3549    3552    3551    3549    3552
    3554    3553    3555    3554    3553    3556    3555    3553    3556
    3558    3557    3559    3558    3557    3560    3559    3557    3560
    3562    3561    3563    3562    3561    3564    3563    3561    3564
    3566    3565    3567    3566    3565    3568    3567    3565    3568
    3570    3569    3571    3570    3569    3572    3571    3569    3572
    3574    3573    3575    3574    3573    3576    3575    3573    3576
    3578    3577    3579    3578    3577    3580    3579    3577    3580
    3582    3581    3583    3582    3581    3584    3583    3581    3584
    3586    3585    3587    3586    3585    3588    3587    3585    3588
    3590    3589    3591    3590    3589    3592    3591    3589    3592
    3594    3593    3595    3594    3593    3596    3595    3593    3596
    3598    3597    3599    3598    3597    3600    3599    3597    3600
    3602    3601    3603    3602    3601    3604    3603    3601    3604
    3606    3605    3607    3606    3605    3608    3607    3605    3608
    3610    3609    3611    3610    3609    3612    3611    3609    3612
    3614    3613    3615    3614    3613    3616    3615    3613    3616
    3618    3617    3619    3618    3617    3620    3619    3617    3620
    3622    3621    3623    3622    3621    3624    3623    3621    3624
    3626    3625    3627    3626    3625    3628    3627    3625    3628
    3630    3629    3631    3630    3629    3632    3631    3629    3632
    3634    3633    3635    3634    3633    3636    3635    3633    3636
    3638    3637    3639    3638    3637    3640    3639    3637    3640
    3642    3641    3643    3642    3641    3644    3643    3641    3644
    3646    3645    3647    3646    3645    3648    3647    3645    3648
    3650    3649    3651    3650    3649    3652    3651    3649    3652
    3654    3653    3655    3654    3653    3656    3655    3653    3656
    3658    3657    3659    3658    3657    3660    3659    3657    3660
    3662    3661    3663    3662    3661    3664    3663    3661    3664
    3666    3665    3667    3666    3665    3668    3667    3665    3668
    3670    3669    3671    3670    3669    3672    3671    3669    3672
    3674    3673    3675    3674    3673    3676    3675    3673    3676
    3678    3677    3679    3678    3677    3680    3679    3677    3680
    3682    3681    3683    3682    3681    3684    3683    3681    3684
    3686    3685    3687    3686    3685    3688    3687    3685    3688
    3690    3689    3691    3690    3689    3692    3691    3689    3692
    3694    3693    3695    3694    3693    3696    3695    3693    3696
    3698    3697    3699    3698    3697    3700    3699    3697    3700
    3702    3701    3703    3702    3701    3704    3703    3701    3704
    3706    3705    3707    3706    3705    3708    3707    3705    3708
    3710    3709    3711    3710    3709    3712    3711    3709    3712
    3714    3713    3715    3714    3713    3716    3715    3713    3716
    3718    3717    3719    3718    3717    3720    3719    3717    3720
    3722    3721    3723    3722    3721    3724    3723    3721    3724
    3726    3725    3727    3726    3725    3728    3727    3725    3728
    3730    3729    3731    3730    3729    3732    3731    3729    3732
    3734    3733    3735    3734    3733    3736    3735    3733    3736
    3738    3737    3739    3738    3737    3740    3739    3737    3740
    3742    3741    3743    3742    3741    3744    3743    3741    3744
    3746    3745    3747    3746    3745    3748    3747    3745    3748
    3750    3749    3751    3750    3749    3752    3751    3749    3752
    3754    3753    3755    3754    3753    3756    3755    3753    3756
    3758    3757    3759    3758    3757    3760    3759    3757    3760
    3762    3761    3763    3762    3761    3764    3763    3761    3764
    3766    3765    3767    3766    3765    3768    3767    3765    3768
    3770    3769    3771    3770    3769    3772    3771    3769    3772
    3774    3773    3775    3774    3773    3776    3775    3773    3776
    3778    3777    3779    3778    3777    3780    3779    3777    3780
    3782    3781    3783    3782    3781    3784    3783    3781    3784
    3786    3785    3787    3786    3785    3788    3787    3785    3788
    3790    3789    3791    3790    3789    3792    3791    3789    3792
    3794    3793    3795    3794    3793    3796    3795    3793    3796
    3798    3797    3799    3798    3797    3800    3799    3797    3800
    3802    3801    3803    3802    3801    3804    3803    3801    3804
    3806    3805    3807    3806    3805    3808    3807    3805    3808
    3810    3809    3811    3810    3809    3812    3811    3809    3812
    3814    3813    3815    3814    3813    3816    3815    3813    3816
    3818    3817    3819    3818    3817    3820    3819    3817    3820
    3822    3821    3823    3822    3821    3824    3823    3821    3824
    3826    3825    3827    3826    3825    3828    3827    3825    3828
    3830    3829    3831    3830    3829    3832    3831    3829    3832
    3834    3833    3835    3834    3833    3836    3835    3833    3836
    3838    3837    3839    3838    3837    3840    3839    3837    3840
    3842    3841    3843    3842    3841    3844    3843    3841    3844
    3846    3845    3847    3846    3845    3848    3847    3845    3848
    3850    3849    3851    3850    3849    3852    3851    3849    3852
    3854    3853    3855    3854    3853    3856    3855    3853    3856
    3858    3857    3859    3858    3857    3860    3859    3857    3860
    3862    3861    3863    3862    3861    3864    3863    3861    3864
    3866    3865    3867    3866    3865    3868    3867    3865    3868
    3870    3869    3871    3870    3869    3872    3871    3869    3872
    3874    3873    3875    3874    3873    3876    3875    3873    3876
    3878    3877    3879    3878    3877    3880    3879    3877    3880
    3882    3881    3883    3882    3881    3884    3883    3881    3884
    3886    3885    3887    3886    3885    3888    3887    3885    3888
    3890    3889    3891    3890    3889    3892    3891    3889    3892
    3894    3893    3895    3894    3893    3896    3895    3893    3896
    3898    3897    3899    3898    3897    3900    3899    3897    3900
    3902    3901    3903    3902    3901    3904    3903    3901    3904
    3906    3905    3907    3906    3905    3908    3907    3905    3908
    3910    3909    3911    3910    3909    3912    3911    3909    3912
    3914    3913    3915    3914    3913    3916    3915    3913    3916
    3918    3917    3919    3918    3917    3920    3919    3917    3920
    3922    3921    3923    3922    3921    3924    3923    3921    3924
    3926    3925    3927    3926    3925    3928    3927    3925    3928
    3930    3929    3931    3930    3929    3932    3931    3929    3932
    3934    3933    3935    3934    3933    3936    3935    3933    3936
    3938    3937    3939    3938    3937    3940    3939    3937    3940
    3942    3941    3943    3942    3941    3944    3943    3941    3944
    3946    3945    3947    3946    3945    3948    3947    3945    3948
    3950    3949    3951    3950    3949    3952    3951    3949    3952
    3954    3953    3955    3954    3953    3956    3955    3953    3956
    3958    3957    3959    3958    3957    3960    3959    3957    3960
    3962    3961    3963    3962    3961    3964    3963    3961    3964
    3966    3965    3967    3966    3965    3968    3967    3965    3968
    3970    3969    3971    3970    3969    3972    3971    3969    3972
    3974    3973    3975    3974    3973    3976    3975    3973    3976
    3978    3977    3979    3978    3977    3980    3979    3977    3980
    3982    3981    3983    3982    3981    3984    3983    3981    3984
    3986    3985    3987    3986    3985    3988    3987    3985    3988
    3990    3989    3991    3990    3989    3992    3991    3989    3992
    3994    3993    3995    3994    3993    3996    3995    3993    3996
    3998    3997    3999    3998    3997    4000    3999    3997    4000
    4002    4001    4003    4002    4001    4004    4003    4001    4004
    4006    4005    4007    4006    4005    4008    4007    4005    4008
    4010    4009    4011    4010    4009    4012    4011    4009    4012
    4014    4013    4015    4014    4013    4016    4015    4013    4016
    4018    4017    4019    4018    4017    4020    4019    4017    4020
    4022    4021    4023    4022    4021    4024    4023    4021    4024
    4026    4025    4027    4026    4025    4028    4027    4025    4028
    4030    4029    4031    4030    4029    4032    4031    4029    4032
    4034    4033    4035    4034    4033    4036    4035    4033    4036
    4038    4037    4039    4038    4037    4040    4039    4037    4040
    4042    4041    4043    4042    4041    4044    4043    4041    4044
    4046    4045    4047    4046    4045    4048    4047    4045    4048
    4050    4049    4051    4050    4049    4052    4051    4049    4052
    4054    4053    4055    4054    4053    4056    4055    4053    4056
    4058    4057    4059    4058    4057    4060    4059    4057    4060
    4062    4061    4063    4062    4061    4064    4063    4061    4064
    4066    4065    4067    4066    4065    4068    4067    4065    4068
    4070    4069    4071    4070    4069    4072    4071    4069    4072
    4074    4073    4075    4074    4073    4076    4075    4073    4076
    4078    4077    4079    4078    4077    4080    4079    4077    4080
    4082    4081    4083    4082    4081    4084    4083    4081    4084
    4086    4085    4087    4086    4085    4088    4087    4085    4088
    4090    4089    4091    4090    4089    4092    4091    4089    4092
    4094    4093    4095    4094    4093    4096    4095    4093    4096
    4098    4097    4099    4098    4097    4100    4099    4097    4100
    4102    4101    4103    4102    4101    4104    4103    4101    4104
    4106    4105    4107    4106    4105    4108    4107    4105    4108
    4110    4109    4111    4110    4109    4112    4111    4109    4112
    4114    4113    4115    4114    4113    4116    4115    4113    4116
    4118    4117    4119    4118    4117    4120    4119    4117    4120
    4122    4121    4123    4122    4121    4124    4123    4121    4124
    4126    4125    4127    4126    4125    4128    4127    4125    4128
    4130    4129    4131    4130    4129    4132    4131    4129    4132
    4134    4133    4135    4134    4133    4136    4135    4133    4136
    4138    4137    4139    4138    4137    4140    4139    4137    4140
    4142    4141    4143    4142    4141    4144    4143    4141    4144
    4146    4145    4147    4146    4145    4148    4147    4145    4148
    4150    4149    4151    4150    4149    4152    4151    4149    4152
    4154    4153    4155    4154    4153    4156    4155    4153    4156
    4158    4157    4159    4158    4157    4160    4159    4157    4160
    4162    4161    4163    4162    4161    4164    4163    4161    4164
    4166    4165    4167    4166    4165    4168    4167    4165    4168
    4170    4169    4171    4170    4169    4172    4171    4169    4172
    4174    4173    4175    4174    4173    4176    4175    4173    4176
    4178    4177    4179    4178    4177    4180    4179    4177    4180
    4182    4181    4183    4182    4181    4184    4183    4181    4184
    4186    4185    4187    4186    4185    4188    4187    4185    4188
    4190    4189    4191    4190    4189    4192    4191    4189    4192
    4194    4193    4195    4194    4193    4196    4195    4193    4196
    4198    4197    4199    4198    4197    4200    4199    4197    4200
    4202    4201    4203    4202    4201    4204    4203    4201    4204
    4206    4205    4207    4206    4205    4208    4207    4205    4208
    4210    4209    4211    4210    4209    4212    4211    4209    4212
    4214    4213    4215    4214    4213    4216    4215    4213    4216
    4218    4217    4219    4218    4217    4220    4219    4217    4220
    4222    4221    4223    4222    4221    4224    4223    4221    4224
    4226    4225    4227    4226    4225    4228    4227    4225    4228
    4230    4229    4231    4230    4229    4232    4231    4229    4232
    4234    4233    4235    4234    4233    4236    4235    4233    4236
    4238    4237    4239    4238    4237    4240    4239    4237    4240
    4242    4241    4243    4242    4241    4244    4243    4241    4244
    4246    4245    4247    4246    4245    4248    4247    4245    4248
    4250    4249    4251    4250    4249    4252    4251    4249    4252
    4254    4253    4255    4254    4253    4256    4255    4253    4256
    4258    4257    4259    4258    4257    4260    4259    4257    4260
    4262    4261    4263    4262    4261    4264    4263    4261    4264
    4266    4265    4267    4266    4265    4268    4267    4265    4268
    4270    4269    4271    4270    4269    4272    4271    4269    4272
    4274    4273    4275    4274    4273    4276    4275    4273    4276
    4278    4277    4279    4278    4277    4280    4279    4277    4280
    4282    4281    4283    4282    4281    4284    4283    4281    4284
    4286    4285    4287    4286    4285    4288    4287    4285    4288
    4290    4289    4291    4290    4289    4292    4291    4289    4292
    4294    4293    4295    4294    4293    4296    4295    4293    4296
    4298    4297    4299    4298    4297    4300    4299    4297    4300
    4302    4301    4303    4302    4301    4304    4303    4301    4304
    4306    4305    4307    4306    4305    4308    4307    4305    4308
    4310    4309    4311    4310    4309    4312    4311    4309    4312
    4314    4313    4315    4314    4313    4316    4315    4313    4316
    4318    4317    4319    4318    4317    4320    4319    4317    4320
    4322    4321    4323    4322    4321    4324    4323    4321    4324
    4326    4325    4327    4326    4325    4328    4327    4325    4328
    4330    4329    4331    4330    4329    4332    4331    4329    4332
    4334    4333    4335    4334    4333    4336    4335    4333    4336
    4338    4337    4339    4338    4337    4340    4339    4337    4340
    4342    4341    4343    4342    4341    4344    4343    4341    4344
    4346    4345    4347    4346    4345    4348    4347    4345    4348
    4350    4349    4351    4350    4349    4352    4351    4349    4352
    4354    4353    4355    4354    4353    4356    4355    4353    4356
    4358    4357    4359    4358    4357    4360    4359    4357    4360
    4362    4361    4363    4362    4361    4364    4363    4361    4364
    4366    4365    4367    4366    4365    4368    4367    4365    4368
    4370    4369    4371    4370    4369    4372    4371    4369    4372
    4374    4373    4375    4374    4373    4376    4375    4373    4376
    4378    4377    4379    4378    4377    4380    4379    4377    4380
    4382    4381    4383    4382    4381    4384    4383    4381    4384
    4386    4385    4387    4386    4385    4388    4387    4385    4388
    4390    4389    4391    4390    4389    4392    4391    4389    4392
    4394    4393    4395    4394    4393    4396    4395    4393    4396
    4398    4397    4399    4398    4397    4400    4399    4397    4400
    4402    4401    4403    4402    4401    4404    4403    4401    4404
    4406    4405    4407    4406    4405    4408    4407    4405    4408
    4410    4409    4411    4410    4409    4412    4411    4409    4412
    4414    4413    4415    4414    4413    4416    4415    4413    4416
    4418    4417    4419    4418    4417    4420    4419    4417    4420
    4422    4421    4423    4422    4421    4424    4423    4421    4424
    4426    4425    4427    4426    4425    4428    4427    4425    4428
    4430    4429    4431    4430    4429    4432    4431    4429    4432
    4434    4433    4435    4434    4433    4436    4435    4433    4436
    4438    4437    4439    4438    4437    4440    4439    4437    4440
    4442    4441    4443    4442    4441    4444    4443    4441    4444
    4446    4445    4447    4446    4445    4448    4447    4445    4448
    4450    4449    4451    4450    4449    4452    4451    4449    4452
    4454    4453    4455    4454    4453    4456    4455    4453    4456
    4458    4457    4459    4458    4457    4460    4459    4457    4460
    4462    4461    4463    4462    4461    4464    4463    4461    4464
    4466    4465    4467    4466    4465    4468    4467    4465    4468
    4470    4469    4471    4470    4469    4472    4471    4469    4472
    4474    4473    4475    4474    4473    4476    4475    4473    4476
    4478    4477    4479    4478    4477    4480    4479    4477    4480
    4482    4481    4483    4482    4481    4484    4483    4481    4484
    4486    4485    4487    4486    4485    4488    4487    4485    4488
    4490    4489    4491    4490    4489    4492    4491    4489    4492
    4494    4493    4495    4494    4493    4496    4495    4493    4496
    4498    4497    4499    4498    4497    4500    4499    4497    4500
    4502    4501    4503    4502    4501    4504    4503    4501    4504
    4506    4505    4507    4506    4505    4508    4507    4505    4508
    4510    4509    4511    4510    4509    4512    4511    4509    4512
    4514    4513    4515    4514    4513    4516    4515    4513    4516
    4518    4517    4519    4518    4517    4520    4519    4517    4520
    4522    4521    4523    4522    4521    4524    4523    4521    4524
    4526    4525    4527    4526    4525    4528    4527    4525    4528
    4530    4529    4531    4530    4529    4532    4531    4529    4532
    4534    4533    4535    4534    4533    4536    4535    4533    4536
    4538    4537    4539    4538    4537    4540    4539    4537    4540
    4542    4541    4543    4542    4541    4544    4543    4541    4544
    4546    4545    4547    4546    4545    4548    4547    4545    4548
    4550    4549    4551    4550    4549    4552    4551    4549    4552
    4554    4553    4555    4554    4553    4556    4555    4553    4556
    4558    4557    4559    4558    4557    4560    4559    4557    4560
    4562    4561    4563    4562    4561    4564    4563    4561    4564
    4566    4565    4567    4566    4565    4568    4567    4565    4568
    4570    4569    4571    4570    4569    4572    4571    4569    4572
    4574    4573    4575    4574    4573    4576    4575    4573    4576
    4578    4577    4579    4578    4577    4580    4579    4577    4580
    4582    4581    4583    4582    4581    4584    4583    4581    4584
    4586    4585    4587    4586    4585    4588    4587    4585    4588
    4590    4589    4591    4590    4589    4592    4591    4589    4592
    4594    4593    4595    4594    4593    4596    4595    4593    4596
    4598    4597    4599    4598    4597    4600    4599    4597    4600
    4602    4601    4603    4602    4601    4604    4603    4601    4604
    4606    4605    4607    4606    4605    4608    4607    4605    4608
    4610    4609    4611    4610    4609    4612    4611    4609    4612
    4614    4613    4615    4614    4613    4616    4615    4613    4616
    4618    4617    4619    4618    4617    4620    4619    4617    4620
    4622    4621    4623    4622    4621    4624    4623    4621    4624
    4626    4625    4627    4626    4625    4628    4627    4625    4628
    4630    4629    4631    4630    4629    4632    4631    4629    4632
    4634    4633    4635    4634    4633    4636    4635    4633    4636
    4638    4637    4639    4638    4637    4640    4639    4637    4640
    4642    4641    4643    4642    4641    4644    4643    4641    4644
    4646    4645    4647    4646    4645    4648    4647    4645    4648
    4650    4649    4651    4650    4649    4652    4651    4649    4652
    4654    4653    4655    4654    4653    4656    4655    4653    4656
    4658    4657    4659    4658    4657    4660    4659    4657    4660
    4662    4661    4663    4662    4661    4664    4663    4661    4664
    4666    4665    4667    4666    4665    4668    4667    4665    4668
    4670    4669    4671    4670    4669    4672    4671    4669    4672
    4674    4673    4675    4674    4673    4676    4675    4673    4676
    4678    4677    4679    4678    4677    4680    4679    4677    4680
    4682    4681    4683    4682    4681    4684    4683    4681    4684
    4686    4685    4687    4686    4685    4688    4687    4685    4688
    4690    4689    4691    4690    4689    4692    4691    4689    4692
    4694    4693    4695    4694    4693    4696    4695    4693    4696
    4698    4697    4699    4698    4697    4700    4699    4697    4700
    4702    4701    4703    4702    4701    4704    4703    4701    4704
    4706    4705    4707    4706    4705    4708    4707    4705    4708
    4710    4709    4711    4710    4709    4712    4711    4709    4712
    4714    4713    4715    4714    4713    4716    4715    4713    4716
    4718    4717    4719    4718    4717    4720    4719    4717    4720
    4722    4721    4723    4722    4721    4724    4723    4721    4724
    4726    4725    4727    4726    4725    4728    4727    4725    4728
    4730    4729    4731    4730    4729    4732    4731    4729    4732
    4734    4733    4735    4734    4733    4736    4735    4733    4736
    4738    4737    4739    4738    4737    4740    4739    4737    4740
    4742    4741    4743    4742    4741    4744    4743    4741    4744
    4746    4745    4747    4746    4745    4748    4747    4745    4748
    4750    4749    4751    4750    4749    4752    4751    4749    4752
    4754    4753    4755    4754    4753    4756    4755    4753    4756
    4758    4757    4759    4758    4757    4760    4759    4757    4760
    4762    4761    4763    4762    4761    4764    4763    4761    4764
    4766    4765    4767    4766    4765    4768    4767    4765    4768
    4770    4769    4771    4770    4769    4772    4771    4769    4772
    4774    4773    4775    4774    4773    4776    4775    4773    4776
    4778    4777    4779    4778    4777    4780    4779    4777    4780
    4782    4781    4783    4782    4781    4784    4783    4781    4784
    4786    4785    4787    4786    4785    4788    4787    4785    4788
    4790    4789    4791    4790    4789    4792    4791    4789    4792
    4794    4793    4795    4794    4793    4796    4795    4793    4796
    4798    4797    4799    4798    4797    4800    4799    4797    4800
    4802    4801    4803    4802    4801    4804    4803    4801    4804
    4806    4805    4807    4806    4805    4808    4807    4805    4808
    4810    4809    4811    4810    4809    4812    4811    4809    4812
    4814    4813    4815    4814    4813    4816    4815    4813    4816
    4818    4817    4819    4818    4817    4820    4819    4817    4820
    4822    4821    4823    4822    4821    4824    4823    4821    4824
    4826    4825    4827    4826    4825    4828    4827    4825    4828
    4830    4829    4831    4830    4829    4832    4831    4829    4832
    4834    4833    4835    4834    4833    4836    4835    4833    4836
    4838    4837    4839    4838    4837    4840    4839    4837    4840
    4842    4841    4843    4842    4841    4844    4843    4841    4844
    4846    4845    4847    4846    4845    4848    4847    4845    4848
    4850    4849    4851    4850    4849    4852    4851    4849    4852
    4854    4853    4855    4854    4853    4856    4855    4853    4856
    4858    4857    4859    4858    4857    4860    4859    4857    4860
    4862    4861    4863    4862    4861    4864    4863    4861    4864
    4866    4865    4867    4866    4865    4868    4867    4865    4868
    4870    4869    4871    4870    4869    4872    4871    4869    4872
    4874    4873    4875    4874    4873    4876    4875    4873    4876
    4878    4877    4879    4878    4877    4880    4879    4877    4880
    4882    4881    4883    4882    4881    4884    4883    4881    4884
    4886    4885    4887    4886    4885    4888    4887    4885    4888
    4890    4889    4891    4890    4889    4892    4891    4889    4892
    4894    4893    4895    4894    4893    4896    4895    4893    4896
    4898    4897    4899    4898    4897    4900    4899    4897    4900
    4902    4901    4903    4902    4901    4904    4903    4901    4904
    4906    4905    4907    4906    4905    4908    4907    4905    4908
    4910    4909    4911    4910    4909    4912    4911    4909    4912
    4914    4913    4915    4914    4913    4916    4915    4913    4916
    4918    4917    4919    4918    4917    4920    4919    4917    4920
    4922    4921    4923    4922    4921    4924    4923    4921    4924
    4926    4925    4927    4926    4925    4928    4927    4925    4928
    4930    4929    4931    4930    4929    4932    4931    4929    4932
    4934    4933    4935    4934    4933    4936    4935    4933    4936
    4938    4937    4939    4938    4937    4940    4939    4937    4940
    4942    4941    4943    4942    4941    4944    4943    4941    4944
    4946    4945    4947    4946    4945    4948    4947    4945    4948
    4950    4949    4951    4950    4949    4952    4951    4949    4952
    4954    4953    4955    4954    4953    4956    4955    4953    4956
    4958    4957    4959    4958    4957    4960    4959    4957    4960
    4962    4961    4963    4962    4961    4964    4963    4961    4964
    4966    4965    4967    4966    4965    4968    4967    4965    4968
    4970    4969    4971    4970    4969    4972    4971    4969    4972
    4974    4973    4975    4974    4973    4976    4975    4973    4976
    4978    4977    4979    4978    4977    4980    4979    4977    4980
    4982    4981    4983    4982    4981    4984    4983    4981    4984
    4986    4985    4987    4986    4985    4988    4987    4985    4988
    4990    4989    4991    4990    4989    4992    4991    4989    4992
    4994    4993    4995    4994    4993    4996    4995    4993    4996
    4998    4997    4999    4998    4997    5000    4999    4997    5000
    5002    5001    5003    5002    5001    5004    5003    5001    5004
    5006    5005    5007    5006    5005    5008    5007    5005    5008
    5010    5009    5011    5010    5009    5012    5011    5009    5012
    5014    5013    5015    5014    5013    5016    5015    5013    5016
    5018    5017    5019    5018    5017    5020    5019    5017    5020
    5022    5021    5023    5022    5021    5024    5023    5021    5024
    5026    5025    5027    5026    5025    5028    5027    5025    5028
    5030    5029    5031    5030    5029    5032    5031    5029    5032
    5034    5033    5035    5034    5033    5036    5035    5033    5036
    5038    5037    5039    5038    5037    5040    5039    5037    5040
    5042    5041    5043    5042    5041    5044    5043    5041    5044
    5046    5045    5047    5046    5045    5048    5047    5045    5048
    5050    5049    5051    5050    5049    5052    5051    5049    5052
    5054    5053    5055    5054    5053    5056    5055    5053    5056
    5058    5057    5059    5058    5057    5060    5059    5057    5060
    5062    5061    5063    5062    5061    5064    5063    5061    5064
    5066    5065    5067    5066    5065    5068    5067    5065    5068
    5070    5069    5071    5070    5069    5072    5071    5069    5072
    5074    5073    5075    5074    5073    5076    5075    5073    5076
    5078    5077    5079    5078    5077    5080    5079    5077    5080
    5082    5081    5083    5082    5081    5084    5083    5081    5084
    5086    5085    5087    5086    5085    5088    5087    5085    5088
    5090    5089    5091    5090    5089    5092    5091    5089    5092
    5094    5093    5095    5094    5093    5096    5095    5093    5096
    5098    5097    5099    5098    5097    5100    5099    5097    5100
    5102    5101    5103    5102    5101    5104    5103    5101    5104
    5106    5105    5107    5106    5105    5108    5107    5105    5108
    5110    5109    5111    5110    5109    5112    5111    5109    5112
    5114    5113    5115    5114    5113    5116    5115    5113    5116
    5118    5117    5119    5118    5117    5120    5119    5117    5120
    5122    5121    5123    5122    5121    5124    5123    5121    5124
    5126    5125    5127    5126    5125    5128    5127    5125    5128
    5130    5129    5131    5130    5129    5132    5131    5129    5132
    5134    5133    5135    5134    5133    5136    5135    5133    5136
    5138    5137    5139    5138    5137    5140    5139    5137    5140
    5142    5141    5143    5142    5141    5144    5143    5141    5144
    5146    5145    5147    5146    5145    5148    5147    5145    5148
    5150    5149    5151    5150    5149    5152    5151    5149    5152
    5154    5153    5155    5154    5153    5156    5155    5153    5156
    5158    5157    5159    5158    5157    5160    5159    5157    5160
    5162    5161    5163    5162    5161    5164    5163    5161    5164
    5166    5165    5167    5166    5165    5168    5167    5165    5168
    5170    5169    5171    5170    5169    5172    5171    5169    5172
    5174    5173    5175    5174    5173    5176    5175    5173    5176
    5178    5177    5179    5178    5177    5180    5179    5177    5180
    5182    5181    5183    5182    5181    5184    5183    5181    5184
    5186    5185    5187    5186    5185    5188    5187    5185    5188
    5190    5189    5191    5190    5189    5192    5191    5189    5192
    5194    5193    5195    5194    5193    5196    5195    5193    5196
    5198    5197    5199    5198    5197    5200    5199    5197    5200
    5202    5201    5203    5202    5201    5204    5203    5201    5204
    5206    5205    5207    5206    5205    5208    5207    5205    5208
    5210    5209    5211    5210    5209    5212    5211    5209    5212
    5214    5213    5215    5214    5213    5216    5215    5213    5216
    5218    5217    5219    5218    5217    5220    5219    5217    5220
    5222    5221    5223    5222    5221    5224    5223    5221    5224
    5226    5225    5227    5226    5225    5228    5227    5225    5228
    5230    5229    5231    5230    5229    5232    5231    5229    5232
    5234    5233    5235    5234    5233    5236    5235    5233    5236
    5238    5237    5239    5238    5237    5240    5239    5237    5240
    5242    5241    5243    5242    5241    5244    5243    5241    5244
    5246    5245    5247    5246    5245    5248    5247    5245    5248
    5250    5249    5251    5250    5249    5252    5251    5249    5252
    5254    5253    5255    5254    5253    5256    5255    5253    5256
    5258    5257    5259    5258    5257    5260    5259    5257    5260
    5262    5261    5263    5262    5261    5264    5263    5261    5264
    5266    5265    5267    5266    5265    5268    5267    5265    5268
    5270    5269    5271    5270    5269    5272    5271    5269    5272
    5274    5273    5275    5274    5273    5276    5275    5273    5276
    5278    5277    5279    5278    5277    5280    5279    5277    5280
    5282    5281    5283    5282    5281    5284    5283    5281    5284
    5286    5285    5287    5286    5285    5288    5287    5285    5288
    5290    5289    5291    5290    5289    5292    5291    5289    5292
    5294    5293    5295    5294    5293    5296    5295    5293    5296
    5298    5297    5299    5298    5297    5300    5299    5297    5300
    5302    5301    5303    5302    5301    5304    5303    5301    5304
    5306    5305    5307    5306    5305    5308    5307    5305    5308
    5310    5309    5311    5310    5309    5312    5311    5309    5312
    5314    5313    5315    5314    5313    5316    5315    5313    5316
    5318    5317    5319    5318    5317    5320    5319    5317    5320
    5322    5321    5323    5322    5321    5324    5323    5321    5324
    5326    5325    5327    5326    5325    5328    5327    5325    5328
    5330    5329    5331    5330    5329    5332    5331    5329    5332
    5334    5333    5335    5334    5333    5336    5335    5333    5336
    5338    5337    5339    5338    5337    5340    5339    5337    5340
    5342    5341    5343    5342    5341    5344    5343    5341    5344
    5346    5345    5347    5346    5345    5348    5347    5345    5348
    5350    5349    5351    5350    5349    5352    5351    5349    5352
    5354    5353    5355    5354    5353    5356    5355    5353    5356
    5358    5357    5359    5358    5357    5360    5359    5357    5360
    5362    5361    5363    5362    5361    5364    5363    5361    5364
    5366    5365    5367    5366    5365    5368    5367    5365    5368
    5370    5369    5371    5370    5369    5372    5371    5369    5372
    5374    5373    5375    5374    5373    5376    5375    5373    5376
    5378    5377    5379    5378    5377    5380    5379    5377    5380
    5382    5381    5383    5382    5381    5384    5383    5381    5384
    5386    5385    5387    5386    5385    5388    5387    5385    5388
    5390    5389    5391    5390    5389    5392    5391    5389    5392
    5394    5393    5395    5394    5393    5396    5395    5393    5396
    5398    5397    5399    5398    5397    5400    5399    5397    5400
    5402    5401    5403    5402    5401    5404    5403    5401    5404
    5406    5405    5407    5406    5405    5408    5407    5405    5408
    5410    5409    5411    5410    5409    5412    5411    5409    5412
    5414    5413    5415    5414    5413    5416    5415    5413    5416
    5418    5417    5419    5418    5417    5420    5419    5417    5420
    5422    5421    5423    5422    5421    5424    5423    5421    5424
    5426    5425    5427    5426    5425    5428    5427    5425    5428
    5430    5429    5431    5430    5429    5432    5431    5429    5432
    5434    5433    5435    5434    5433    5436    5435    5433    5436
    5438    5437    5439    5438    5437    5440    5439    5437    5440
    5442    5441    5443    5442    5441    5444    5443    5441    5444
    5446    5445    5447    5446    5445    5448    5447    5445    5448
    5450    5449    5451    5450    5449    5452    5451    5449    5452
    5454    5453    5455    5454    5453    5456    5455    5453    5456
    5458    5457    5459    5458    5457    5460    5459    5457    5460
    5462    5461    5463    5462    5461    5464    5463    5461    5464
    5466    5465    5467    5466    5465    5468    5467    5465    5468
    5470    5469    5471    5470    5469    5472    5471    5469    5472
    5474    5473    5475    5474    5473    5476    5475    5473    5476
    5478    5477    5479    5478    5477    5480    5479    5477    5480
    5482    5481    5483    5482    5481    5484    5483    5481    5484
    5486    5485    5487    5486    5485    5488    5487    5485    5488
    5490    5489    5491    5490    5489    5492    5491    5489    5492
    5494    5493    5495    5494    5493    5496    5495    5493    5496
    5498    5497    5499    5498    5497    5500    5499    5497    5500
    5502    5501    5503    5502    5501    5504    5503    5501    5504
    5506    5505    5507    5506    5505    5508    5507    5505    5508
    5510    5509    5511    5510    5509    5512    5511    5509    5512
    5514    5513    5515    5514    5513    5516    5515    5513    5516
    5518    5517    5519    5518    5517    5520    5519    5517    5520
    5522    5521    5523    5522    5521    5524    5523    5521    5524
    5526    5525    5527    5526    5525    5528    5527    5525    5528
    5530    5529    5531    5530    5529    5532    5531    5529    5532
    5534    5533    5535    5534    5533    5536    5535    5533    5536
    5538    5537    5539    5538    5537    5540    5539    5537    5540
    5542    5541    5543    5542    5541    5544    5543    5541    5544
    5546    5545    5547    5546    5545    5548    5547    5545    5548
    5550    5549    5551    5550    5549    5552    5551    5549    5552
    5554    5553    5555    5554    5553    5556    5555    5553    5556
    5558    5557    5559    5558    5557    5560    5559    5557    5560
    5562    5561    5563    5562    5561    5564    5563    5561    5564
    5566    5565    5567    5566    5565    5568    5567    5565    5568
    5570    5569    5571    5570    5569    5572    5571    5569    5572
    5574    5573    5575    5574    5573    5576    5575    5573    5576
    5578    5577    5579    5578    5577    5580    5579    5577    5580
    5582    5581    5583    5582    5581    5584    5583    5581    5584
    5586    5585    5587    5586    5585    5588    5587    5585    5588
    5590    5589    5591    5590    5589    5592    5591    5589    5592
    5594    5593    5595    5594    5593    5596    5595    5593    5596
    5598    5597    5599    5598    5597    5600    5599    5597    5600
    5602    5601    5603    5602    5601    5604    5603    5601    5604
    5606    5605    5607    5606    5605    5608    5607    5605    5608
    5610    5609    5611    5610    5609    5612    5611    5609    5612
    5614    5613    5615    5614    5613    5616    5615    5613    5616
    5618    5617    5619    5618    5617    5620    5619    5617    5620
    5622    5621    5623    5622    5621    5624    5623    5621    5624
    5626    5625    5627    5626    5625    5628    5627    5625    5628
    5630    5629    5631    5630    5629    5632    5631    5629    5632
    5634    5633    5635    5634    5633    5636    5635    5633    5636
    5638    5637    5639    5638    5637    5640    5639    5637    5640
    5642    5641    5643    5642    5641    5644    5643    5641    5644
    5646    5645    5647    5646    5645    5648    5647    5645    5648
    5650    5649    5651    5650    5649    5652    5651    5649    5652
    5654    5653    5655    5654    5653    5656    5655    5653    5656
    5658    5657    5659    5658    5657    5660    5659    5657    5660
    5662    5661    5663    5662    5661    5664    5663    5661    5664
    5666    5665    5667    5666    5665    5668    5667    5665    5668
    5670    5669    5671    5670    5669    5672    5671    5669    5672
    5674    5673    5675    5674    5673    5676    5675    5673    5676
    5678    5677    5679    5678    5677    5680    5679    5677    5680
    5682    5681    5683    5682    5681    5684    5683    5681    5684
    5686    5685    5687    5686    5685    5688    5687    5685    5688
    5690    5689    5691    5690    5689    5692    5691    5689    5692
    5694    5693    5695    5694    5693    5696    5695    5693    5696
    5698    5697    5699    5698    5697    5700    5699    5697    5700
    5702    5701    5703    5702    5701    5704    5703    5701    5704
    5706    5705    5707    5706    5705    5708    5707    5705    5708
    5710    5709    5711    5710    5709    5712    5711    5709    5712
    5714    5713    5715    5714    5713    5716    5715    5713    5716
    5718    5717    5719    5718    5717    5720    5719    5717    5720
    5722    5721    5723    5722    5721    5724    5723    5721    5724
    5726    5725    5727    5726    5725    5728    5727    5725    5728
    5730    5729    5731    5730    5729    5732    5731    5729    5732
    5734    5733    5735    5734    5733    5736    5735    5733    5736
    5738    5737    5739    5738    5737    5740    5739    5737    5740
    5742    5741    5743    5742    5741    5744    5743    5741    5744
    5746    5745    5747    5746    5745    5748    5747    5745    5748
    5750    5749    5751    5750    5749    5752    5751    5749    5752
    5754    5753    5755    5754    5753    5756    5755    5753    5756
    5758    5757    5759    5758    5757    5760    5759    5757    5760
    5762    5761    5763    5762    5761    5764    5763    5761    5764
    5766    5765    5767    5766    5765    5768    5767    5765    5768
    5770    5769    5771    5770    5769    5772    5771    5769    5772
    5774    5773    5775    5774    5773    5776    5775    5773    5776
    5778    5777    5779    5778    5777    5780    5779    5777    5780
    5782    5781    5783    5782    5781    5784    5783    5781    5784
    5786    5785    5787    5786    5785    5788    5787    5785    5788
    5790    5789    5791    5790    5789    5792    5791    5789    5792
    5794    5793    5795    5794    5793    5796    5795    5793    5796
    5798    5797    5799    5798    5797    5800    5799    5797    5800
    5802    5801    5803    5802    5801    5804    5803    5801    5804
    5806    5805    5807    5806    5805    5808    5807    5805    5808
    5810    5809    5811    5810    5809    5812    5811    5809    5812
    5814    5813    5815    5814    5813    5816    5815    5813    5816
    5818    5817    5819    5818    5817    5820    5819    5817    5820
    5822    5821    5823    5822    5821    5824    5823    5821    5824
    5826    5825    5827    5826    5825    5828    5827    5825    5828
    5830    5829    5831    5830    5829    5832    5831    5829    5832
    5834    5833    5835    5834    5833    5836    5835    5833    5836
    5838    5837    5839    5838    5837    5840    5839    5837    5840
    5842    5841    5843    5842    5841    5844    5843    5841    5844
    5846    5845    5847    5846    5845    5848    5847    5845    5848
    5850    5849    5851    5850    5849    5852    5851    5849    5852
    5854    5853    5855    5854    5853    5856    5855    5853    5856
    5858    5857    5859    5858    5857    5860    5859    5857    5860
    5862    5861    5863    5862    5861    5864    5863    5861    5864
    5866    5865    5867    5866    5865    5868    5867    5865    5868
    5870    5869    5871    5870    5869    5872    5871    5869    5872
    5874    5873    5875    5874    5873    5876    5875    5873    5876
    5878    5877    5879    5878    5877    5880    5879    5877    5880
    5882    5881    5883    5882    5881    5884    5883    5881    5884
    5886    5885    5887    5886    5885    5888    5887    5885    5888
    5890    5889    5891    5890    5889    5892    5891    5889    5892
    5894    5893    5895    5894    5893    5896    5895    5893    5896
    5898    5897    5899    5898    5897    5900    5899    5897    5900
    5902    5901    5903    5902    5901    5904    5903    5901    5904
    5906    5905    5907    5906    5905    5908    5907    5905    5908
    5910    5909    5911    5910    5909    5912    5911    5909    5912
    5914    5913    5915    5914    5913    5916    5915    5913    5916
    5918    5917    5919    5918    5917    5920    5919    5917    5920
    5922    5921    5923    5922    5921    5924    5923    5921    5924
    5926    5925    5927    5926    5925    5928    5927    5925    5928
    5930    5929    5931    5930    5929    5932    5931    5929    5932
    5934    5933    5935    5934    5933    5936    5935    5933    5936
    5938    5937    5939    5938    5937    5940    5939    5937    5940
    5942    5941    5943    5942    5941    5944    5943    5941    5944
    5946    5945    5947    5946    5945    5948    5947    5945    5948
    5950    5949    5951    5950    5949    5952    5951    5949    5952
    5954    5953    5955    5954    5953    5956    5955    5953    5956
    5958    5957    5959    5958    5957    5960    5959    5957    5960
    5962    5961    5963    5962    5961    5964    5963    5961    5964
    5966    5965    5967    5966    5965    5968    5967    5965    5968
    5970    5969    5971    5970    5969    5972    5971    5969    5972
    5974    5973    5975    5974    5973    5976    5975    5973    5976
    5978    5977    5979    5978    5977    5980    5979    5977    5980
    5982    5981    5983    5982    5981    5984    5983    5981    5984
    5986    5985    5987    5986    5985    5988    5987    5985    5988
    5990    5989    5991    5990    5989    5992    5991    5989    5992
    5994    5993    5995    5994    5993    5996    5995    5993    5996
    5998    5997    5999    5998    5997    6000    5999    5997    6000
    6002    6001    6003    6002    6001    6004    6003    6001    6004
    6006    6005    6007    6006    6005    6008    6007    6005    6008
    6010    6009    6011    6010    6009    6012    6011    6009    6012
    6014    6013    6015    6014    6013    6016    6015    6013    6016
    6018    6017    6019    6018    6017    6020    6019    6017    6020
    6022    6021    6023    6022    6021    6024    6023    6021    6024
    6026    6025    6027    6026    6025    6028    6027    6025    6028
    6030    6029    6031    6030    6029    6032    6031    6029    6032
    6034    6033    6035    6034    6033    6036    6035    6033    6036
    6038    6037    6039    6038    6037    6040    6039    6037    6040
    6042    6041    6043    6042    6041    6044    6043    6041    6044
    6046    6045    6047    6046    6045    6048    6047    6045    6048
    6050    6049    6051    6050    6049    6052    6051    6049    6052
    6054    6053    6055    6054    6053    6056    6055    6053    6056
    6058    6057    6059    6058    6057    6060    6059    6057    6060
    6062    6061    6063    6062    6061    6064    6063    6061    6064
    6066    6065    6067    6066    6065    6068    6067    6065    6068
    6070    6069    6071    6070    6069    6072    6071    6069    6072
    6074    6073    6075    6074    6073    6076    6075    6073    6076
    6078    6077    6079    6078    6077    6080    6079    6077    6080
    6082    6081    6083    6082    6081    6084    6083    6081    6084
    6086    6085    6087    6086    6085    6088    6087    6085    6088
    6090    6089    6091    6090    6089    6092    6091    6089    6092
    6094    6093    6095    6094    6093    6096    6095    6093    6096
    6098    6097    6099    6098    6097    6100    6099    6097    6100
    6102    6101    6103    6102    6101    6104    6103    6101    6104
    6106    6105    6107    6106    6105    6108    6107    6105    6108
    6110    6109    6111    6110    6109    6112    6111    6109    6112
    6114    6113    6115    6114    6113    6116    6115    6113    6116
    6118    6117    6119    6118    6117    6120    6119    6117    6120
    6122    6121    6123    6122    6121    6124    6123    6121    6124
    6126    6125    6127    6126    6125    6128    6127    6125    6128
    6130    6129    6131    6130    6129    6132    6131    6129    6132
    6134    6133    6135    6134    6133    6136    6135    6133    6136
    6138    6137    6139    6138    6137    6140    6139    6137    6140
    6142    6141    6143    6142    6141    6144    6143    6141    6144
    6146    6145    6147    6146    6145    6148    6147    6145    6148
    6150    6149    6151    6150    6149    6152    6151    6149    6152
    6154    6153    6155    6154    6153    6156    6155    6153    6156
    6158    6157    6159    6158    6157    6160    6159    6157    6160
    6162    6161    6163    6162    6161    6164    6163    6161    6164
    6166    6165    6167    6166    6165    6168    6167    6165    6168
    6170    6169    6171    6170    6169    6172    6171    6169    6172
    6174    6173    6175    6174    6173    6176    6175    6173    6176
    6178    6177    6179    6178    6177    6180    6179    6177    6180
    6182    6181    6183    6182    6181    6184    6183    6181    6184
    6186    6185    6187    6186    6185    6188    6187    6185    6188
    6190    6189    6191    6190    6189    6192    6191    6189    6192
    6194    6193    6195    6194    6193    6196    6195    6193    6196
    6198    6197    6199    6198    6197    6200    6199    6197    6200
    6202    6201    6203    6202    6201    6204    6203    6201    6204
    6206    6205    6207    6206    6205    6208    6207    6205    6208
    6210    6209    6211    6210    6209    6212    6211    6209    6212
    6214    6213    6215    6214    6213    6216    6215    6213    6216
    6218    6217    6219    6218    6217    6220    6219    6217    6220
    6222    6221    6223    6222    6221    6224    6223    6221    6224
    6226    6225    6227    6226    6225    6228    6227    6225    6228
    6230    6229    6231    6230    6229    6232    6231    6229    6232
    6234    6233    6235    6234    6233    6236    6235    6233    6236
    6238    6237    6239    6238    6237    6240    6239    6237    6240
    6242    6241    6243    6242    6241    6244    6243    6241    6244
    6246    6245    6247    6246    6245    6248    6247    6245    6248
    6250    6249    6251    6250    6249    6252    6251    6249    6252
    6254    6253    6255    6254    6253    6256    6255    6253    6256
    6258    6257    6259    6258    6257    6260    6259    6257    6260
    6262    6261    6263    6262    6261    6264    6263    6261    6264
    6266    6265    6267    6266    6265    6268    6267    6265    6268
    6270    6269    6271    6270    6269    6272    6271    6269    6272
    6274    6273    6275    6274    6273    6276    6275    6273    6276
    6278    6277    6279    6278    6277    6280    6279    6277    6280
    6282    6281    6283    6282    6281    6284    6283    6281    6284
    6286    6285    6287    6286    6285    6288    6287    6285    6288
    6290    6289    6291    6290    6289    6292    6291    6289    6292
    6294    6293    6295    6294    6293    6296    6295    6293    6296
    6298    6297    6299    6298    6297    6300    6299    6297    6300
    6302    6301    6303    6302    6301    6304    6303    6301    6304
    6306    6305    6307    6306    6305    6308    6307    6305    6308
    6310    6309    6311    6310    6309    6312    6311    6309    6312
    6314    6313    6315    6314    6313    6316    6315    6313    6316
    6318    6317    6319    6318    6317    6320    6319    6317    6320
    6322    6321    6323    6322    6321    6324    6323    6321    6324
    6326    6325    6327    6326    6325    6328    6327    6325    6328
    6330    6329    6331    6330    6329    6332    6331    6329    6332
    6334    6333    6335    6334    6333    6336    6335    6333    6336
    6338    6337    6339    6338    6337    6340    6339    6337    6340
    6342    6341    6343    6342    6341    6344    6343    6341    6344
    6346    6345    6347    6346    6345    6348    6347    6345    6348
    6350    6349    6351    6350    6349    6352    6351    6349    6352
    6354    6353    6355    6354    6353    6356    6355    6353    6356
    6358    6357    6359    6358    6357    6360    6359    6357    6360
    6362    6361    6363    6362    6361    6364    6363    6361    6364
    6366    6365    6367    6366    6365    6368    6367    6365    6368
    6370    6369    6371    6370    6369    6372    6371    6369    6372
    6374    6373    6375    6374    6373    6376    6375    6373    6376
    6378    6377    6379    6378    6377    6380    6379    6377    6380
    6382    6381    6383    6382    6381    6384    6383    6381    6384
    6386    6385    6387    6386    6385    6388    6387    6385    6388
    6390    6389    6391    6390    6389    6392    6391    6389    6392
    6394    6393    6395    6394    6393    6396    6395    6393    6396
    6398    6397    6399    6398    6397    6400    6399    6397    6400
    6402    6401    6403    6402    6401    6404    6403    6401    6404
    6406    6405    6407    6406    6405    6408    6407    6405    6408
    6410    6409    6411    6410    6409    6412    6411    6409    6412
    6414    6413    6415    6414    6413    6416    6415    6413    6416
    6418    6417    6419    6418    6417    6420    6419    6417    6420
    6422    6421    6423    6422    6421    6424    6423    6421    6424
    6426    6425    6427    6426    6425    6428    6427    6425    6428
    6430    6429    6431    6430    6429    6432    6431    6429    6432
    6434    6433    6435    6434    6433    6436    6435    6433    6436
    6438    6437    6439    6438    6437    6440    6439    6437    6440
    6442    6441    6443    6442    6441    6444    6443    6441    6444
    6446    6445    6447    6446    6445    6448    6447    6445    6448
    6450    6449    6451    6450    6449    6452    6451    6449    6452
    6454    6453    6455    6454    6453    6456    6455    6453    6456
    6458    6457    6459    6458    6457    6460    6459    6457    6460
    6462    6461    6463    6462    6461    6464    6463    6461    6464
    6466    6465    6467    6466    6465    6468    6467    6465    6468
    6470    6469    6471    6470    6469    6472    6471    6469    6472
    6474    6473    6475    6474    6473    6476    6475    6473    6476
    6478    6477    6479    6478    6477    6480    6479    6477    6480
    6482    6481    6483    6482    6481    6484    6483    6481    6484
    6486    6485    6487    6486    6485    6488    6487    6485    6488
    6490    6489    6491    6490    6489    6492    6491    6489    6492
    6494    6493    6495    6494    6493    6496    6495    6493    6496
    6498    6497    6499    6498    6497    6500    6499    6497    6500
    6502    6501    6503    6502    6501    6504    6503    6501    6504
    6506    6505    6507    6506    6505    6508    6507    6505    6508
    6510    6509    6511    6510    6509    6512    6511    6509    6512
    6514    6513    6515    6514    6513    6516    6515    6513    6516
    6518    6517    6519    6518    6517    6520    6519    6517    6520
    6522    6521    6523    6522    6521    6524    6523    6521    6524
    6526    6525    6527    6526    6525    6528    6527    6525    6528
    6530    6529    6531    6530    6529    6532    6531    6529    6532
    6534    6533    6535    6534    6533    6536    6535    6533    6536
    6538    6537    6539    6538    6537    6540    6539    6537    6540
    6542    6541    6543    6542    6541    6544    6543    6541    6544
    6546    6545    6547    6546    6545    6548    6547    6545    6548
    6550    6549    6551    6550    6549    6552    6551    6549    6552
    6554    6553    6555    6554    6553    6556    6555    6553    6556
    6558    6557    6559    6558    6557    6560    6559    6557    6560
    6562    6561    6563    6562    6561    6564    6563    6561    6564
    6566    6565    6567    6566    6565    6568    6567    6565    6568
    6570    6569    6571    6570    6569    6572    6571    6569    6572
    6574    6573    6575    6574    6573    6576    6575    6573    6576
    6578    6577    6579    6578    6577    6580    6579    6577    6580
    6582    6581    6583    6582    6581    6584    6583    6581    6584
    6586    6585    6587    6586    6585    6588    6587    6585    6588
    6590    6589    6591    6590    6589    6592    6591    6589    6592
    6594    6593    6595    6594    6593    6596    6595    6593    6596
    6598    6597    6599    6598    6597    6600    6599    6597    6600
    6602    6601    6603    6602    6601    6604    6603    6601    6604
    6606    6605    6607    6606    6605    6608    6607    6605    6608
    6610    6609    6611    6610    6609    6612    6611    6609    6612
    6614    6613    6615    6614    6613    6616    6615    6613    6616
    6618    6617    6619    6618    6617    6620    6619    6617    6620
    6622    6621    6623    6622    6621    6624    6623    6621    6624
    6626    6625    6627    6626    6625    6628    6627    6625    6628
    6630    6629    6631    6630    6629    6632    6631    6629    6632
    6634    6633    6635    6634    6633    6636    6635    6633    6636
    6638    6637    6639    6638    6637    6640    6639    6637    6640
    6642    6641    6643    6642    6641    6644    6643    6641    6644
    6646    6645    6647    6646    6645    6648    6647    6645    6648
    6650    6649    6651    6650    6649    6652    6651    6649    6652
    6654    6653    6655    6654    6653    6656    6655    6653    6656
    6658    6657    6659    6658    6657    6660    6659    6657    6660
    6662    6661    6663    6662    6661    6664    6663    6661    6664
    6666    6665    6667    6666    6665    6668    6667    6665    6668
    6670    6669    6671    6670    6669    6672    6671    6669    6672
    6674    6673    6675    6674    6673    6676    6675    6673    6676
    6678    6677    6679    6678    6677    6680    6679    6677    6680
    6682    6681    6683    6682    6681    6684    6683    6681    6684
    6686    6685    6687    6686    6685    6688    6687    6685    6688
    6690    6689    6691    6690    6689    6692    6691    6689    6692
    6694    6693    6695    6694    6693    6696    6695    6693    6696
    6698    6697    6699    6698    6697    6700    6699    6697    6700
    6702    6701    6703    6702    6701    6704    6703    6701    6704
    6706    6705    6707    6706    6705    6708    6707    6705    6708
    6710    6709    6711    6710    6709    6712    6711    6709    6712
    6714    6713    6715    6714    6713    6716    6715    6713    6716
    6718    6717    6719    6718    6717    6720    6719    6717    6720
    6722    6721    6723    6722    6721    6724    6723    6721    6724
    6726    6725    6727    6726    6725    6728    6727    6725    6728
    6730    6729    6731    6730    6729    6732    6731    6729    6732
    6734    6733    6735    6734    6733    6736    6735    6733    6736
    6738    6737    6739    6738    6737    6740    6739    6737    6740
    6742    6741    6743    6742    6741    6744    6743    6741    6744
    6746    6745    6747    6746    6745    6748    6747    6745    6748
    6750    6749    6751    6750    6749    6752    6751    6749    6752
    6754    6753    6755    6754    6753    6756    6755    6753    6756
    6758    6757    6759    6758    6757    6760    6759    6757    6760
    6762    6761    6763    6762    6761    6764    6763    6761    6764
    6766    6765    6767    6766    6765    6768    6767    6765    6768
    6770    6769    6771    6770    6769    6772    6771    6769    6772
    6774    6773    6775    6774    6773    6776    6775    6773    6776
    6778    6777    6779    6778    6777    6780    6779    6777    6780
    6782    6781    6783    6782    6781    6784    6783    6781    6784
    6786    6785    6787    6786    6785    6788    6787    6785    6788
    6790    6789    6791    6790    6789    6792    6791    6789    6792
    6794    6793    6795    6794    6793    6796    6795    6793    6796
    6798    6797    6799    6798    6797    6800    6799    6797    6800
    6802    6801    6803    6802    6801    6804    6803    6801    6804
    6806    6805    6807    6806    6805    6808    6807    6805    6808
    6810    6809    6811    6810    6809    6812    6811    6809    6812
    6814    6813    6815    6814    6813    6816    6815    6813    6816
    6818    6817    6819    6818    6817    6820    6819    6817    6820
    6822    6821    6823    6822    6821    6824    6823    6821    6824
    6826    6825    6827    6826    6825    6828    6827    6825    6828
    6830    6829    6831    6830    6829    6832    6831    6829    6832
    6834    6833    6835    6834    6833    6836    6835    6833    6836
    6838    6837    6839    6838    6837    6840    6839    6837    6840
    6842    6841    6843    6842    6841    6844    6843    6841    6844
    6846    6845    6847    6846    6845    6848    6847    6845    6848
    6850    6849    6851    6850    6849    6852    6851    6849    6852
    6854    6853    6855    6854    6853    6856    6855    6853    6856
    6858    6857    6859    6858    6857    6860    6859    6857    6860
    6862    6861    6863    6862    6861    6864    6863    6861    6864
    6866    6865    6867    6866    6865    6868    6867    6865    6868
    6870    6869    6871    6870    6869    6872    6871    6869    6872
    6874    6873    6875    6874    6873    6876    6875    6873    6876
    6878    6877    6879    6878    6877    6880    6879    6877    6880
    6882    6881    6883    6882    6881    6884    6883    6881    6884
    6886    6885    6887    6886    6885    6888    6887    6885    6888
    6890    6889    6891    6890    6889    6892    6891    6889    6892
    6894    6893    6895    6894    6893    6896    6895    6893    6896
    6898    6897    6899    6898    6897    6900    6899    6897    6900
    6902    6901    6903    6902    6901    6904    6903    6901    6904
    6906    6905    6907    6906    6905    6908    6907    6905    6908
    6910    6909    6911    6910    6909    6912    6911    6909    6912
    6914    6913    6915    6914    6913    6916    6915    6913    6916
    6918    6917    6919    6918    6917    6920    6919    6917    6920
    6922    6921    6923    6922    6921    6924    6923    6921    6924
    6926    6925    6927    6926    6925    6928    6927    6925    6928
    6930    6929    6931    6930    6929    6932    6931    6929    6932
    6934    6933    6935    6934    6933    6936    6935    6933    6936
    6938    6937    6939    6938    6937    6940    6939    6937    6940
    6942    6941    6943    6942    6941    6944    6943    6941    6944
    6946    6945    6947    6946    6945    6948    6947    6945    6948
    6950    6949    6951    6950    6949    6952    6951    6949    6952
    6954    6953    6955    6954    6953    6956    6955    6953    6956
    6958    6957    6959    6958    6957    6960    6959    6957    6960
    6962    6961    6963    6962    6961    6964    6963    6961    6964
    6966    6965    6967    6966    6965    6968    6967    6965    6968
    6970    6969    6971    6970    6969    6972    6971    6969    6972
    6974    6973    6975    6974    6973    6976    6975    6973    6976
    6978    6977    6979    6978    6977    6980    6979    6977    6980
    6982    6981    6983    6982    6981    6984    6983    6981    6984
    6986    6985    6987    6986    6985    6988    6987    6985    6988
    6990    6989    6991    6990    6989    6992    6991    6989    6992
    6994    6993    6995    6994    6993    6996    6995    6993    6996
    6998    6997    6999    6998    6997    7000    6999    6997    7000
    7002    7001    7003    7002    7001    7004    7003    7001    7004
    7006    7005    7007    7006    7005    7008    7007    7005    7008
    7010    7009    7011    7010    7009    7012    7011    7009    7012
    7014    7013    7015    7014    7013    7016    7015    7013    7016
    7018    7017    7019    7018    7017    7020    7019    7017    7020
    7022    7021    7023    7022    7021    7024    7023    7021    7024
    7026    7025    7027    7026    7025    7028    7027    7025    7028
    7030    7029    7031    7030    7029    7032    7031    7029    7032
    7034    7033    7035    7034    7033    7036    7035    7033    7036
    7038    7037    7039    7038    7037    7040    7039    7037    7040
    7042    7041    7043    7042    7041    7044    7043    7041    7044
    7046    7045    7047    7046    7045    7048    7047    7045    7048
    7050    7049    7051    7050    7049    7052    7051    7049    7052
    7054    7053    7055    7054    7053    7056    7055    7053    7056
    7058    7057    7059    7058    7057    7060    7059    7057    7060
    7062    7061    7063    7062    7061    7064    7063    7061    7064
    7066    7065    7067    7066    7065    7068    7067    7065    7068
    7070    7069    7071    7070    7069    7072    7071    7069    7072
    7074    7073    7075    7074    7073    7076    7075    7073    7076
    7078    7077    7079    7078    7077    7080    7079    7077    7080
    7082    7081    7083    7082    7081    7084    7083    7081    7084
    7086    7085    7087    7086    7085    7088    7087    7085    7088
    7090    7089    7091    7090    7089    7092    7091    7089    7092
    7094    7093    7095    7094    7093    7096    7095    7093    7096
    7098    7097    7099    7098    7097    7100    7099    7097    7100
    7102    7101    7103    7102    7101    7104    7103    7101    7104
    7106    7105    7107    7106    7105    7108    7107    7105    7108
    7110    7109    7111    7110    7109    7112    7111    7109    7112
    7114    7113    7115    7114    7113    7116    7115    7113    7116
    7118    7117    7119    7118    7117    7120    7119    7117    7120
    7122    7121    7123    7122    7121    7124    7123    7121    7124
    7126    7125    7127    7126    7125    7128    7127    7125    7128
    7130    7129    7131    7130    7129    7132    7131    7129    7132
    7134    7133    7135    7134    7133    7136    7135    7133    7136
    7138    7137    7139    7138    7137    7140    7139    7137    7140
    7142    7141    7143    7142    7141    7144    7143    7141    7144
    7146    7145    7147    7146    7145    7148    7147    7145    7148
    7150    7149    7151    7150    7149    7152    7151    7149    7152
    7154    7153    7155    7154    7153    7156    7155    7153    7156
    7158    7157    7159    7158    7157    7160    7159    7157    7160
    7162    7161    7163    7162    7161    7164    7163    7161    7164
    7166    7165    7167    7166    7165    7168    7167    7165    7168
    7170    7169    7171    7170    7169    7172    7171    7169    7172
    7174    7173    7175    7174    7173    7176    7175    7173    7176
    7178    7177    7179    7178    7177    7180    7179    7177    7180
    7182    7181    7183    7182    7181    7184    7183    7181    7184
    7186    7185    7187    7186    7185    7188    7187    7185    7188
    7190    7189    7191    7190    7189    7192    7191    7189    7192
    7194    7193    7195    7194    7193    7196    7195    7193    7196
    7198    7197    7199    7198    7197    7200    7199    7197    7200
    7202    7201    7203    7202    7201    7204    7203    7201    7204
    7206    7205    7207    7206    7205    7208    7207    7205    7208
    7210    7209    7211    7210    7209    7212    7211    7209    7212
    7214    7213    7215    7214    7213    7216    7215    7213    7216
    7218    7217    7219    7218    7217    7220    7219    7217    7220
    7222    7221    7223    7222    7221    7224    7223    7221    7224
    7226    7225    7227    7226    7225    7228    7227    7225    7228
    7230    7229    7231    7230    7229    7232    7231    7229    7232
    7234    7233    7235    7234    7233    7236    7235    7233    7236
    7238    7237    7239    7238    7237    7240    7239    7237    7240
    7242    7241    7243    7242    7241    7244    7243    7241    7244
    7246    7245    7247    7246    7245    7248    7247    7245    7248
    7250    7249    7251    7250    7249    7252    7251    7249    7252
    7254    7253    7255    7254    7253    7256    7255    7253    7256
    7258    7257    7259    7258    7257    7260    7259    7257    7260
    7262    7261    7263    7262    7261    7264    7263    7261    7264
    7266    7265    7267    7266    7265    7268    7267    7265    7268
    7270    7269    7271    7270    7269    7272    7271    7269    7272
    7274    7273    7275    7274    7273    7276    7275    7273    7276
    7278    7277    7279    7278    7277    7280    7279    7277    7280
    7282    7281    7283    7282    7281    7284    7283    7281    7284
    7286    7285    7287    7286    7285    7288    7287    7285    7288
    7290    7289    7291    7290    7289    7292    7291    7289    7292
    7294    7293    7295    7294    7293    7296    7295    7293    7296
    7298    7297    7299    7298    7297    7300    7299    7297    7300
    7302    7301    7303    7302    7301    7304    7303    7301    7304
    7306    7305    7307    7306    7305    7308    7307    7305    7308
    7310    7309    7311    7310    7309    7312    7311    7309    7312
    7314    7313    7315    7314    7313    7316    7315    7313    7316
    7318    7317    7319    7318    7317    7320    7319    7317    7320
    7322    7321    7323    7322    7321    7324    7323    7321    7324
    7326    7325    7327    7326    7325    7328    7327    7325    7328
    7330    7329    7331    7330    7329    7332    7331    7329    7332
    7334    7333    7335    7334    7333    7336    7335    7333    7336
    7338    7337    7339    7338    7337    7340    7339    7337    7340
    7342    7341    7343    7342    7341    7344    7343    7341    7344
    7346    7345    7347    7346    7345    7348    7347    7345    7348
    7350    7349    7351    7350    7349    7352    7351    7349    7352
    7354    7353    7355    7354    7353    7356    7355    7353    7356
    7358    7357    7359    7358    7357    7360    7359    7357    7360
    7362    7361    7363    7362    7361    7364    7363    7361    7364
    7366    7365    7367    7366    7365    7368    7367    7365    7368
    7370    7369    7371    7370    7369    7372    7371    7369    7372
    7374    7373    7375    7374    7373    7376    7375    7373    7376
    7378    7377    7379    7378    7377    7380    7379    7377    7380
    7382    7381    7383    7382    7381    7384    7383    7381    7384
    7386    7385    7387    7386    7385    7388    7387    7385    7388
    7390    7389    7391    7390    7389    7392    7391    7389    7392
    7394    7393    7395    7394    7393    7396    7395    7393    7396
    7398    7397    7399    7398    7397    7400    7399    7397    7400
    7402    7401    7403    7402    7401    7404    7403    7401    7404
    7406    7405    7407    7406    7405    7408    7407    7405    7408
    7410    7409    7411    7410    7409    7412    7411    7409    7412
    7414    7413    7415    7414    7413    7416    7415    7413    7416
    7418    7417    7419    7418    7417    7420    7419    7417    7420
    7422    7421    7423    7422    7421    7424    7423    7421    7424
    7426    7425    7427    7426    7425    7428    7427    7425    7428
    7430    7429    7431    7430    7429    7432    7431    7429    7432
    7434    7433    7435    7434    7433    7436    7435    7433    7436
    7438    7437    7439    7438    7437    7440    7439    7437    7440
    7442    7441    7443    7442    7441    7444    7443    7441    7444
    7446    7445    7447    7446    7445    7448    7447    7445    7448
    7450    7449    7451    7450    7449    7452    7451    7449    7452
    7454    7453    7455    7454    7453    7456    7455    7453    7456
    7458    7457    7459    7458    7457    7460    7459    7457    7460
    7462    7461    7463    7462    7461    7464    7463    7461    7464
    7466    7465    7467    7466    7465    7468    7467    7465    7468
    7470    7469    7471    7470    7469    7472    7471    7469    7472
    7474    7473    7475    7474    7473    7476    7475    7473    7476
    7478    7477    7479    7478    7477    7480    7479    7477    7480
    7482    7481    7483    7482    7481    7484    7483    7481    7484
    7486    7485    7487    7486    7485    7488    7487    7485    7488
    7490    7489    7491    7490    7489    7492    7491    7489    7492
    7494    7493    7495    7494    7493    7496    7495    7493    7496
    7498    7497    7499    7498    7497    7500    7499    7497    7500
    7502    7501    7503    7502    7501    7504    7503    7501    7504
    7506    7505    7507    7506    7505    7508    7507    7505    7508
    7510    7509    7511    7510    7509    7512    7511    7509    7512
    7514    7513    7515    7514    7513    7516    7515    7513    7516
    7518    7517    7519    7518    7517    7520    7519    7517    7520
    7522    7521    7523    7522    7521    7524    7523    7521    7524
    7526    7525    7527    7526    7525    7528    7527    7525    7528
    7530    7529    7531    7530    7529    7532    7531    7529    7532
    7534    7533    7535    7534    7533    7536    7535    7533    7536
    7538    7537    7539    7538    7537    7540    7539    7537    7540
    7542    7541    7543    7542    7541    7544    7543    7541    7544
    7546    7545    7547    7546    7545    7548    7547    7545    7548
    7550    7549    7551    7550    7549    7552    7551    7549    7552
    7554    7553    7555    7554    7553    7556    7555    7553    7556
    7558    7557    7559    7558    7557    7560    7559    7557    7560
    7562    7561    7563    7562    7561    7564    7563    7561    7564
    7566    7565    7567    7566    7565    7568    7567    7565    7568
    7570    7569    7571    7570    7569    7572    7571    7569    7572
    7574    7573    7575    7574    7573    7576    7575    7573    7576
    7578    7577    7579    7578    7577    7580    7579    7577    7580
    7582    7581    7583    7582    7581    7584    7583    7581    7584
    7586    7585    7587    7586    7585    7588    7587    7585    7588
    7590    7589    7591    7590    7589    7592    7591    7589    7592
    7594    7593    7595    7594    7593    7596    7595    7593    7596
    7598    7597    7599    7598    7597    7600    7599    7597    7600
    7602    7601    7603    7602    7601    7604    7603    7601    7604
    7606    7605    7607    7606    7605    7608    7607    7605    7608
    7610    7609    7611    7610    7609    7612    7611    7609    7612
    7614    7613    7615    7614    7613    7616    7615    7613    7616
    7618    7617    7619    7618    7617    7620    7619    7617    7620
    7622    7621    7623    7622    7621    7624    7623    7621    7624
    7626    7625    7627    7626    7625    7628    7627    7625    7628
    7630    7629    7631    7630    7629    7632    7631    7629    7632
    7634    7633    7635    7634    7633    7636    7635    7633    7636
    7638    7637    7639    7638    7637    7640    7639    7637    7640
    7642    7641    7643    7642    7641    7644    7643    7641    7644
    7646    7645    7647    7646    7645    7648    7647    7645    7648
    7650    7649    7651    7650    7649    7652    7651    7649    7652
    7654    7653    7655    7654    7653    7656    7655    7653    7656
    7658    7657    7659    7658    7657    7660    7659    7657    7660
    7662    7661    7663    7662    7661    7664    7663    7661    7664
    7666    7665    7667    7666    7665    7668    7667    7665    7668
    7670    7669    7671    7670    7669    7672    7671    7669    7672
    7674    7673    7675    7674    7673    7676    7675    7673    7676
    7678    7677    7679    7678    7677    7680    7679    7677    7680
    7682    7681    7683    7682    7681    7684    7683    7681    7684
    7686    7685    7687    7686    7685    7688    7687    7685    7688
    7690    7689    7691    7690    7689    7692    7691    7689    7692
    7694    7693    7695    7694    7693    7696    7695    7693    7696
    7698    7697    7699    7698    7697    7700    7699    7697    7700
    7702    7701    7703    7702    7701    7704    7703    7701    7704
    7706    7705    7707    7706    7705    7708    7707    7705    7708
    7710    7709    7711    7710    7709    7712    7711    7709    7712
    7714    7713    7715    7714    7713    7716    7715    7713    7716
    7718    7717    7719    7718    7717    7720    7719    7717    7720
    7722    7721    7723    7722    7721    7724    7723    7721    7724
    7726    7725    7727    7726    7725    7728    7727    7725    7728
    7730    7729    7731    7730    7729    7732    7731    7729    7732
    7734    7733    7735    7734    7733    7736    7735    7733    7736
    7738    7737    7739    7738    7737    7740    7739    7737    7740
    7742    7741    7743    7742    7741    7744    7743    7741    7744
    7746    7745    7747    7746    7745    7748    7747    7745    7748
    7750    7749    7751    7750    7749    7752    7751    7749    7752
    7754    7753    7755    7754    7753    7756    7755    7753    7756
    7758    7757    7759    7758    7757    7760    7759    7757    7760
    7762    7761    7763    7762    7761    7764    7763    7761    7764
    7766    7765    7767    7766    7765    7768    7767    7765    7768
    7770    7769    7771    7770    7769    7772    7771    7769    7772
    7774    7773    7775    7774    7773    7776    7775    7773    7776
    7778    7777    7779    7778    7777    7780    7779    7777    7780
    7782    7781    7783    7782    7781    7784    7783    7781    7784
    7786    7785    7787    7786    7785    7788    7787    7785    7788
    7790    7789    7791    7790    7789    7792    7791    7789    7792
    7794    7793    7795    7794    7793    7796    7795    7793    7796
    7798    7797    7799    7798    7797    7800    7799    7797    7800
    7802    7801    7803    7802    7801    7804    7803    7801    7804
    7806    7805    7807    7806    7805    7808    7807    7805    7808
    7810    7809    7811    7810    7809    7812    7811    7809    7812
    7814    7813    7815    7814    7813    7816    7815    7813    7816
    7818    7817    7819    7818    7817    7820    7819    7817    7820
    7822    7821    7823    7822    7821    7824    7823    7821    7824
    7826    7825    7827    7826    7825    7828    7827    7825    7828
    7830    7829    7831    7830    7829    7832    7831    7829    7832
    7834    7833    7835    7834    7833    7836    7835    7833    7836
    7838    7837    7839    7838    7837    7840    7839    7837    7840
    7842    7841    7843    7842    7841    7844    7843    7841    7844
    7846    7845    7847    7846    7845    7848    7847    7845    7848
    7850    7849    7851    7850    7849    7852    7851    7849    7852
    7854    7853    7855    7854    7853    7856    7855    7853    7856
    7858    7857    7859    7858    7857    7860    7859    7857    7860
    7862    7861    7863    7862    7861    7864    7863    7861    7864
    7866    7865    7867    7866    7865    7868    7867    7865    7868
    7870    7869    7871    7870    7869    7872    7871    7869    7872
    7874    7873    7875    7874    7873    7876    7875    7873    7876
    7878    7877    7879    7878    7877    7880    7879    7877    7880
    7882    7881    7883    7882    7881    7884    7883    7881    7884
    7886    7885    7887    7886    7885    7888    7887    7885    7888
    7890    7889    7891    7890    7889    7892    7891    7889    7892
    7894    7893    7895    7894    7893    7896    7895    7893    7896
    7898    7897    7899    7898    7897    7900    7899    7897    7900
    7902    7901    7903    7902    7901    7904    7903    7901    7904
    7906    7905    7907    7906    7905    7908    7907    7905    7908
    7910    7909    7911    7910    7909    7912    7911    7909    7912
    7914    7913    7915    7914    7913    7916    7915    7913    7916
    7918    7917    7919    7918    7917    7920    7919    7917    7920
    7922    7921    7923    7922    7921    7924    7923    7921    7924
    7926    7925    7927    7926    7925    7928    7927    7925    7928
    7930    7929    7931    7930    7929    7932    7931    7929    7932
    7934    7933    7935    7934    7933    7936    7935    7933    7936
    7938    7937    7939    7938    7937    7940    7939    7937    7940
    7942    7941    7943    7942    7941    7944    7943    7941    7944
    7946    7945    7947    7946    7945    7948    7947    7945    7948
    7950    7949    7951    7950    7949    7952    7951    7949    7952
    7954    7953    7955    7954    7953    7956    7955    7953    7956
    7958    7957    7959    7958    7957    7960    7959    7957    7960
    7962    7961    7963    7962    7961    7964    7963    7961    7964
    7966    7965    7967    7966    7965    7968    7967    7965    7968
    7970    7969    7971    7970    7969    7972    7971    7969    7972
    7974    7973    7975    7974    7973    7976    7975    7973    7976
    7978    7977    7979    7978    7977    7980    7979    7977    7980
    7982    7981    7983    7982    7981    7984    7983    7981    7984
    7986    7985    7987    7986    7985    7988    7987    7985    7988
    7990    7989    7991    7990    7989    7992    7991    7989    7992
    7994    7993    7995    7994    7993    7996    7995    7993    7996
    7998    7997    7999    7998    7997    8000    7999    7997    8000
    8002    8001    8003    8002    8001    8004    8003    8001    8004
    8006    8005    8007    8006    8005    8008    8007    8005    8008
    8010    8009    8011    8010    8009    8012    8011    8009    8012
    8014    8013    8015    8014    8013    8016    8015    8013    8016
    8018    8017    8019    8018    8017    8020    8019    8017    8020
    8022    8021    8023    8022    8021    8024    8023    8021    8024
    8026    8025    8027    8026    8025    8028    8027    8025    8028
    8030    8029    8031    8030    8029    8032    8031    8029    8032
    8034    8033    8035    8034    8033    8036    8035    8033    8036
    8038    8037    8039    8038    8037    8040    8039    8037    8040
    8042    8041    8043    8042    8041    8044    8043    8041    8044
    8046    8045    8047    8046    8045    8048    8047    8045    8048
    8050    8049    8051    8050    8049    8052    8051    8049    8052
    8054    8053    8055    8054    8053    8056    8055    8053    8056
    8058    8057    8059    8058    8057    8060    8059    8057    8060
    8062    8061    8063    8062    8061    8064    8063    8061    8064
    8066    8065    8067    8066    8065    8068    8067    8065    8068
    8070    8069    8071    8070    8069    8072    8071    8069    8072
    8074    8073    8075    8074    8073    8076    8075    8073    8076
    8078    8077    8079    8078    8077    8080    8079    8077    8080
    8082    8081    8083    8082    8081    8084    8083    8081    8084
    8086    8085    8087    8086    8085    8088    8087    8085    8088
    8090    8089    8091    8090    8089    8092    8091    8089    8092
    8094    8093    8095    8094    8093    8096    8095    8093    8096
    8098    8097    8099    8098    8097    8100    8099    8097    8100
    8102    8101    8103    8102    8101    8104    8103    8101    8104
    8106    8105    8107    8106    8105    8108    8107    8105    8108
    8110    8109    8111    8110    8109    8112    8111    8109    8112
    8114    8113    8115    8114    8113    8116    8115    8113    8116
    8118    8117    8119    8118    8117    8120    8119    8117    8120
    8122    8121    8123    8122    8121    8124    8123    8121    8124
    8126    8125    8127    8126    8125    8128    8127    8125    8128
    8130    8129    8131    8130    8129    8132    8131    8129    8132
    8134    8133    8135    8134    8133    8136    8135    8133    8136
    8138    8137    8139    8138    8137    8140    8139    8137    8140
    8142    8141    8143    8142    8141    8144    8143    8141    8144
    8146    8145    8147    8146    8145    8148    8147    8145    8148
    8150    8149    8151    8150    8149    8152    8151    8149    8152
    8154    8153    8155    8154    8153    8156    8155    8153    8156
    8158    8157    8159    8158    8157    8160    8159    8157    8160
    8162    8161    8163    8162    8161    8164    8163    8161    8164
    8166    8165    8167    8166    8165    8168    8167    8165    8168
    8170    8169    8171    8170    8169    8172    8171    8169    8172
    8174    8173    8175    8174    8173    8176    8175    8173    8176
    8178    8177    8179    8178    8177    8180    8179    8177    8180
    8182    8181    8183    8182    8181    8184    8183    8181    8184
    8186    8185    8187    8186    8185    8188    8187    8185    8188
    8190    8189    8191    8190    8189    8192    8191    8189    8192
    8194    8193    8195    8194    8193    8196    8195    8193    8196
    8198    8197    8199    8198    8197    8200    8199    8197    8200
    8202    8201    8203    8202    8201    8204    8203    8201    8204
    8206    8205    8207    8206    8205    8208    8207    8205    8208
    8210    8209    8211    8210    8209    8212    8211    8209    8212
    8214    8213    8215    8214    8213    8216    8215    8213    8216
    8218    8217    8219    8218    8217    8220    8219    8217    8220
    8222    8221    8223    8222    8221    8224    8223    8221    8224
    8226    8225    8227    8226    8225    8228    8227    8225    8228
    8230    8229    8231    8230    8229    8232    8231    8229    8232
    8234    8233    8235    8234    8233    8236    8235    8233    8236
    8238    8237    8239    8238    8237    8240    8239    8237    8240
    8242    8241    8243    8242    8241    8244    8243    8241    8244
    8246    8245    8247    8246    8245    8248    8247    8245    8248
    8250    8249    8251    8250    8249    8252    8251    8249    8252
    8254    8253    8255    8254    8253    8256    8255    8253    8256
    8258    8257    8259    8258    8257    8260    8259    8257    8260
    8262    8261    8263    8262    8261    8264    8263    8261    8264
    8266    8265    8267    8266    8265    8268    8267    8265    8268
    8270    8269    8271    8270    8269    8272    8271    8269    8272
    8274    8273    8275    8274    8273    8276    8275    8273    8276
    8278    8277    8279    8278    8277    8280    8279    8277    8280
    8282    8281    8283    8282    8281    8284    8283    8281    8284
    8286    8285    8287    8286    8285    8288    8287    8285    8288
    8290    8289    8291    8290    8289    8292    8291    8289    8292
    8294    8293    8295    8294    8293    8296    8295    8293    8296
    8298    8297    8299    8298    8297    8300    8299    8297    8300
    8302    8301    8303    8302    8301    8304    8303    8301    8304
    8306    8305    8307    8306    8305    8308    8307    8305    8308
    8310    8309    8311    8310    8309    8312    8311    8309    8312
    8314    8313    8315    8314    8313    8316    8315    8313    8316
    8318    8317    8319    8318    8317    8320    8319    8317    8320
    8322    8321    8323    8322    8321    8324    8323    8321    8324
    8326    8325    8327    8326    8325    8328    8327    8325    8328
    8330    8329    8331    8330    8329    8332    8331    8329    8332
    8334    8333    8335    8334    8333    8336    8335    8333    8336
    8338    8337    8339    8338    8337    8340    8339    8337    8340
    8342    8341    8343    8342    8341    8344    8343    8341    8344
    8346    8345    8347    8346    8345    8348    8347    8345    8348
    8350    8349    8351    8350    8349    8352    8351    8349    8352
    8354    8353    8355    8354    8353    8356    8355    8353    8356
    8358    8357    8359    8358    8357    8360    8359    8357    8360
    8362    8361    8363    8362    8361    8364    8363    8361    8364
    8366    8365    8367    8366    8365    8368    8367    8365    8368
    8370    8369    8371    8370    8369    8372    8371    8369    8372
    8374    8373    8375    8374    8373    8376    8375    8373    8376
    8378    8377    8379    8378    8377    8380    8379    8377    8380
    8382    8381    8383    8382    8381    8384    8383    8381    8384
    8386    8385    8387    8386    8385    8388    8387    8385    8388
    8390    8389    8391    8390    8389    8392    8391    8389    8392
    8394    8393    8395    8394    8393    8396    8395    8393    8396
    8398    8397    8399    8398    8397    8400    8399    8397    8400
    8402    8401    8403    8402    8401    8404    8403    8401    8404
    8406    8405    8407    8406    8405    8408    8407    8405    8408
    8410    8409    8411    8410    8409    8412    8411    8409    8412
    8414    8413    8415    8414    8413    8416    8415    8413    8416
    8418    8417    8419    8418    8417    8420    8419    8417    8420
    8422    8421    8423    8422    8421    8424    8423    8421    8424
    8426    8425    8427    8426    8425    8428    8427    8425    8428
    8430    8429    8431    8430    8429    8432    8431    8429    8432
    8434    8433    8435    8434    8433    8436    8435    8433    8436
    8438    8437    8439    8438    8437    8440    8439    8437    8440
    8442    8441    8443    8442    8441    8444    8443    8441    8444
    8446    8445    8447    8446    8445    8448    8447    8445    8448
    8450    8449    8451    8450    8449    8452    8451    8449    8452
    8454    8453    8455    8454    8453    8456    8455    8453    8456
    8458    8457    8459    8458    8457    8460    8459    8457    8460
    8462    8461    8463    8462    8461    8464    8463    8461    8464
    8466    8465    8467    8466    8465    8468    8467    8465    8468
    8470    8469    8471    8470    8469    8472    8471    8469    8472
    8474    8473    8475    8474    8473    8476    8475    8473    8476
    8478    8477    8479    8478    8477    8480    8479    8477    8480
    8482    8481    8483    8482    8481    8484    8483    8481    8484
    8486    8485    8487    8486    8485    8488    8487    8485    8488
    8490    8489    8491    8490    8489    8492    8491    8489    8492
    8494    8493    8495    8494    8493    8496    8495    8493    8496
    8498    8497    8499    8498    8497    8500    8499    8497    8500
    8502    8501    8503    8502    8501    8504    8503    8501    8504
    8506    8505    8507    8506    8505    8508    8507    8505    8508
    8510    8509    8511    8510    8509    8512    8511    8509    8512
    8514    8513    8515    8514    8513    8516    8515    8513    8516
    8518    8517    8519    8518    8517    8520    8519    8517    8520
    8522    8521    8523    8522    8521    8524    8523    8521    8524
    8526    8525    8527    8526    8525    8528    8527    8525    8528
    8530    8529    8531    8530    8529    8532    8531    8529    8532
    8534    8533    8535    8534    8533    8536    8535    8533    8536
    8538    8537    8539    8538    8537    8540    8539    8537    8540
    8542    8541    8543    8542    8541    8544    8543    8541    8544
    8546    8545    8547    8546    8545    8548    8547    8545    8548
    8550    8549    8551    8550    8549    8552    8551    8549    8552
    8554    8553    8555    8554    8553    8556    8555    8553    8556
    8558    8557    8559    8558    8557    8560    8559    8557    8560
    8562    8561    8563    8562    8561    8564    8563    8561    8564
    8566    8565    8567    8566    8565    8568    8567    8565    8568
    8570    8569    8571    8570    8569    8572    8571    8569    8572
    8574    8573    8575    8574    8573    8576    8575    8573    8576
    8578    8577    8579    8578    8577    8580    8579    8577    8580
    8582    8581    8583    8582    8581    8584    8583    8581    8584
    8586    8585    8587    8586    8585    8588    8587    8585    8588
    8590    8589    8591    8590    8589    8592    8591    8589    8592
    8594    8593    8595    8594    8593    8596    8595    8593    8596
    8598    8597    8599    8598    8597    8600    8599    8597    8600
    8602    8601    8603    8602    8601    8604    8603    8601    8604
    8606    8605    8607    8606    8605    8608    8607    8605    8608
    8610    8609    8611    8610    8609    8612    8611    8609    8612
    8614    8613    8615    8614    8613    8616    8615    8613    8616
    8618    8617    8619    8618    8617    8620    8619    8617    8620
    8622    8621    8623    8622    8621    8624    8623    8621    8624
    8626    8625    8627    8626    8625    8628    8627    8625    8628
    8630    8629    8631    8630    8629    8632    8631    8629    8632
    8634    8633    8635    8634    8633    8636    8635    8633    8636
    8638    8637    8639    8638    8637    8640    8639    8637    8640
    8642    8641    8643    8642    8641    8644    8643    8641    8644
    8646    8645    8647    8646    8645    8648    8647    8645    8648
    8650    8649    8651    8650    8649    8652    8651    8649    8652
    8654    8653    8655    8654    8653    8656    8655    8653    8656
    8658    8657    8659    8658    8657    8660    8659    8657    8660
    8662    8661    8663    8662    8661    8664    8663    8661    8664
    8666    8665    8667    8666    8665    8668    8667    8665    8668
    8670    8669    8671    8670    8669    8672    8671    8669    8672
    8674    8673    8675    8674    8673    8676    8675    8673    8676
    8678    8677    8679    8678    8677    8680    8679    8677    8680
    8682    8681    8683    8682    8681    8684    8683    8681    8684
    8686    8685    8687    8686    8685    8688    8687    8685    8688
    8690    8689    8691    8690    8689    8692    8691    8689    8692
    8694    8693    8695    8694    8693    8696    8695    8693    8696
    8698    8697    8699    8698    8697    8700    8699    8697    8700
    8702    8701    8703    8702    8701    8704    8703    8701    8704
    8706    8705    8707    8706    8705    8708    8707    8705    8708
    8710    8709    8711    8710    8709    8712    8711    8709    8712
    8714    8713    8715    8714    8713    8716    8715    8713    8716
    8718    8717    8719    8718    8717    8720    8719    8717    8720
    8722    8721    8723    8722    8721    8724    8723    8721    8724
    8726    8725    8727    8726    8725    8728    8727    8725    8728
    8730    8729    8731    8730    8729    8732    8731    8729    8732
    8734    8733    8735    8734    8733    8736    8735    8733    8736
    8738    8737    8739    8738    8737    8740    8739    8737    8740
    8742    8741    8743    8742    8741    8744    8743    8741    8744
    8746    8745    8747    8746    8745    8748    8747    8745    8748
    8750    8749    8751    8750    8749    8752    8751    8749    8752
    8754    8753    8755    8754    8753    8756    8755    8753    8756
    8758    8757    8759    8758    8757    8760    8759    8757    8760
    8762    8761    8763    8762    8761    8764    8763    8761    8764
    8766    8765    8767    8766    8765    8768    8767    8765    8768
    8770    8769    8771    8770    8769    8772    8771    8769    8772
    8774    8773    8775    8774    8773    8776    8775    8773    8776
    8778    8777    8779    8778    8777    8780    8779    8777    8780
    8782    8781    8783    8782    8781    8784    8783    8781    8784
    8786    8785    8787    8786    8785    8788    8787    8785    8788
    8790    8789    8791    8790    8789    8792    8791    8789    8792
    8794    8793    8795    8794    8793    8796    8795    8793    8796
    8798    8797    8799    8798    8797    8800    8799    8797    8800
    8802    8801    8803    8802    8801    8804    8803    8801    8804
    8806    8805    8807    8806    8805    8808    8807    8805    8808
    8810    8809    8811    8810    8809    8812    8811    8809    8812
    8814    8813    8815    8814    8813    8816    8815    8813    8816
    8818    8817    8819    8818    8817    8820    8819    8817    8820
    8822    8821    8823    8822    8821    8824    8823    8821    8824
    8826    8825    8827    8826    8825    8828    8827    8825    8828
    8830    8829    8831    8830    8829    8832    8831    8829    8832
    8834    8833    8835    8834    8833    8836    8835    8833    8836
    8838    8837    8839    8838    8837    8840    8839    8837    8840
    8842    8841    8843    8842    8841    8844    8843    8841    8844
    8846    8845    8847    8846    8845    8848    8847    8845    8848
    8850    8849    8851    8850    8849    8852    8851    8849    8852
    8854    8853    8855    8854    8853    8856    8855    8853    8856
    8858    8857    8859    8858    8857    8860    8859    8857    8860
    8862    8861    8863    8862    8861    8864    8863    8861    8864
    8866    8865    8867    8866    8865    8868    8867    8865    8868
    8870    8869    8871    8870    8869    8872    8871    8869    8872
    8874    8873    8875    8874    8873    8876    8875    8873    8876
    8878    8877    8879    8878    8877    8880    8879    8877    8880
    8882    8881    8883    8882    8881    8884    8883    8881    8884
    8886    8885    8887    8886    8885    8888    8887    8885    8888
    8890    8889    8891    8890    8889    8892    8891    8889    8892
    8894    8893    8895    8894    8893    8896    8895    8893    8896
    8898    8897    8899    8898    8897    8900    8899    8897    8900
    8902    8901    8903    8902    8901    8904    8903    8901    8904
    8906    8905    8907    8906    8905    8908    8907    8905    8908
    8910    8909    8911    8910    8909    8912    8911    8909    8912
    8914    8913    8915    8914    8913    8916    8915    8913    8916
    8918    8917    8919    8918    8917    8920    8919    8917    8920
    8922    8921    8923    8922    8921    8924    8923    8921    8924
    8926    8925    8927    8926    8925    8928    8927    8925    8928
    8930    8929    8931    8930    8929    8932    8931    8929    8932
    8934    8933    8935    8934    8933    8936    8935    8933    8936
    8938    8937    8939    8938    8937    8940    8939    8937    8940
    8942    8941    8943    8942    8941    8944    8943    8941    8944
    8946    8945    8947    8946    8945    8948    8947    8945    8948
    8950    8949    8951    8950    8949    8952    8951    8949    8952
    8954    8953    8955    8954    8953    8956    8955    8953    8956
    8958    8957    8959    8958    8957    8960    8959    8957    8960
    8962    8961    8963    8962    8961    8964    8963    8961    8964
    8966    8965    8967    8966    8965    8968    8967    8965    8968
    8970    8969    8971    8970    8969    8972    8971    8969    8972
    8974    8973    8975    8974    8973    8976    8975    8973    8976
    8978    8977    8979    8978    8977    8980    8979    8977    8980
    8982    8981    8983    8982    8981    8984    8983    8981    8984
    8986    8985    8987    8986    8985    8988    8987    8985    8988
    8990    8989    8991    8990    8989    8992    8991    8989    8992
    8994    8993    8995    8994    8993    8996    8995    8993    8996
    8998    8997    8999    8998    8997    9000    8999    8997    9000
    9002    9001    9003    9002    9001    9004    9003    9001    9004
    9006    9005    9007    9006    9005    9008    9007    9005    9008
    9010    9009    9011    9010    9009    9012    9011    9009    9012
    9014    9013    9015    9014    9013    9016    9015    9013    9016
    9018    9017    9019    9018    9017    9020    9019    9017    9020
    9022    9021    9023    9022    9021    9024    9023    9021    9024
    9026    9025    9027    9026    9025    9028    9027    9025    9028
    9030    9029    9031    9030    9029    9032    9031    9029    9032
    9034    9033    9035    9034    9033    9036    9035    9033    9036
    9038    9037    9039    9038    9037    9040    9039    9037    9040
    9042    9041    9043    9042    9041    9044    9043    9041    9044
    9046    9045    9047    9046    9045    9048    9047    9045    9048
    9050    9049    9051    9050    9049    9052    9051    9049    9052
    9054    9053    9055    9054    9053    9056    9055    9053    9056
    9058    9057    9059    9058    9057    9060    9059    9057    9060
    9062    9061    9063    9062    9061    9064    9063    9061    9064
    9066    9065    9067    9066    9065    9068    9067    9065    9068
    9070    9069    9071    9070    9069    9072    9071    9069    9072
    9074    9073    9075    9074    9073    9076    9075    9073    9076
    9078    9077    9079    9078    9077    9080    9079    9077    9080
    9082    9081    9083    9082    9081    9084    9083    9081    9084
    9086    9085    9087    9086    9085    9088    9087    9085    9088
    9090    9089    9091    9090    9089    9092    9091    9089    9092
    9094    9093    9095    9094    9093    9096    9095    9093    9096
    9098    9097    9099    9098    9097    9100    9099    9097    9100
    9102    9101    9103    9102    9101    9104    9103    9101    9104
    9106    9105    9107    9106    9105    9108    9107    9105    9108
    9110    9109    9111    9110    9109    9112    9111    9109    9112
    9114    9113    9115    9114    9113    9116    9115    9113    9116
    9118    9117    9119    9118    9117    9120    9119    9117    9120
    9122    9121    9123    9122    9121    9124    9123    9121    9124
    9126    9125    9127    9126    9125    9128    9127    9125    9128
    9130    9129    9131    9130    9129    9132    9131    9129    9132
    9134    9133    9135    9134    9133    9136    9135    9133    9136
    9138    9137    9139    9138    9137    9140    9139    9137    9140
    9142    9141    9143    9142    9141    9144    9143    9141    9144
    9146    9145    9147    9146    9145    9148    9147    9145    9148
    9150    9149    9151    9150    9149    9152    9151    9149    9152
    9154    9153    9155    9154    9153    9156    9155    9153    9156
    9158    9157    9159    9158    9157    9160    9159    9157    9160
    9162    9161    9163    9162    9161    9164    9163    9161    9164
    9166    9165    9167    9166    9165    9168    9167    9165    9168
    9170    9169    9171    9170    9169    9172    9171    9169    9172
    9174    9173    9175    9174    9173    9176    9175    9173    9176
    9178    9177    9179    9178    9177    9180    9179    9177    9180
    9182    9181    9183    9182    9181    9184    9183    9181    9184
    9186    9185    9187    9186    9185    9188    9187    9185    9188
    9190    9189    9191    9190    9189    9192    9191    9189    9192
    9194    9193    9195    9194    9193    9196    9195    9193    9196
    9198    9197    9199    9198    9197    9200    9199    9197    9200
    9202    9201    9203    9202    9201    9204    9203    9201    9204
    9206    9205    9207    9206    9205    9208    9207    9205    9208
    9210    9209    9211    9210    9209    9212    9211    9209    9212
    9214    9213    9215    9214    9213    9216    9215    9213    9216
    9218    9217    9219    9218    9217    9220    9219    9217    9220
    9222    9221    9223    9222    9221    9224    9223    9221    9224
    9226    9225    9227    9226    9225    9228    9227    9225    9228
    9230    9229    9231    9230    9229    9232    9231    9229    9232
    9234    9233    9235    9234    9233    9236    9235    9233    9236
    9238    9237    9239    9238    9237    9240    9239    9237    9240
    9242    9241    9243    9242    9241    9244    9243    9241    9244
    9246    9245    9247    9246    9245    9248    9247    9245    9248
    9250    9249    9251    9250    9249    9252    9251    9249    9252
    9254    9253    9255    9254    9253    9256    9255    9253    9256
    9258    9257    9259    9258    9257    9260    9259    9257    9260
    9262    9261    9263    9262    9261    9264    9263    9261    9264
    9266    9265    9267    9266    9265    9268    9267    9265    9268
    9270    9269    9271    9270    9269    9272    9271    9269    9272
    9274    9273    9275    9274    9273    9276    9275    9273    9276
    9278    9277    9279    9278    9277    9280    9279    9277    9280
    9282    9281    9283    9282    9281    9284    9283    9281    9284
    9286    9285    9287    9286    9285    9288    9287    9285    9288
    9290    9289    9291    9290    9289    9292    9291    9289    9292
    9294    9293    9295    9294    9293    9296    9295    9293    9296
    9298    9297    9299    9298    9297    9300    9299    9297    9300
    9302    9301    9303    9302    9301    9304    9303    9301    9304
    9306    9305    9307    9306    9305    9308    9307    9305    9308
    9310    9309    9311    9310    9309    9312    9311    9309    9312
    9314    9313    9315    9314    9313    9316    9315    9313    9316
    9318    9317    9319    9318    9317    9320    9319    9317    9320
    9322    9321    9323    9322    9321    9324    9323    9321    9324
    9326    9325    9327    9326    9325    9328    9327    9325    9328
    9330    9329    9331    9330    9329    9332    9331    9329    9332
    9334    9333    9335    9334    9333    9336    9335    9333    9336
    9338    9337    9339    9338    9337    9340    9339    9337    9340
    9342    9341    9343    9342    9341    9344    9343    9341    9344
    9346    9345    9347    9346    9345    9348    9347    9345    9348
    9350    9349    9351    9350    9349    9352    9351    9349    9352
    9354    9353    9355    9354    9353    9356    9355    9353    9356
    9358    9357    9359    9358    9357    9360    9359    9357    9360
    9362    9361    9363    9362    9361    9364    9363    9361    9364
    9366    9365    9367    9366    9365    9368    9367    9365    9368
    9370    9369    9371    9370    9369    9372    9371    9369    9372
    9374    9373    9375    9374    9373    9376    9375    9373    9376
    9378    9377    9379    9378    9377    9380    9379    9377    9380
    9382    9381    9383    9382    9381    9384    9383    9381    9384
    9386    9385    9387    9386    9385    9388    9387    9385    9388
    9390    9389    9391    9390    9389    9392    9391    9389    9392
    9394    9393    9395    9394    9393    9396    9395    9393    9396
    9398    9397    9399    9398    9397    9400    9399    9397    9400
    9402    9401    9403    9402    9401    9404    9403    9401    9404
    9406    9405    9407    9406    9405    9408    9407    9405    9408
    9410    9409    9411    9410    9409    9412    9411    9409    9412
    9414    9413    9415    9414    9413    9416    9415    9413    9416
    9418    9417    9419    9418    9417    9420    9419    9417    9420
    9422    9421    9423    9422    9421    9424    9423    9421    9424
    9426    9425    9427    9426    9425    9428    9427    9425    9428
    9430    9429    9431    9430    9429    9432    9431    9429    9432
    9434    9433    9435    9434    9433    9436    9435    9433    9436
    9438    9437    9439    9438    9437    9440    9439    9437    9440
    9442    9441    9443    9442    9441    9444    9443    9441    9444
    9446    9445    9447    9446    9445    9448    9447    9445    9448
    9450    9449    9451    9450    9449    9452    9451    9449    9452
    9454    9453    9455    9454    9453    9456    9455    9453    9456
    9458    9457    9459    9458    9457    9460    9459    9457    9460
    9462    9461    9463    9462    9461    9464    9463    9461    9464
    9466    9465    9467    9466    9465    9468    9467    9465    9468
    9470    9469    9471    9470    9469    9472    9471    9469    9472
    9474    9473    9475    9474    9473    9476    9475    9473    9476
    9478    9477    9479    9478    9477    9480    9479    9477    9480
    9482    9481    9483    9482    9481    9484    9483    9481    9484
    9486    9485    9487    9486    9485    9488    9487    9485    9488
    9490    9489    9491    9490    9489    9492    9491    9489    9492
    9494    9493    9495    9494    9493    9496    9495    9493    9496
    9498    9497    9499    9498    9497    9500    9499    9497    9500
    9502    9501    9503    9502    9501    9504    9503    9501    9504
    9506    9505    9507    9506    9505    9508    9507    9505    9508
    9510    9509    9511    9510    9509    9512    9511    9509    9512
    9514    9513    9515    9514    9513    9516    9515    9513    9516
    9518    9517    9519    9518    9517    9520    9519    9517    9520
    9522    9521    9523    9522    9521    9524    9523    9521    9524
    9526    9525    9527    9526    9525    9528    9527    9525    9528
    9530    9529    9531    9530    9529    9532    9531    9529    9532
    9534    9533    9535    9534    9533    9536    9535    9533    9536
    9538    9537    9539    9538    9537    9540    9539    9537    9540
    9542    9541    9543    9542    9541    9544    9543    9541    9544
    9546    9545    9547    9546    9545    9548    9547    9545    9548
    9550    9549    9551    9550    9549    9552    9551    9549    9552
    9554    9553    9555    9554    9553    9556    9555    9553    9556
    9558    9557    9559    9558    9557    9560    9559    9557    9560
    9562    9561    9563    9562    9561    9564    9563    9561    9564
    9566    9565    9567    9566    9565    9568    9567    9565    9568
    9570    9569    9571    9570    9569    9572    9571    9569    9572
    9574    9573    9575    9574    9573    9576    9575    9573    9576
    9578    9577    9579    9578    9577    9580    9579    9577    9580
    9582    9581    9583    9582    9581    9584    9583    9581    9584
    9586    9585    9587    9586    9585    9588    9587    9585    9588
    9590    9589    9591    9590    9589    9592    9591    9589    9592
    9594    9593    9595    9594    9593    9596    9595    9593    9596
    9598    9597    9599    9598    9597    9600    9599    9597    9600
    9602    9601    9603    9602    9601    9604    9603    9601    9604
    9606    9605    9607    9606    9605    9608    9607    9605    9608
    9610    9609    9611    9610    9609    9612    9611    9609    9612
    9614    9613    9615    9614    9613    9616    9615    9613    9616
    9618    9617    9619    9618    9617    9620    9619    9617    9620
    9622    9621    9623    9622    9621    9624    9623    9621    9624
    9626    9625    9627    9626    9625    9628    9627    9625    9628
    9630    9629    9631    9630    9629    9632    9631    9629    9632
    9634    9633    9635    9634    9633    9636    9635    9633    9636
    9638    9637    9639    9638    9637    9640    9639    9637    9640
    9642    9641    9643    9642    9641    9644    9643    9641    9644
    9646    9645    9647    9646    9645    9648    9647    9645    9648
    9650    9649    9651    9650    9649    9652    9651    9649    9652
    9654    9653    9655    9654    9653    9656    9655    9653    9656
    9658    9657    9659    9658    9657    9660    9659    9657    9660
    9662    9661    9663    9662    9661    9664    9663    9661    9664
    9666    9665    9667    9666    9665    9668    9667    9665    9668
    9670    9669    9671    9670    9669    9672    9671    9669    9672
    9674    9673    9675    9674    9673    9676    9675    9673    9676
    9678    9677    9679    9678    9677    9680    9679    9677    9680
    9682    9681    9683    9682    9681    9684    9683    9681    9684
    9686    9685    9687    9686    9685    9688    9687    9685    9688
    9690    9689    9691    9690    9689    9692    9691    9689    9692
    9694    9693    9695    9694    9693    9696    9695    9693    9696
    9698    9697    9699    9698    9697    9700    9699    9697    9700
    9702    9701    9703    9702    9701    9704    9703    9701    9704
    9706    9705    9707    9706    9705    9708    9707    9705    9708
    9710    9709    9711    9710    9709    9712    9711    9709    9712
    9714    9713    9715    9714    9713    9716    9715    9713    9716
    9718    9717    9719    9718    9717    9720    9719    9717    9720
    9722    9721    9723    9722    9721    9724    9723    9721    9724
    9726    9725    9727    9726    9725    9728    9727    9725    9728
    9730    9729    9731    9730    9729    9732    9731    9729    9732
    9734    9733    9735    9734    9733    9736    9735    9733    9736
    9738    9737    9739    9738    9737    9740    9739    9737    9740
    9742    9741    9743    9742    9741    9744    9743    9741    9744
    9746    9745    9747    9746    9745    9748    9747    9745    9748
    9750    9749    9751    9750    9749    9752    9751    9749    9752
    9754    9753    9755    9754    9753    9756    9755    9753    9756
    9758    9757    9759    9758    9757    9760    9759    9757    9760
    9762    9761    9763    9762    9761    9764    9763    9761    9764
    9766    9765    9767    9766    9765    9768    9767    9765    9768
    9770    9769    9771    9770    9769    9772    9771    9769    9772
    9774    9773    9775    9774    9773    9776    9775    9773    9776
    9778    9777    9779    9778    9777    9780    9779    9777    9780
    9782    9781    9783    9782    9781    9784    9783    9781    9784
    9786    9785    9787    9786    9785    9788    9787    9785    9788
    9790    9789    9791    9790    9789    9792    9791    9789    9792
    9794    9793    9795    9794    9793    9796    9795    9793    9796
    9798    9797    9799    9798    9797    9800    9799    9797    9800
    9802    9801    9803    9802    9801    9804    9803    9801    9804
    9806    9805    9807    9806    9805    9808    9807    9805    9808
    9810    9809    9811    9810    9809    9812    9811    9809    9812
    9814    9813    9815    9814    9813    9816    9815    9813    9816
    9818    9817    9819    9818    9817    9820    9819    9817    9820
    9822    9821    9823    9822    9821    9824    9823    9821    9824
    9826    9825    9827    9826    9825    9828    9827    9825    9828
    9830    9829    9831    9830    9829    9832    9831    9829    9832
    9834    9833    9835    9834    9833    9836    9835    9833    9836
    9838    9837    9839    9838    9837    9840    9839    9837    9840
    9842    9841    9843    9842    9841    9844    9843    9841    9844
    9846    9845    9847    9846    9845    9848    9847    9845    9848
    9850    9849    9851    9850    9849    9852    9851    9849    9852
    9854    9853    9855    9854    9853    9856    9855    9853    9856
    9858    9857    9859    9858    9857    9860    9859    9857    9860
    9862    9861    9863    9862    9861    9864    9863    9861    9864
    9866    9865    9867    9866    9865    9868    9867    9865    9868
    9870    9869    9871    9870    9869    9872    9871    9869    9872
    9874    9873    9875    9874    9873    9876    9875    9873    9876
    9878    9877    9879    9878    9877    9880    9879    9877    9880
    9882    9881    9883    9882    9881    9884    9883    9881    9884
    9886    9885    9887    9886    9885    9888    9887    9885    9888
    9890    9889    9891    9890    9889    9892    9891    9889    9892
    9894    9893    9895    9894    9893    9896    9895    9893    9896
    9898    9897    9899    9898    9897    9900    9899    9897    9900
    9902    9901    9903    9902    9901    9904    9903    9901    9904
    9906    9905    9907    9906    9905    9908    9907    9905    9908
    9910    9909    9911    9910    9909    9912    9911    9909    9912
    9914    9913    9915    9914    9913    9916    9915    9913    9916
    9918    9917    9919    9918    9917    9920    9919    9917    9920
    9922    9921    9923    9922    9921    9924    9923    9921    9924
    9926    9925    9927    9926    9925    9928    9927    9925    9928
    9930    9929    9931    9930    9929    9932    9931    9929    9932
    9934    9933    9935    9934    9933    9936    9935    9933    9936
    9938    9937    9939    9938    9937    9940    9939    9937    9940
    9942    9941    9943    9942    9941    9944    9943    9941    9944
    9946    9945    9947    9946    9945    9948    9947    9945    9948
    9950    9949    9951    9950    9949    9952    9951    9949    9952
    9954    9953    9955    9954    9953    9956    9955    9953    9956
    9958    9957    9959    9958    9957    9960    9959    9957    9960
    9962    9961    9963    9962    9961    9964    9963    9961    9964
    9966    9965    9967    9966    9965    9968    9967    9965    9968
    9970    9969    9971    9970    9969    9972    9971    9969    9972
    9974    9973    9975    9974    9973    9976    9975    9973    9976
    9978    9977    9979    9978    9977    9980    9979    9977    9980
    9982    9981    9983    9982    9981    9984    9983    9981    9984
    9986    9985    9987    9986    9985    9988    9987    9985    9988
    9990    9989    9991    9990    9989    9992    9991    9989    9992
    9994    9993    9995    9994    9993    9996    9995    9993    9996
    9998    9997    9999    9998    9997   10000    9999    9997   10000
   10002   10001   10003   10002   10001   10004   10003   10001   10004
   10006   10005   10007   10006   10005   10008   10007   10005   10008
   10010   10009   10011   10010   10009   10012   10011   10009   10012
   10014   10013   10015   10014   10013   10016   10015   10013   10016
   10018   10017   10019   10018   10017   10020   10019   10017   10020
   10022   10021   10023   10022   10021   10024   10023   10021   10024
   10026   10025   10027   10026   10025   10028   10027   10025   10028
   10030   10029   10031   10030   10029   10032   10031   10029   10032
   10034   10033   10035   10034   10033   10036   10035   10033   10036
   10038   10037   10039   10038   10037   10040   10039   10037   10040
   10042   10041   10043   10042   10041   10044   10043   10041   10044
   10046   10045   10047   10046   10045   10048   10047   10045   10048
   10050   10049   10051   10050   10049   10052   10051   10049   10052
   10054   10053   10055   10054   10053   10056   10055   10053   10056
   10058   10057   10059   10058   10057   10060   10059   10057   10060
   10062   10061   10063   10062   10061   10064   10063   10061   10064
   10066   10065   10067   10066   10065   10068   10067   10065   10068
   10070   10069   10071   10070   10069   10072   10071   10069   10072
   10074   10073   10075   10074   10073   10076   10075   10073   10076
   10078   10077   10079   10078   10077   10080   10079   10077   10080
   10082   10081   10083   10082   10081   10084   10083   10081   10084
   10086   10085   10087   10086   10085   10088   10087   10085   10088
   10090   10089   10091   10090   10089   10092   10091   10089   10092
   10094   10093   10095   10094   10093   10096   10095   10093   10096
   10098   10097   10099   10098   10097   10100   10099   10097   10100
   10102   10101   10103   10102   10101   10104   10103   10101   10104
   10106   10105   10107   10106   10105   10108   10107   10105   10108
   10110   10109   10111   10110   10109   10112   10111   10109   10112
   10114   10113   10115   10114   10113   10116   10115   10113   10116
   10118   10117   10119   10118   10117   10120   10119   10117   10120
   10122   10121   10123   10122   10121   10124   10123   10121   10124
   10126   10125   10127   10126   10125   10128   10127   10125   10128
   10130   10129   10131   10130   10129   10132   10131   10129   10132
   10134   10133   10135   10134   10133   10136   10135   10133   10136
   10138   10137   10139   10138   10137   10140   10139   10137   10140
   10142   10141   10143   10142   10141   10144   10143   10141   10144
   10146   10145   10147   10146   10145   10148   10147   10145   10148
   10150   10149   10151   10150   10149   10152   10151   10149   10152
   10154   10153   10155   10154   10153   10156   10155   10153   10156
   10158   10157   10159   10158   10157   10160   10159   10157   10160
   10162   10161   10163   10162   10161   10164   10163   10161   10164
   10166   10165   10167   10166   10165   10168   10167   10165   10168
   10170   10169   10171   10170   10169   10172   10171   10169   10172
   10174   10173   10175   10174   10173   10176   10175   10173   10176
   10178   10177   10179   10178   10177   10180   10179   10177   10180
   10182   10181   10183   10182   10181   10184   10183   10181   10184
   10186   10185   10187   10186   10185   10188   10187   10185   10188
   10190   10189   10191   10190   10189   10192   10191   10189   10192
   10194   10193   10195   10194   10193   10196   10195   10193   10196
   10198   10197   10199   10198   10197   10200   10199   10197   10200
   10202   10201   10203   10202   10201   10204   10203   10201   10204
   10206   10205   10207   10206   10205   10208   10207   10205   10208
   10210   10209   10211   10210   10209   10212   10211   10209   10212
   10214   10213   10215   10214   10213   10216   10215   10213   10216
   10218   10217   10219   10218   10217   10220   10219   10217   10220
   10222   10221   10223   10222   10221   10224   10223   10221   10224
   10226   10225   10227   10226   10225   10228   10227   10225   10228
   10230   10229   10231   10230   10229   10232   10231   10229   10232
   10234   10233   10235   10234   10233   10236   10235   10233   10236
   10238   10237   10239   10238   10237   10240   10239   10237   10240
   10242   10241   10243   10242   10241   10244   10243   10241   10244
   10246   10245   10247   10246   10245   10248   10247   10245   10248
   10250   10249   10251   10250   10249   10252   10251   10249   10252
   10254   10253   10255   10254   10253   10256   10255   10253   10256
   10258   10257   10259   10258   10257   10260   10259   10257   10260
   10262   10261   10263   10262   10261   10264   10263   10261   10264
   10266   10265   10267   10266   10265   10268   10267   10265   10268
   10270   10269   10271   10270   10269   10272   10271   10269   10272
   10274   10273   10275   10274   10273   10276   10275   10273   10276
   10278   10277   10279   10278   10277   10280   10279   10277   10280
   10282   10281   10283   10282   10281   10284   10283   10281   10284
   10286   10285   10287   10286   10285   10288   10287   10285   10288
   10290   10289   10291   10290   10289   10292   10291   10289   10292
   10294   10293   10295   10294   10293   10296   10295   10293   10296
   10298   10297   10299   10298   10297   10300   10299   10297   10300
   10302   10301   10303   10302   10301   10304   10303   10301   10304
   10306   10305   10307   10306   10305   10308   10307   10305   10308
   10310   10309   10311   10310   10309   10312   10311   10309   10312
   10314   10313   10315   10314   10313   10316   10315   10313   10316
   10318   10317   10319   10318   10317   10320   10319   10317   10320
   10322   10321   10323   10322   10321   10324   10323   10321   10324
   10326   10325   10327   10326   10325   10328   10327   10325   10328
   10330   10329   10331   10330   10329   10332   10331   10329   10332
   10334   10333   10335   10334   10333   10336   10335   10333   10336
   10338   10337   10339   10338   10337   10340   10339   10337   10340
   10342   10341   10343   10342   10341   10344   10343   10341   10344
   10346   10345   10347   10346   10345   10348   10347   10345   10348
   10350   10349   10351   10350   10349   10352   10351   10349   10352
   10354   10353   10355   10354   10353   10356   10355   10353   10356
   10358   10357   10359   10358   10357   10360   10359   10357   10360
   10362   10361   10363   10362   10361   10364   10363   10361   10364
   10366   10365   10367   10366   10365   10368   10367   10365   10368
   10370   10369   10371   10370   10369   10372   10371   10369   10372
   10374   10373   10375   10374   10373   10376   10375   10373   10376
   10378   10377   10379   10378   10377   10380   10379   10377   10380
   10382   10381   10383   10382   10381   10384   10383   10381   10384
   10386   10385   10387   10386   10385   10388   10387   10385   10388
   10390   10389   10391   10390   10389   10392   10391   10389   10392
   10394   10393   10395   10394   10393   10396   10395   10393   10396
   10398   10397   10399   10398   10397   10400   10399   10397   10400
   10402   10401   10403   10402   10401   10404   10403   10401   10404
   10406   10405   10407   10406   10405   10408   10407   10405   10408
   10410   10409   10411   10410   10409   10412   10411   10409   10412
   10414   10413   10415   10414   10413   10416   10415   10413   10416
   10418   10417   10419   10418   10417   10420   10419   10417   10420
   10422   10421   10423   10422   10421   10424   10423   10421   10424
   10426   10425   10427   10426   10425   10428   10427   10425   10428
   10430   10429   10431   10430   10429   10432   10431   10429   10432
   10434   10433   10435   10434   10433   10436   10435   10433   10436
   10438   10437   10439   10438   10437   10440   10439   10437   10440
   10442   10441   10443   10442   10441   10444   10443   10441   10444
   10446   10445   10447   10446   10445   10448   10447   10445   10448
   10450   10449   10451   10450   10449   10452   10451   10449   10452
   10454   10453   10455   10454   10453   10456   10455   10453   10456
   10458   10457   10459   10458   10457   10460   10459   10457   10460
   10462   10461   10463   10462   10461   10464   10463   10461   10464
   10466   10465   10467   10466   10465   10468   10467   10465   10468
   10470   10469   10471   10470   10469   10472   10471   10469   10472
   10474   10473   10475   10474   10473   10476   10475   10473   10476
   10478   10477   10479   10478   10477   10480   10479   10477   10480
   10482   10481   10483   10482   10481   10484   10483   10481   10484
   10486   10485   10487   10486   10485   10488   10487   10485   10488
   10490   10489   10491   10490   10489   10492   10491   10489   10492
   10494   10493   10495   10494   10493   10496   10495   10493   10496
   10498   10497   10499   10498   10497   10500   10499   10497   10500
   10502   10501   10503   10502   10501   10504   10503   10501   10504
   10506   10505   10507   10506   10505   10508   10507   10505   10508
   10510   10509   10511   10510   10509   10512   10511   10509   10512
   10514   10513   10515   10514   10513   10516   10515   10513   10516
   10518   10517   10519   10518   10517   10520   10519   10517   10520
   10522   10521   10523   10522   10521   10524   10523   10521   10524
   10526   10525   10527   10526   10525   10528   10527   10525   10528
   10530   10529   10531   10530   10529   10532   10531   10529   10532
   10534   10533   10535   10534   10533   10536   10535   10533   10536
   10538   10537   10539   10538   10537   10540   10539   10537   10540
   10542   10541   10543   10542   10541   10544   10543   10541   10544
   10546   10545   10547   10546   10545   10548   10547   10545   10548
   10550   10549   10551   10550   10549   10552   10551   10549   10552
   10554   10553   10555   10554   10553   10556   10555   10553   10556
   10558   10557   10559   10558   10557   10560   10559   10557   10560
   10562   10561   10563   10562   10561   10564   10563   10561   10564
   10566   10565   10567   10566   10565   10568   10567   10565   10568
   10570   10569   10571   10570   10569   10572   10571   10569   10572
   10574   10573   10575   10574   10573   10576   10575   10573   10576
   10578   10577   10579   10578   10577   10580   10579   10577   10580
   10582   10581   10583   10582   10581   10584   10583   10581   10584
   10586   10585   10587   10586   10585   10588   10587   10585   10588
   10590   10589   10591   10590   10589   10592   10591   10589   10592
   10594   10593   10595   10594   10593   10596   10595   10593   10596
   10598   10597   10599   10598   10597   10600   10599   10597   10600
   10602   10601   10603   10602   10601   10604   10603   10601   10604
   10606   10605   10607   10606   10605   10608   10607   10605   10608
   10610   10609   10611   10610   10609   10612   10611   10609   10612
   10614   10613   10615   10614   10613   10616   10615   10613   10616
   10618   10617   10619   10618   10617   10620   10619   10617   10620
   10622   10621   10623   10622   10621   10624   10623   10621   10624
   10626   10625   10627   10626   10625   10628   10627   10625   10628
   10630   10629   10631   10630   10629   10632   10631   10629   10632
   10634   10633   10635   10634   10633   10636   10635   10633   10636
   10638   10637   10639   10638   10637   10640   10639   10637   10640
   10642   10641   10643   10642   10641   10644   10643   10641   10644
   10646   10645   10647   10646   10645   10648   10647   10645   10648
   10650   10649   10651   10650   10649   10652   10651   10649   10652
   10654   10653   10655   10654   10653   10656   10655   10653   10656
   10658   10657   10659   10658   10657   10660   10659   10657   10660
   10662   10661   10663   10662   10661   10664   10663   10661   10664
   10666   10665   10667   10666   10665   10668   10667   10665   10668
   10670   10669   10671   10670   10669   10672   10671   10669   10672
   10674   10673   10675   10674   10673   10676   10675   10673   10676
   10678   10677   10679   10678   10677   10680   10679   10677   10680
   10682   10681   10683   10682   10681   10684   10683   10681   10684
   10686   10685   10687   10686   10685   10688   10687   10685   10688
   10690   10689   10691   10690   10689   10692   10691   10689   10692
   10694   10693   10695   10694   10693   10696   10695   10693   10696
   10698   10697   10699   10698   10697   10700   10699   10697   10700
   10702   10701   10703   10702   10701   10704   10703   10701   10704
   10706   10705   10707   10706   10705   10708   10707   10705   10708
   10710   10709   10711   10710   10709   10712   10711   10709   10712
   10714   10713   10715   10714   10713   10716   10715   10713   10716
   10718   10717   10719   10718   10717   10720   10719   10717   10720
   10722   10721   10723   10722   10721   10724   10723   10721   10724
   10726   10725   10727   10726   10725   10728   10727   10725   10728
   10730   10729   10731   10730   10729   10732   10731   10729   10732
   10734   10733   10735   10734   10733   10736   10735   10733   10736
   10738   10737   10739   10738   10737   10740   10739   10737   10740
   10742   10741   10743   10742   10741   10744   10743   10741   10744
   10746   10745   10747   10746   10745   10748   10747   10745   10748
   10750   10749   10751   10750   10749   10752   10751   10749   10752
   10754   10753   10755   10754   10753   10756   10755   10753   10756
   10758   10757   10759   10758   10757   10760   10759   10757   10760
   10762   10761   10763   10762   10761   10764   10763   10761   10764
   10766   10765   10767   10766   10765   10768   10767   10765   10768
   10770   10769   10771   10770   10769   10772   10771   10769   10772
   10774   10773   10775   10774   10773   10776   10775   10773   10776
   10778   10777   10779   10778   10777   10780   10779   10777   10780
   10782   10781   10783   10782   10781   10784   10783   10781   10784
   10786   10785   10787   10786   10785   10788   10787   10785   10788
   10790   10789   10791   10790   10789   10792   10791   10789   10792
   10794   10793   10795   10794   10793   10796   10795   10793   10796
   10798   10797   10799   10798   10797   10800   10799   10797   10800
   10802   10801   10803   10802   10801   10804   10803   10801   10804
   10806   10805   10807   10806   10805   10808   10807   10805   10808
   10810   10809   10811   10810   10809   10812   10811   10809   10812
   10814   10813   10815   10814   10813   10816   10815   10813   10816
   10818   10817   10819   10818   10817   10820   10819   10817   10820
   10822   10821   10823   10822   10821   10824   10823   10821   10824
   10826   10825   10827   10826   10825   10828   10827   10825   10828
   10830   10829   10831   10830   10829   10832   10831   10829   10832
   10834   10833   10835   10834   10833   10836   10835   10833   10836
   10838   10837   10839   10838   10837   10840   10839   10837   10840
   10842   10841   10843   10842   10841   10844   10843   10841   10844
   10846   10845   10847   10846   10845   10848   10847   10845   10848
   10850   10849   10851   10850   10849   10852   10851   10849   10852
   10854   10853   10855   10854   10853   10856   10855   10853   10856
   10858   10857   10859   10858   10857   10860   10859   10857   10860
   10862   10861   10863   10862   10861   10864   10863   10861   10864
   10866   10865   10867   10866   10865   10868   10867   10865   10868
   10870   10869   10871   10870   10869   10872   10871   10869   10872
   10874   10873   10875   10874   10873   10876   10875   10873   10876
   10878   10877   10879   10878   10877   10880   10879   10877   10880
   10882   10881   10883   10882   10881   10884   10883   10881   10884
   10886   10885   10887   10886   10885   10888   10887   10885   10888
   10890   10889   10891   10890   10889   10892   10891   10889   10892
   10894   10893   10895   10894   10893   10896   10895   10893   10896
   10898   10897   10899   10898   10897   10900   10899   10897   10900
   10902   10901   10903   10902   10901   10904   10903   10901   10904
   10906   10905   10907   10906   10905   10908   10907   10905   10908
   10910   10909   10911   10910   10909   10912   10911   10909   10912
   10914   10913   10915   10914   10913   10916   10915   10913   10916
   10918   10917   10919   10918   10917   10920   10919   10917   10920
   10922   10921   10923   10922   10921   10924   10923   10921   10924
   10926   10925   10927   10926   10925   10928   10927   10925   10928
   10930   10929   10931   10930   10929   10932   10931   10929   10932
   10934   10933   10935   10934   10933   10936   10935   10933   10936
   10938   10937   10939   10938   10937   10940   10939   10937   10940
   10942   10941   10943   10942   10941   10944   10943   10941   10944
   10946   10945   10947   10946   10945   10948   10947   10945   10948
   10950   10949   10951   10950   10949   10952   10951   10949   10952
   10954   10953   10955   10954   10953   10956   10955   10953   10956
   10958   10957   10959   10958   10957   10960   10959   10957   10960
   10962   10961   10963   10962   10961   10964   10963   10961   10964
   10966   10965   10967   10966   10965   10968   10967   10965   10968
   10970   10969   10971   10970   10969   10972   10971   10969   10972
   10974   10973   10975   10974   10973   10976   10975   10973   10976
   10978   10977   10979   10978   10977   10980   10979   10977   10980
   10982   10981   10983   10982   10981   10984   10983   10981   10984
   10986   10985   10987   10986   10985   10988   10987   10985   10988
   10990   10989   10991   10990   10989   10992   10991   10989   10992
   10994   10993   10995   10994   10993   10996   10995   10993   10996
   10998   10997   10999   10998   10997   11000   10999   10997   11000
   11002   11001   11003   11002   11001   11004   11003   11001   11004
   11006   11005   11007   11006   11005   11008   11007   11005   11008
   11010   11009   11011   11010   11009   11012   11011   11009   11012
   11014   11013   11015   11014   11013   11016   11015   11013   11016
   11018   11017   11019   11018   11017   11020   11019   11017   11020
   11022   11021   11023   11022   11021   11024   11023   11021   11024
   11026   11025   11027   11026   11025   11028   11027   11025   11028
   11030   11029   11031   11030   11029   11032   11031   11029   11032
   11034   11033   11035   11034   11033   11036   11035   11033   11036
   11038   11037   11039   11038   11037   11040   11039   11037   11040
   11042   11041   11043   11042   11041   11044   11043   11041   11044
   11046   11045   11047   11046   11045   11048   11047   11045   11048
   11050   11049   11051   11050   11049   11052   11051   11049   11052
   11054   11053   11055   11054   11053   11056   11055   11053   11056
   11058   11057   11059   11058   11057   11060   11059   11057   11060
   11062   11061   11063   11062   11061   11064   11063   11061   11064
   11066   11065   11067   11066   11065   11068   11067   11065   11068
   11070   11069   11071   11070   11069   11072   11071   11069   11072
   11074   11073   11075   11074   11073   11076   11075   11073   11076
   11078   11077   11079   11078   11077   11080   11079   11077   11080
   11082   11081   11083   11082   11081   11084   11083   11081   11084
   11086   11085   11087   11086   11085   11088   11087   11085   11088
   11090   11089   11091   11090   11089   11092   11091   11089   11092
   11094   11093   11095   11094   11093   11096   11095   11093   11096
   11098   11097   11099   11098   11097   11100   11099   11097   11100
   11102   11101   11103   11102   11101   11104   11103   11101   11104
   11106   11105   11107   11106   11105   11108   11107   11105   11108
   11110   11109   11111   11110   11109   11112   11111   11109   11112
   11114   11113   11115   11114   11113   11116   11115   11113   11116
   11118   11117   11119   11118   11117   11120   11119   11117   11120
   11122   11121   11123   11122   11121   11124   11123   11121   11124
   11126   11125   11127   11126   11125   11128   11127   11125   11128
   11130   11129   11131   11130   11129   11132   11131   11129   11132
   11134   11133   11135   11134   11133   11136   11135   11133   11136
   11138   11137   11139   11138   11137   11140   11139   11137   11140
   11142   11141   11143   11142   11141   11144   11143   11141   11144
   11146   11145   11147   11146   11145   11148   11147   11145   11148
   11150   11149   11151   11150   11149   11152   11151   11149   11152
   11154   11153   11155   11154   11153   11156   11155   11153   11156
   11158   11157   11159   11158   11157   11160   11159   11157   11160
   11162   11161   11163   11162   11161   11164   11163   11161   11164
   11166   11165   11167   11166   11165   11168   11167   11165   11168
   11170   11169   11171   11170   11169   11172   11171   11169   11172
   11174   11173   11175   11174   11173   11176   11175   11173   11176
   11178   11177   11179   11178   11177   11180   11179   11177   11180
   11182   11181   11183   11182   11181   11184   11183   11181   11184
   11186   11185   11187   11186   11185   11188   11187   11185   11188
   11190   11189   11191   11190   11189   11192   11191   11189   11192
   11194   11193   11195   11194   11193   11196   11195   11193   11196
   11198   11197   11199   11198   11197   11200   11199   11197   11200
   11202   11201   11203   11202   11201   11204   11203   11201   11204
   11206   11205   11207   11206   11205   11208   11207   11205   11208
   11210   11209   11211   11210   11209   11212   11211   11209   11212
   11214   11213   11215   11214   11213   11216   11215   11213   11216
   11218   11217   11219   11218   11217   11220   11219   11217   11220
   11222   11221   11223   11222   11221   11224   11223   11221   11224
   11226   11225   11227   11226   11225   11228   11227   11225   11228
   11230   11229   11231   11230   11229   11232   11231   11229   11232
   11234   11233   11235   11234   11233   11236   11235   11233   11236
   11238   11237   11239   11238   11237   11240   11239   11237   11240
   11242   11241   11243   11242   11241   11244   11243   11241   11244
   11246   11245   11247   11246   11245   11248   11247   11245   11248
   11250   11249   11251   11250   11249   11252   11251   11249   11252
   11254   11253   11255   11254   11253   11256   11255   11253   11256
   11258   11257   11259   11258   11257   11260   11259   11257   11260
   11262   11261   11263   11262   11261   11264   11263   11261   11264
   11266   11265   11267   11266   11265   11268   11267   11265   11268
   11270   11269   11271   11270   11269   11272   11271   11269   11272
   11274   11273   11275   11274   11273   11276   11275   11273   11276
   11278   11277   11279   11278   11277   11280   11279   11277   11280
   11282   11281   11283   11282   11281   11284   11283   11281   11284
   11286   11285   11287   11286   11285   11288   11287   11285   11288
   11290   11289   11291   11290   11289   11292   11291   11289   11292
   11294   11293   11295   11294   11293   11296   11295   11293   11296
   11298   11297   11299   11298   11297   11300   11299   11297   11300
   11302   11301   11303   11302   11301   11304   11303   11301   11304
   11306   11305   11307   11306   11305   11308   11307   11305   11308
   11310   11309   11311   11310   11309   11312   11311   11309   11312
   11314   11313   11315   11314   11313   11316   11315   11313   11316
   11318   11317   11319   11318   11317   11320   11319   11317   11320
   11322   11321   11323   11322   11321   11324   11323   11321   11324
   11326   11325   11327   11326   11325   11328   11327   11325   11328
   11330   11329   11331   11330   11329   11332   11331   11329   11332
   11334   11333   11335   11334   11333   11336   11335   11333   11336
   11338   11337   11339   11338   11337   11340   11339   11337   11340
   11342   11341   11343   11342   11341   11344   11343   11341   11344
   11346   11345   11347   11346   11345   11348   11347   11345   11348
   11350   11349   11351   11350   11349   11352   11351   11349   11352
   11354   11353   11355   11354   11353   11356   11355   11353   11356
   11358   11357   11359   11358   11357   11360   11359   11357   11360
   11362   11361   11363   11362   11361   11364   11363   11361   11364
   11366   11365   11367   11366   11365   11368   11367   11365   11368
   11370   11369   11371   11370   11369   11372   11371   11369   11372
   11374   11373   11375   11374   11373   11376   11375   11373   11376
   11378   11377   11379   11378   11377   11380   11379   11377   11380
   11382   11381   11383   11382   11381   11384   11383   11381   11384
   11386   11385   11387   11386   11385   11388   11387   11385   11388
   11390   11389   11391   11390   11389   11392   11391   11389   11392
   11394   11393   11395   11394   11393   11396   11395   11393   11396
   11398   11397   11399   11398   11397   11400   11399   11397   11400
   11402   11401   11403   11402   11401   11404   11403   11401   11404
   11406   11405   11407   11406   11405   11408   11407   11405   11408
   11410   11409   11411   11410   11409   11412   11411   11409   11412
   11414   11413   11415   11414   11413   11416   11415   11413   11416
   11418   11417   11419   11418   11417   11420   11419   11417   11420
   11422   11421   11423   11422   11421   11424   11423   11421   11424
   11426   11425   11427   11426   11425   11428   11427   11425   11428
   11430   11429   11431   11430   11429   11432   11431   11429   11432
   11434   11433   11435   11434   11433   11436   11435   11433   11436
   11438   11437   11439   11438   11437   11440   11439   11437   11440
   11442   11441   11443   11442   11441   11444   11443   11441   11444
   11446   11445   11447   11446   11445   11448   11447   11445   11448
   11450   11449   11451   11450   11449   11452   11451   11449   11452
   11454   11453   11455   11454   11453   11456   11455   11453   11456
   11458   11457   11459   11458   11457   11460   11459   11457   11460
   11462   11461   11463   11462   11461   11464   11463   11461   11464
   11466   11465   11467   11466   11465   11468   11467   11465   11468
   11470   11469   11471   11470   11469   11472   11471   11469   11472
   11474   11473   11475   11474   11473   11476   11475   11473   11476
   11478   11477   11479   11478   11477   11480   11479   11477   11480
   11482   11481   11483   11482   11481   11484   11483   11481   11484
   11486   11485   11487   11486   11485   11488   11487   11485   11488
   11490   11489   11491   11490   11489   11492   11491   11489   11492
   11494   11493   11495   11494   11493   11496   11495   11493   11496
   11498   11497   11499   11498   11497   11500   11499   11497   11500
   11502   11501   11503   11502   11501   11504   11503   11501   11504
   11506   11505   11507   11506   11505   11508   11507   11505   11508
   11510   11509   11511   11510   11509   11512   11511   11509   11512
   11514   11513   11515   11514   11513   11516   11515   11513   11516
   11518   11517   11519   11518   11517   11520   11519   11517   11520
   11522   11521   11523   11522   11521   11524   11523   11521   11524
   11526   11525   11527   11526   11525   11528   11527   11525   11528
   11530   11529   11531   11530   11529   11532   11531   11529   11532
   11534   11533   11535   11534   11533   11536   11535   11533   11536
   11538   11537   11539   11538   11537   11540   11539   11537   11540
   11542   11541   11543   11542   11541   11544   11543   11541   11544
   11546   11545   11547   11546   11545   11548   11547   11545   11548
   11550   11549   11551   11550   11549   11552   11551   11549   11552
   11554   11553   11555   11554   11553   11556   11555   11553   11556
   11558   11557   11559   11558   11557   11560   11559   11557   11560
   11562   11561   11563   11562   11561   11564   11563   11561   11564
   11566   11565   11567   11566   11565   11568   11567   11565   11568
   11570   11569   11571   11570   11569   11572   11571   11569   11572
   11574   11573   11575   11574   11573   11576   11575   11573   11576
   11578   11577   11579   11578   11577   11580   11579   11577   11580
   11582   11581   11583   11582   11581   11584   11583   11581   11584
   11586   11585   11587   11586   11585   11588   11587   11585   11588
   11590   11589   11591   11590   11589   11592   11591   11589   11592
   11594   11593   11595   11594   11593   11596   11595   11593   11596
   11598   11597   11599   11598   11597   11600   11599   11597   11600
   11602   11601   11603   11602   11601   11604   11603   11601   11604
   11606   11605   11607   11606   11605   11608   11607   11605   11608
   11610   11609   11611   11610   11609   11612   11611   11609   11612
   11614   11613   11615   11614   11613   11616   11615   11613   11616
   11618   11617   11619   11618   11617   11620   11619   11617   11620
   11622   11621   11623   11622   11621   11624   11623   11621   11624
   11626   11625   11627   11626   11625   11628   11627   11625   11628
   11630   11629   11631   11630   11629   11632   11631   11629   11632
   11634   11633   11635   11634   11633   11636   11635   11633   11636
   11638   11637   11639   11638   11637   11640   11639   11637   11640
   11642   11641   11643   11642   11641   11644   11643   11641   11644
   11646   11645   11647   11646   11645   11648   11647   11645   11648
   11650   11649   11651   11650   11649   11652   11651   11649   11652
   11654   11653   11655   11654   11653   11656   11655   11653   11656
   11658   11657   11659   11658   11657   11660   11659   11657   11660
   11662   11661   11663   11662   11661   11664   11663   11661   11664
   11666   11665   11667   11666   11665   11668   11667   11665   11668
   11670   11669   11671   11670   11669   11672   11671   11669   11672
   11674   11673   11675   11674   11673   11676   11675   11673   11676
   11678   11677   11679   11678   11677   11680   11679   11677   11680
   11682   11681   11683   11682   11681   11684   11683   11681   11684
   11686   11685   11687   11686   11685   11688   11687   11685   11688
   11690   11689   11691   11690   11689   11692   11691   11689   11692
   11694   11693   11695   11694   11693   11696   11695   11693   11696
   11698   11697   11699   11698   11697   11700   11699   11697   11700
   11702   11701   11703   11702   11701   11704   11703   11701   11704
   11706   11705   11707   11706   11705   11708   11707   11705   11708
   11710   11709   11711   11710   11709   11712   11711   11709   11712
   11714   11713   11715   11714   11713   11716   11715   11713   11716
   11718   11717   11719   11718   11717   11720   11719   11717   11720
   11722   11721   11723   11722   11721   11724   11723   11721   11724
   11726   11725   11727   11726   11725   11728   11727   11725   11728
   11730   11729   11731   11730   11729   11732   11731   11729   11732
   11734   11733   11735   11734   11733   11736   11735   11733   11736
   11738   11737   11739   11738   11737   11740   11739   11737   11740
   11742   11741   11743   11742   11741   11744   11743   11741   11744
   11746   11745   11747   11746   11745   11748   11747   11745   11748
   11750   11749   11751   11750   11749   11752   11751   11749   11752
   11754   11753   11755   11754   11753   11756   11755   11753   11756
   11758   11757   11759   11758   11757   11760   11759   11757   11760
   11762   11761   11763   11762   11761   11764   11763   11761   11764
   11766   11765   11767   11766   11765   11768   11767   11765   11768
   11770   11769   11771   11770   11769   11772   11771   11769   11772
   11774   11773   11775   11774   11773   11776   11775   11773   11776
   11778   11777   11779   11778   11777   11780   11779   11777   11780
   11782   11781   11783   11782   11781   11784   11783   11781   11784
   11786   11785   11787   11786   11785   11788   11787   11785   11788
   11790   11789   11791   11790   11789   11792   11791   11789   11792
   11794   11793   11795   11794   11793   11796   11795   11793   11796
   11798   11797   11799   11798   11797   11800   11799   11797   11800
   11802   11801   11803   11802   11801   11804   11803   11801   11804
   11806   11805   11807   11806   11805   11808   11807   11805   11808
   11810   11809   11811   11810   11809   11812   11811   11809   11812
   11814   11813   11815   11814   11813   11816   11815   11813   11816
   11818   11817   11819   11818   11817   11820   11819   11817   11820
   11822   11821   11823   11822   11821   11824   11823   11821   11824
   11826   11825   11827   11826   11825   11828   11827   11825   11828
   11830   11829   11831   11830   11829   11832   11831   11829   11832
   11834   11833   11835   11834   11833   11836   11835   11833   11836
   11838   11837   11839   11838   11837   11840   11839   11837   11840
   11842   11841   11843   11842   11841   11844   11843   11841   11844
   11846   11845   11847   11846   11845   11848   11847   11845   11848
   11850   11849   11851   11850   11849   11852   11851   11849   11852
   11854   11853   11855   11854   11853   11856   11855   11853   11856
   11858   11857   11859   11858   11857   11860   11859   11857   11860
   11862   11861   11863   11862   11861   11864   11863   11861   11864
   11866   11865   11867   11866   11865   11868   11867   11865   11868
   11870   11869   11871   11870   11869   11872   11871   11869   11872
   11874   11873   11875   11874   11873   11876   11875   11873   11876
   11878   11877   11879   11878   11877   11880   11879   11877   11880
   11882   11881   11883   11882   11881   11884   11883   11881   11884
   11886   11885   11887   11886   11885   11888   11887   11885   11888
   11890   11889   11891   11890   11889   11892   11891   11889   11892
   11894   11893   11895   11894   11893   11896   11895   11893   11896
   11898   11897   11899   11898   11897   11900   11899   11897   11900
   11902   11901   11903   11902   11901   11904   11903   11901   11904
   11906   11905   11907   11906   11905   11908   11907   11905   11908
   11910   11909   11911   11910   11909   11912   11911   11909   11912
   11914   11913   11915   11914   11913   11916   11915   11913   11916
   11918   11917   11919   11918   11917   11920   11919   11917   11920
   11922   11921   11923   11922   11921   11924   11923   11921   11924
   11926   11925   11927   11926   11925   11928   11927   11925   11928
   11930   11929   11931   11930   11929   11932   11931   11929   11932
   11934   11933   11935   11934   11933   11936   11935   11933   11936
   11938   11937   11939   11938   11937   11940   11939   11937   11940
   11942   11941   11943   11942   11941   11944   11943   11941   11944
   11946   11945   11947   11946   11945   11948   11947   11945   11948
   11950   11949   11951   11950   11949   11952   11951   11949   11952
   11954   11953   11955   11954   11953   11956   11955   11953   11956
   11958   11957   11959   11958   11957   11960   11959   11957   11960
   11962   11961   11963   11962   11961   11964   11963   11961   11964
   11966   11965   11967   11966   11965   11968   11967   11965   11968
   11970   11969   11971   11970   11969   11972   11971   11969   11972
   11974   11973   11975   11974   11973   11976   11975   11973   11976
   11978   11977   11979   11978   11977   11980   11979   11977   11980
   11982   11981   11983   11982   11981   11984   11983   11981   11984
   11986   11985   11987   11986   11985   11988   11987   11985   11988
   11990   11989   11991   11990   11989   11992   11991   11989   11992
   11994   11993   11995   11994   11993   11996   11995   11993   11996
   11998   11997   11999   11998   11997   12000   11999   11997   12000

       0 !NPHI: dihedrals


       0 !NIMPHI: impropers


       0 !NDON: donors

       0 !NACC: acceptors

       0 !NNB

       0 !NGRP 

