PSF 

       3 !NTITLE
 REMARKS this file initial_box_0 - created by using MoSDeF-GOMC. 
 REMARKS parameters from the {'ETH': '../../ethane.xml'} force field via MoSDef
 REMARKS created on 2026-08-19 14:41:40.078357


    3200 !NATOM
       1 A    1    ETH  C1   CG3310  -0.270000       12.0110           
       2 A    1    ETH  C2   CG3310  -0.270000       12.0110           
       3 A    1    ETH  H1   HGA30    0.090000        1.0080           
       4 A    1    ETH  H2   HGA30    0.090000        1.0080           
       5 A    1    ETH  H3   HGA30    0.090000        1.0080           
       6 A    1    ETH  H4   HGA30    0.090000        1.0080           
       7 A    1    ETH  H5   HGA30    0.090000        1.0080           
       8 A    1    ETH  H6   HGA30    0.090000        1.0080           
       9 A    2    ETH  C1   CG3310  -0.270000       12.0110           
      10 A    2    ETH  C2   CG3310  -0.270000       12.0110           
      11 A    2    ETH  H1   HGA30    0.090000        1.0080           
      12 A    2    ETH  H2   HGA30    0.090000        1.0080           
      13 A    2    ETH  H3   HGA30    0.090000        1.0080           
      14 A    2    ETH  H4   HGA30    0.090000        1.0080           
      15 A    2    ETH  H5   HGA30    0.090000        1.0080           
      16 A    2    ETH  H6   HGA30    0.090000        1.0080           
      17 A    3    ETH  C1   CG3310  -0.270000       12.0110           
      18 A    3    ETH  C2   CG3310  -0.270000       12.0110           
      19 A    3    ETH  H1   HGA30    0.090000        1.0080           
      20 A    3    ETH  H2   HGA30    0.090000        1.0080           
      21 A    3    ETH  H3   HGA30    0.090000        1.0080           
      22 A    3    ETH  H4   HGA30    0.090000        1.0080           
      23 A    3    ETH  H5   HGA30    0.090000        1.0080           
      24 A    3    ETH  H6   HGA30    0.090000        1.0080           
      25 A    4    ETH  C1   CG3310  -0.270000       12.0110           
      26 A    4    ETH  C2   CG3310  -0.270000       12.0110           
      27 A    4    ETH  H1   HGA30    0.090000        1.0080           
      28 A    4    ETH  H2   HGA30    0.090000        1.0080           
      29 A    4    ETH  H3   HGA30    0.090000        1.0080           
      30 A    4    ETH  H4   HGA30    0.090000        1.0080           
      31 A    4    ETH  H5   HGA30    0.090000        1.0080           
      32 A    4    ETH  H6   HGA30    0.090000        1.0080           
      33 A    5    ETH  C1   CG3310  -0.270000       12.0110           
      34 A    5    ETH  C2   CG3310  -0.270000       12.0110           
      35 A    5    ETH  H1   HGA30    0.090000        1.0080           
      36 A    5    ETH  H2   HGA30    0.090000        1.0080           
      37 A    5    ETH  H3   HGA30    0.090000        1.0080           
      38 A    5    ETH  H4   HGA30    0.090000        1.0080           
      39 A    5    ETH  H5   HGA30    0.090000        1.0080           
      40 A    5    ETH  H6   HGA30    0.090000        1.0080           
      41 A    6    ETH  C1   CG3310  -0.270000       12.0110           
      42 A    6    ETH  C2   CG3310  -0.270000       12.0110           
      43 A    6    ETH  H1   HGA30    0.090000        1.0080           
      44 A    6    ETH  H2   HGA30    0.090000        1.0080           
      45 A    6    ETH  H3   HGA30    0.090000        1.0080           
      46 A    6    ETH  H4   HGA30    0.090000        1.0080           
      47 A    6    ETH  H5   HGA30    0.090000        1.0080           
      48 A    6    ETH  H6   HGA30    0.090000        1.0080           
      49 A    7    ETH  C1   CG3310  -0.270000       12.0110           
      50 A    7    ETH  C2   CG3310  -0.270000       12.0110           
      51 A    7    ETH  H1   HGA30    0.090000        1.0080           
      52 A    7    ETH  H2   HGA30    0.090000        1.0080           
      53 A    7    ETH  H3   HGA30    0.090000        1.0080           
      54 A    7    ETH  H4   HGA30    0.090000        1.0080           
      55 A    7    ETH  H5   HGA30    0.090000        1.0080           
      56 A    7    ETH  H6   HGA30    0.090000        1.0080           
      57 A    8    ETH  C1   CG3310  -0.270000       12.0110           
      58 A    8    ETH  C2   CG3310  -0.270000       12.0110           
      59 A    8    ETH  H1   HGA30    0.090000        1.0080           
      60 A    8    ETH  H2   HGA30    0.090000        1.0080           
      61 A    8    ETH  H3   HGA30    0.090000        1.0080           
      62 A    8    ETH  H4   HGA30    0.090000        1.0080           
      63 A    8    ETH  H5   HGA30    0.090000        1.0080           
      64 A    8    ETH  H6   HGA30    0.090000        1.0080           
      65 A    9    ETH  C1   CG3310  -0.270000       12.0110           
      66 A    9    ETH  C2   CG3310  -0.270000       12.0110           
      67 A    9    ETH  H1   HGA30    0.090000        1.0080           
      68 A    9    ETH  H2   HGA30    0.090000        1.0080           
      69 A    9    ETH  H3   HGA30    0.090000        1.0080           
      70 A    9    ETH  H4   HGA30    0.090000        1.0080           
      71 A    9    ETH  H5   HGA30    0.090000        1.0080           
      72 A    9    ETH  H6   HGA30    0.090000        1.0080           
      73 A    10   ETH  C1   CG3310  -0.270000       12.0110           
      74 A    10   ETH  C2   CG3310  -0.270000       12.0110           
      75 A    10   ETH  H1   HGA30    0.090000        1.0080           
      76 A    10   ETH  H2   HGA30    0.090000        1.0080           
      77 A    10   ETH  H3   HGA30    0.090000        1.0080           
      78 A    10   ETH  H4   HGA30    0.090000        1.0080           
      79 A    10   ETH  H5   HGA30    0.090000        1.0080           
      80 A    10   ETH  H6   HGA30    0.090000        1.0080           
      81 A    11   ETH  C1   CG3310  -0.270000       12.0110           
      82 A    11   ETH  C2   CG3310  -0.270000       12.0110           
      83 A    11   ETH  H1   HGA30    0.090000        1.0080           
      84 A    11   ETH  H2   HGA30    0.090000        1.0080           
      85 A    11   ETH  H3   HGA30    0.090000        1.0080           
      86 A    11   ETH  H4   HGA30    0.090000        1.0080           
      87 A    11   ETH  H5   HGA30    0.090000        1.0080           
      88 A    11   ETH  H6   HGA30    0.090000        1.0080           
      89 A    12   ETH  C1   CG3310  -0.270000       12.0110           
      90 A    12   ETH  C2   CG3310  -0.270000       12.0110           
      91 A    12   ETH  H1   HGA30    0.090000        1.0080           
      92 A    12   ETH  H2   HGA30    0.090000        1.0080           
      93 A    12   ETH  H3   HGA30    0.090000        1.0080           
      94 A    12   ETH  H4   HGA30    0.090000        1.0080           
      95 A    12   ETH  H5   HGA30    0.090000        1.0080           
      96 A    12   ETH  H6   HGA30    0.090000        1.0080           
      97 A    13   ETH  C1   CG3310  -0.270000       12.0110           
      98 A    13   ETH  C2   CG3310  -0.270000       12.0110           
      99 A    13   ETH  H1   HGA30    0.090000        1.0080           
     100 A    13   ETH  H2   HGA30    0.090000        1.0080           
     101 A    13   ETH  H3   HGA30    0.090000        1.0080           
     102 A    13   ETH  H4   HGA30    0.090000        1.0080           
     103 A    13   ETH  H5   HGA30    0.090000        1.0080           
     104 A    13   ETH  H6   HGA30    0.090000        1.0080           
     105 A    14   ETH  C1   CG3310  -0.270000       12.0110           
     106 A    14   ETH  C2   CG3310  -0.270000       12.0110           
     107 A    14   ETH  H1   HGA30    0.090000        1.0080           
     108 A    14   ETH  H2   HGA30    0.090000        1.0080           
     109 A    14   ETH  H3   HGA30    0.090000        1.0080           
     110 A    14   ETH  H4   HGA30    0.090000        1.0080           
     111 A    14   ETH  H5   HGA30    0.090000        1.0080           
     112 A    14   ETH  H6   HGA30    0.090000        1.0080           
     113 A    15   ETH  C1   CG3310  -0.270000       12.0110           
     114 A    15   ETH  C2   CG3310  -0.270000       12.0110           
     115 A    15   ETH  H1   HGA30    0.090000        1.0080           
     116 A    15   ETH  H2   HGA30    0.090000        1.0080           
     117 A    15   ETH  H3   HGA30    0.090000        1.0080           
     118 A    15   ETH  H4   HGA30    0.090000        1.0080           
     119 A    15   ETH  H5   HGA30    0.090000        1.0080           
     120 A    15   ETH  H6   HGA30    0.090000        1.0080           
     121 A    16   ETH  C1   CG3310  -0.270000       12.0110           
     122 A    16   ETH  C2   CG3310  -0.270000       12.0110           
     123 A    16   ETH  H1   HGA30    0.090000        1.0080           
     124 A    16   ETH  H2   HGA30    0.090000        1.0080           
     125 A    16   ETH  H3   HGA30    0.090000        1.0080           
     126 A    16   ETH  H4   HGA30    0.090000        1.0080           
     127 A    16   ETH  H5   HGA30    0.090000        1.0080           
     128 A    16   ETH  H6   HGA30    0.090000        1.0080           
     129 A    17   ETH  C1   CG3310  -0.270000       12.0110           
     130 A    17   ETH  C2   CG3310  -0.270000       12.0110           
     131 A    17   ETH  H1   HGA30    0.090000        1.0080           
     132 A    17   ETH  H2   HGA30    0.090000        1.0080           
     133 A    17   ETH  H3   HGA30    0.090000        1.0080           
     134 A    17   ETH  H4   HGA30    0.090000        1.0080           
     135 A    17   ETH  H5   HGA30    0.090000        1.0080           
     136 A    17   ETH  H6   HGA30    0.090000        1.0080           
     137 A    18   ETH  C1   CG3310  -0.270000       12.0110           
     138 A    18   ETH  C2   CG3310  -0.270000       12.0110           
     139 A    18   ETH  H1   HGA30    0.090000        1.0080           
     140 A    18   ETH  H2   HGA30    0.090000        1.0080           
     141 A    18   ETH  H3   HGA30    0.090000        1.0080           
     142 A    18   ETH  H4   HGA30    0.090000        1.0080           
     143 A    18   ETH  H5   HGA30    0.090000        1.0080           
     144 A    18   ETH  H6   HGA30    0.090000        1.0080           
     145 A    19   ETH  C1   CG3310  -0.270000       12.0110           
     146 A    19   ETH  C2   CG3310  -0.270000       12.0110           
     147 A    19   ETH  H1   HGA30    0.090000        1.0080           
     148 A    19   ETH  H2   HGA30    0.090000        1.0080           
     149 A    19   ETH  H3   HGA30    0.090000        1.0080           
     150 A    19   ETH  H4   HGA30    0.090000        1.0080           
     151 A    19   ETH  H5   HGA30    0.090000        1.0080           
     152 A    19   ETH  H6   HGA30    0.090000        1.0080           
     153 A    20   ETH  C1   CG3310  -0.270000       12.0110           
     154 A    20   ETH  C2   CG3310  -0.270000       12.0110           
     155 A    20   ETH  H1   HGA30    0.090000        1.0080           
     156 A    20   ETH  H2   HGA30    0.090000        1.0080           
     157 A    20   ETH  H3   HGA30    0.090000        1.0080           
     158 A    20   ETH  H4   HGA30    0.090000        1.0080           
     159 A    20   ETH  H5   HGA30    0.090000        1.0080           
     160 A    20   ETH  H6   HGA30    0.090000        1.0080           
     161 A    21   ETH  C1   CG3310  -0.270000       12.0110           
     162 A    21   ETH  C2   CG3310  -0.270000       12.0110           
     163 A    21   ETH  H1   HGA30    0.090000        1.0080           
     164 A    21   ETH  H2   HGA30    0.090000        1.0080           
     165 A    21   ETH  H3   HGA30    0.090000        1.0080           
     166 A    21   ETH  H4   HGA30    0.090000        1.0080           
     167 A    21   ETH  H5   HGA30    0.090000        1.0080           
     168 A    21   ETH  H6   HGA30    0.090000        1.0080           
     169 A    22   ETH  C1   CG3310  -0.270000       12.0110           
     170 A    22   ETH  C2   CG3310  -0.270000       12.0110           
     171 A    22   ETH  H1   HGA30    0.090000        1.0080           
     172 A    22   ETH  H2   HGA30    0.090000        1.0080           
     173 A    22   ETH  H3   HGA30    0.090000        1.0080           
     174 A    22   ETH  H4   HGA30    0.090000        1.0080           
     175 A    22   ETH  H5   HGA30    0.090000        1.0080           
     176 A    22   ETH  H6   HGA30    0.090000        1.0080           
     177 A    23   ETH  C1   CG3310  -0.270000       12.0110           
     178 A    23   ETH  C2   CG3310  -0.270000       12.0110           
     179 A    23   ETH  H1   HGA30    0.090000        1.0080           
     180 A    23   ETH  H2   HGA30    0.090000        1.0080           
     181 A    23   ETH  H3   HGA30    0.090000        1.0080           
     182 A    23   ETH  H4   HGA30    0.090000        1.0080           
     183 A    23   ETH  H5   HGA30    0.090000        1.0080           
     184 A    23   ETH  H6   HGA30    0.090000        1.0080           
     185 A    24   ETH  C1   CG3310  -0.270000       12.0110           
     186 A    24   ETH  C2   CG3310  -0.270000       12.0110           
     187 A    24   ETH  H1   HGA30    0.090000        1.0080           
     188 A    24   ETH  H2   HGA30    0.090000        1.0080           
     189 A    24   ETH  H3   HGA30    0.090000        1.0080           
     190 A    24   ETH  H4   HGA30    0.090000        1.0080           
     191 A    24   ETH  H5   HGA30    0.090000        1.0080           
     192 A    24   ETH  H6   HGA30    0.090000        1.0080           
     193 A    25   ETH  C1   CG3310  -0.270000       12.0110           
     194 A    25   ETH  C2   CG3310  -0.270000       12.0110           
     195 A    25   ETH  H1   HGA30    0.090000        1.0080           
     196 A    25   ETH  H2   HGA30    0.090000        1.0080           
     197 A    25   ETH  H3   HGA30    0.090000        1.0080           
     198 A    25   ETH  H4   HGA30    0.090000        1.0080           
     199 A    25   ETH  H5   HGA30    0.090000        1.0080           
     200 A    25   ETH  H6   HGA30    0.090000        1.0080           
     201 A    26   ETH  C1   CG3310  -0.270000       12.0110           
     202 A    26   ETH  C2   CG3310  -0.270000       12.0110           
     203 A    26   ETH  H1   HGA30    0.090000        1.0080           
     204 A    26   ETH  H2   HGA30    0.090000        1.0080           
     205 A    26   ETH  H3   HGA30    0.090000        1.0080           
     206 A    26   ETH  H4   HGA30    0.090000        1.0080           
     207 A    26   ETH  H5   HGA30    0.090000        1.0080           
     208 A    26   ETH  H6   HGA30    0.090000        1.0080           
     209 A    27   ETH  C1   CG3310  -0.270000       12.0110           
     210 A    27   ETH  C2   CG3310  -0.270000       12.0110           
     211 A    27   ETH  H1   HGA30    0.090000        1.0080           
     212 A    27   ETH  H2   HGA30    0.090000        1.0080           
     213 A    27   ETH  H3   HGA30    0.090000        1.0080           
     214 A    27   ETH  H4   HGA30    0.090000        1.0080           
     215 A    27   ETH  H5   HGA30    0.090000        1.0080           
     216 A    27   ETH  H6   HGA30    0.090000        1.0080           
     217 A    28   ETH  C1   CG3310  -0.270000       12.0110           
     218 A    28   ETH  C2   CG3310  -0.270000       12.0110           
     219 A    28   ETH  H1   HGA30    0.090000        1.0080           
     220 A    28   ETH  H2   HGA30    0.090000        1.0080           
     221 A    28   ETH  H3   HGA30    0.090000        1.0080           
     222 A    28   ETH  H4   HGA30    0.090000        1.0080           
     223 A    28   ETH  H5   HGA30    0.090000        1.0080           
     224 A    28   ETH  H6   HGA30    0.090000        1.0080           
     225 A    29   ETH  C1   CG3310  -0.270000       12.0110           
     226 A    29   ETH  C2   CG3310  -0.270000       12.0110           
     227 A    29   ETH  H1   HGA30    0.090000        1.0080           
     228 A    29   ETH  H2   HGA30    0.090000        1.0080           
     229 A    29   ETH  H3   HGA30    0.090000        1.0080           
     230 A    29   ETH  H4   HGA30    0.090000        1.0080           
     231 A    29   ETH  H5   HGA30    0.090000        1.0080           
     232 A    29   ETH  H6   HGA30    0.090000        1.0080           
     233 A    30   ETH  C1   CG3310  -0.270000       12.0110           
     234 A    30   ETH  C2   CG3310  -0.270000       12.0110           
     235 A    30   ETH  H1   HGA30    0.090000        1.0080           
     236 A    30   ETH  H2   HGA30    0.090000        1.0080           
     237 A    30   ETH  H3   HGA30    0.090000        1.0080           
     238 A    30   ETH  H4   HGA30    0.090000        1.0080           
     239 A    30   ETH  H5   HGA30    0.090000        1.0080           
     240 A    30   ETH  H6   HGA30    0.090000        1.0080           
     241 A    31   ETH  C1   CG3310  -0.270000       12.0110           
     242 A    31   ETH  C2   CG3310  -0.270000       12.0110           
     243 A    31   ETH  H1   HGA30    0.090000        1.0080           
     244 A    31   ETH  H2   HGA30    0.090000        1.0080           
     245 A    31   ETH  H3   HGA30    0.090000        1.0080           
     246 A    31   ETH  H4   HGA30    0.090000        1.0080           
     247 A    31   ETH  H5   HGA30    0.090000        1.0080           
     248 A    31   ETH  H6   HGA30    0.090000        1.0080           
     249 A    32   ETH  C1   CG3310  -0.270000       12.0110           
     250 A    32   ETH  C2   CG3310  -0.270000       12.0110           
     251 A    32   ETH  H1   HGA30    0.090000        1.0080           
     252 A    32   ETH  H2   HGA30    0.090000        1.0080           
     253 A    32   ETH  H3   HGA30    0.090000        1.0080           
     254 A    32   ETH  H4   HGA30    0.090000        1.0080           
     255 A    32   ETH  H5   HGA30    0.090000        1.0080           
     256 A    32   ETH  H6   HGA30    0.090000        1.0080           
     257 A    33   ETH  C1   CG3310  -0.270000       12.0110           
     258 A    33   ETH  C2   CG3310  -0.270000       12.0110           
     259 A    33   ETH  H1   HGA30    0.090000        1.0080           
     260 A    33   ETH  H2   HGA30    0.090000        1.0080           
     261 A    33   ETH  H3   HGA30    0.090000        1.0080           
     262 A    33   ETH  H4   HGA30    0.090000        1.0080           
     263 A    33   ETH  H5   HGA30    0.090000        1.0080           
     264 A    33   ETH  H6   HGA30    0.090000        1.0080           
     265 A    34   ETH  C1   CG3310  -0.270000       12.0110           
     266 A    34   ETH  C2   CG3310  -0.270000       12.0110           
     267 A    34   ETH  H1   HGA30    0.090000        1.0080           
     268 A    34   ETH  H2   HGA30    0.090000        1.0080           
     269 A    34   ETH  H3   HGA30    0.090000        1.0080           
     270 A    34   ETH  H4   HGA30    0.090000        1.0080           
     271 A    34   ETH  H5   HGA30    0.090000        1.0080           
     272 A    34   ETH  H6   HGA30    0.090000        1.0080           
     273 A    35   ETH  C1   CG3310  -0.270000       12.0110           
     274 A    35   ETH  C2   CG3310  -0.270000       12.0110           
     275 A    35   ETH  H1   HGA30    0.090000        1.0080           
     276 A    35   ETH  H2   HGA30    0.090000        1.0080           
     277 A    35   ETH  H3   HGA30    0.090000        1.0080           
     278 A    35   ETH  H4   HGA30    0.090000        1.0080           
     279 A    35   ETH  H5   HGA30    0.090000        1.0080           
     280 A    35   ETH  H6   HGA30    0.090000        1.0080           
     281 A    36   ETH  C1   CG3310  -0.270000       12.0110           
     282 A    36   ETH  C2   CG3310  -0.270000       12.0110           
     283 A    36   ETH  H1   HGA30    0.090000        1.0080           
     284 A    36   ETH  H2   HGA30    0.090000        1.0080           
     285 A    36   ETH  H3   HGA30    0.090000        1.0080           
     286 A    36   ETH  H4   HGA30    0.090000        1.0080           
     287 A    36   ETH  H5   HGA30    0.090000        1.0080           
     288 A    36   ETH  H6   HGA30    0.090000        1.0080           
     289 A    37   ETH  C1   CG3310  -0.270000       12.0110           
     290 A    37   ETH  C2   CG3310  -0.270000       12.0110           
     291 A    37   ETH  H1   HGA30    0.090000        1.0080           
     292 A    37   ETH  H2   HGA30    0.090000        1.0080           
     293 A    37   ETH  H3   HGA30    0.090000        1.0080           
     294 A    37   ETH  H4   HGA30    0.090000        1.0080           
     295 A    37   ETH  H5   HGA30    0.090000        1.0080           
     296 A    37   ETH  H6   HGA30    0.090000        1.0080           
     297 A    38   ETH  C1   CG3310  -0.270000       12.0110           
     298 A    38   ETH  C2   CG3310  -0.270000       12.0110           
     299 A    38   ETH  H1   HGA30    0.090000        1.0080           
     300 A    38   ETH  H2   HGA30    0.090000        1.0080           
     301 A    38   ETH  H3   HGA30    0.090000        1.0080           
     302 A    38   ETH  H4   HGA30    0.090000        1.0080           
     303 A    38   ETH  H5   HGA30    0.090000        1.0080           
     304 A    38   ETH  H6   HGA30    0.090000        1.0080           
     305 A    39   ETH  C1   CG3310  -0.270000       12.0110           
     306 A    39   ETH  C2   CG3310  -0.270000       12.0110           
     307 A    39   ETH  H1   HGA30    0.090000        1.0080           
     308 A    39   ETH  H2   HGA30    0.090000        1.0080           
     309 A    39   ETH  H3   HGA30    0.090000        1.0080           
     310 A    39   ETH  H4   HGA30    0.090000        1.0080           
     311 A    39   ETH  H5   HGA30    0.090000        1.0080           
     312 A    39   ETH  H6   HGA30    0.090000        1.0080           
     313 A    40   ETH  C1   CG3310  -0.270000       12.0110           
     314 A    40   ETH  C2   CG3310  -0.270000       12.0110           
     315 A    40   ETH  H1   HGA30    0.090000        1.0080           
     316 A    40   ETH  H2   HGA30    0.090000        1.0080           
     317 A    40   ETH  H3   HGA30    0.090000        1.0080           
     318 A    40   ETH  H4   HGA30    0.090000        1.0080           
     319 A    40   ETH  H5   HGA30    0.090000        1.0080           
     320 A    40   ETH  H6   HGA30    0.090000        1.0080           
     321 A    41   ETH  C1   CG3310  -0.270000       12.0110           
     322 A    41   ETH  C2   CG3310  -0.270000       12.0110           
     323 A    41   ETH  H1   HGA30    0.090000        1.0080           
     324 A    41   ETH  H2   HGA30    0.090000        1.0080           
     325 A    41   ETH  H3   HGA30    0.090000        1.0080           
     326 A    41   ETH  H4   HGA30    0.090000        1.0080           
     327 A    41   ETH  H5   HGA30    0.090000        1.0080           
     328 A    41   ETH  H6   HGA30    0.090000        1.0080           
     329 A    42   ETH  C1   CG3310  -0.270000       12.0110           
     330 A    42   ETH  C2   CG3310  -0.270000       12.0110           
     331 A    42   ETH  H1   HGA30    0.090000        1.0080           
     332 A    42   ETH  H2   HGA30    0.090000        1.0080           
     333 A    42   ETH  H3   HGA30    0.090000        1.0080           
     334 A    42   ETH  H4   HGA30    0.090000        1.0080           
     335 A    42   ETH  H5   HGA30    0.090000        1.0080           
     336 A    42   ETH  H6   HGA30    0.090000        1.0080           
     337 A    43   ETH  C1   CG3310  -0.270000       12.0110           
     338 A    43   ETH  C2   CG3310  -0.270000       12.0110           
     339 A    43   ETH  H1   HGA30    0.090000        1.0080           
     340 A    43   ETH  H2   HGA30    0.090000        1.0080           
     341 A    43   ETH  H3   HGA30    0.090000        1.0080           
     342 A    43   ETH  H4   HGA30    0.090000        1.0080           
     343 A    43   ETH  H5   HGA30    0.090000        1.0080           
     344 A    43   ETH  H6   HGA30    0.090000        1.0080           
     345 A    44   ETH  C1   CG3310  -0.270000       12.0110           
     346 A    44   ETH  C2   CG3310  -0.270000       12.0110           
     347 A    44   ETH  H1   HGA30    0.090000        1.0080           
     348 A    44   ETH  H2   HGA30    0.090000        1.0080           
     349 A    44   ETH  H3   HGA30    0.090000        1.0080           
     350 A    44   ETH  H4   HGA30    0.090000        1.0080           
     351 A    44   ETH  H5   HGA30    0.090000        1.0080           
     352 A    44   ETH  H6   HGA30    0.090000        1.0080           
     353 A    45   ETH  C1   CG3310  -0.270000       12.0110           
     354 A    45   ETH  C2   CG3310  -0.270000       12.0110           
     355 A    45   ETH  H1   HGA30    0.090000        1.0080           
     356 A    45   ETH  H2   HGA30    0.090000        1.0080           
     357 A    45   ETH  H3   HGA30    0.090000        1.0080           
     358 A    45   ETH  H4   HGA30    0.090000        1.0080           
     359 A    45   ETH  H5   HGA30    0.090000        1.0080           
     360 A    45   ETH  H6   HGA30    0.090000        1.0080           
     361 A    46   ETH  C1   CG3310  -0.270000       12.0110           
     362 A    46   ETH  C2   CG3310  -0.270000       12.0110           
     363 A    46   ETH  H1   HGA30    0.090000        1.0080           
     364 A    46   ETH  H2   HGA30    0.090000        1.0080           
     365 A    46   ETH  H3   HGA30    0.090000        1.0080           
     366 A    46   ETH  H4   HGA30    0.090000        1.0080           
     367 A    46   ETH  H5   HGA30    0.090000        1.0080           
     368 A    46   ETH  H6   HGA30    0.090000        1.0080           
     369 A    47   ETH  C1   CG3310  -0.270000       12.0110           
     370 A    47   ETH  C2   CG3310  -0.270000       12.0110           
     371 A    47   ETH  H1   HGA30    0.090000        1.0080           
     372 A    47   ETH  H2   HGA30    0.090000        1.0080           
     373 A    47   ETH  H3   HGA30    0.090000        1.0080           
     374 A    47   ETH  H4   HGA30    0.090000        1.0080           
     375 A    47   ETH  H5   HGA30    0.090000        1.0080           
     376 A    47   ETH  H6   HGA30    0.090000        1.0080           
     377 A    48   ETH  C1   CG3310  -0.270000       12.0110           
     378 A    48   ETH  C2   CG3310  -0.270000       12.0110           
     379 A    48   ETH  H1   HGA30    0.090000        1.0080           
     380 A    48   ETH  H2   HGA30    0.090000        1.0080           
     381 A    48   ETH  H3   HGA30    0.090000        1.0080           
     382 A    48   ETH  H4   HGA30    0.090000        1.0080           
     383 A    48   ETH  H5   HGA30    0.090000        1.0080           
     384 A    48   ETH  H6   HGA30    0.090000        1.0080           
     385 A    49   ETH  C1   CG3310  -0.270000       12.0110           
     386 A    49   ETH  C2   CG3310  -0.270000       12.0110           
     387 A    49   ETH  H1   HGA30    0.090000        1.0080           
     388 A    49   ETH  H2   HGA30    0.090000        1.0080           
     389 A    49   ETH  H3   HGA30    0.090000        1.0080           
     390 A    49   ETH  H4   HGA30    0.090000        1.0080           
     391 A    49   ETH  H5   HGA30    0.090000        1.0080           
     392 A    49   ETH  H6   HGA30    0.090000        1.0080           
     393 A    50   ETH  C1   CG3310  -0.270000       12.0110           
     394 A    50   ETH  C2   CG3310  -0.270000       12.0110           
     395 A    50   ETH  H1   HGA30    0.090000        1.0080           
     396 A    50   ETH  H2   HGA30    0.090000        1.0080           
     397 A    50   ETH  H3   HGA30    0.090000        1.0080           
     398 A    50   ETH  H4   HGA30    0.090000        1.0080           
     399 A    50   ETH  H5   HGA30    0.090000        1.0080           
     400 A    50   ETH  H6   HGA30    0.090000        1.0080           
     401 A    51   ETH  C1   CG3310  -0.270000       12.0110           
     402 A    51   ETH  C2   CG3310  -0.270000       12.0110           
     403 A    51   ETH  H1   HGA30    0.090000        1.0080           
     404 A    51   ETH  H2   HGA30    0.090000        1.0080           
     405 A    51   ETH  H3   HGA30    0.090000        1.0080           
     406 A    51   ETH  H4   HGA30    0.090000        1.0080           
     407 A    51   ETH  H5   HGA30    0.090000        1.0080           
     408 A    51   ETH  H6   HGA30    0.090000        1.0080           
     409 A    52   ETH  C1   CG3310  -0.270000       12.0110           
     410 A    52   ETH  C2   CG3310  -0.270000       12.0110           
     411 A    52   ETH  H1   HGA30    0.090000        1.0080           
     412 A    52   ETH  H2   HGA30    0.090000        1.0080           
     413 A    52   ETH  H3   HGA30    0.090000        1.0080           
     414 A    52   ETH  H4   HGA30    0.090000        1.0080           
     415 A    52   ETH  H5   HGA30    0.090000        1.0080           
     416 A    52   ETH  H6   HGA30    0.090000        1.0080           
     417 A    53   ETH  C1   CG3310  -0.270000       12.0110           
     418 A    53   ETH  C2   CG3310  -0.270000       12.0110           
     419 A    53   ETH  H1   HGA30    0.090000        1.0080           
     420 A    53   ETH  H2   HGA30    0.090000        1.0080           
     421 A    53   ETH  H3   HGA30    0.090000        1.0080           
     422 A    53   ETH  H4   HGA30    0.090000        1.0080           
     423 A    53   ETH  H5   HGA30    0.090000        1.0080           
     424 A    53   ETH  H6   HGA30    0.090000        1.0080           
     425 A    54   ETH  C1   CG3310  -0.270000       12.0110           
     426 A    54   ETH  C2   CG3310  -0.270000       12.0110           
     427 A    54   ETH  H1   HGA30    0.090000        1.0080           
     428 A    54   ETH  H2   HGA30    0.090000        1.0080           
     429 A    54   ETH  H3   HGA30    0.090000        1.0080           
     430 A    54   ETH  H4   HGA30    0.090000        1.0080           
     431 A    54   ETH  H5   HGA30    0.090000        1.0080           
     432 A    54   ETH  H6   HGA30    0.090000        1.0080           
     433 A    55   ETH  C1   CG3310  -0.270000       12.0110           
     434 A    55   ETH  C2   CG3310  -0.270000       12.0110           
     435 A    55   ETH  H1   HGA30    0.090000        1.0080           
     436 A    55   ETH  H2   HGA30    0.090000        1.0080           
     437 A    55   ETH  H3   HGA30    0.090000        1.0080           
     438 A    55   ETH  H4   HGA30    0.090000        1.0080           
     439 A    55   ETH  H5   HGA30    0.090000        1.0080           
     440 A    55   ETH  H6   HGA30    0.090000        1.0080           
     441 A    56   ETH  C1   CG3310  -0.270000       12.0110           
     442 A    56   ETH  C2   CG3310  -0.270000       12.0110           
     443 A    56   ETH  H1   HGA30    0.090000        1.0080           
     444 A    56   ETH  H2   HGA30    0.090000        1.0080           
     445 A    56   ETH  H3   HGA30    0.090000        1.0080           
     446 A    56   ETH  H4   HGA30    0.090000        1.0080           
     447 A    56   ETH  H5   HGA30    0.090000        1.0080           
     448 A    56   ETH  H6   HGA30    0.090000        1.0080           
     449 A    57   ETH  C1   CG3310  -0.270000       12.0110           
     450 A    57   ETH  C2   CG3310  -0.270000       12.0110           
     451 A    57   ETH  H1   HGA30    0.090000        1.0080           
     452 A    57   ETH  H2   HGA30    0.090000        1.0080           
     453 A    57   ETH  H3   HGA30    0.090000        1.0080           
     454 A    57   ETH  H4   HGA30    0.090000        1.0080           
     455 A    57   ETH  H5   HGA30    0.090000        1.0080           
     456 A    57   ETH  H6   HGA30    0.090000        1.0080           
     457 A    58   ETH  C1   CG3310  -0.270000       12.0110           
     458 A    58   ETH  C2   CG3310  -0.270000       12.0110           
     459 A    58   ETH  H1   HGA30    0.090000        1.0080           
     460 A    58   ETH  H2   HGA30    0.090000        1.0080           
     461 A    58   ETH  H3   HGA30    0.090000        1.0080           
     462 A    58   ETH  H4   HGA30    0.090000        1.0080           
     463 A    58   ETH  H5   HGA30    0.090000        1.0080           
     464 A    58   ETH  H6   HGA30    0.090000        1.0080           
     465 A    59   ETH  C1   CG3310  -0.270000       12.0110           
     466 A    59   ETH  C2   CG3310  -0.270000       12.0110           
     467 A    59   ETH  H1   HGA30    0.090000        1.0080           
     468 A    59   ETH  H2   HGA30    0.090000        1.0080           
     469 A    59   ETH  H3   HGA30    0.090000        1.0080           
     470 A    59   ETH  H4   HGA30    0.090000        1.0080           
     471 A    59   ETH  H5   HGA30    0.090000        1.0080           
     472 A    59   ETH  H6   HGA30    0.090000        1.0080           
     473 A    60   ETH  C1   CG3310  -0.270000       12.0110           
     474 A    60   ETH  C2   CG3310  -0.270000       12.0110           
     475 A    60   ETH  H1   HGA30    0.090000        1.0080           
     476 A    60   ETH  H2   HGA30    0.090000        1.0080           
     477 A    60   ETH  H3   HGA30    0.090000        1.0080           
     478 A    60   ETH  H4   HGA30    0.090000        1.0080           
     479 A    60   ETH  H5   HGA30    0.090000        1.0080           
     480 A    60   ETH  H6   HGA30    0.090000        1.0080           
     481 A    61   ETH  C1   CG3310  -0.270000       12.0110           
     482 A    61   ETH  C2   CG3310  -0.270000       12.0110           
     483 A    61   ETH  H1   HGA30    0.090000        1.0080           
     484 A    61   ETH  H2   HGA30    0.090000        1.0080           
     485 A    61   ETH  H3   HGA30    0.090000        1.0080           
     486 A    61   ETH  H4   HGA30    0.090000        1.0080           
     487 A    61   ETH  H5   HGA30    0.090000        1.0080           
     488 A    61   ETH  H6   HGA30    0.090000        1.0080           
     489 A    62   ETH  C1   CG3310  -0.270000       12.0110           
     490 A    62   ETH  C2   CG3310  -0.270000       12.0110           
     491 A    62   ETH  H1   HGA30    0.090000        1.0080           
     492 A    62   ETH  H2   HGA30    0.090000        1.0080           
     493 A    62   ETH  H3   HGA30    0.090000        1.0080           
     494 A    62   ETH  H4   HGA30    0.090000        1.0080           
     495 A    62   ETH  H5   HGA30    0.090000        1.0080           
     496 A    62   ETH  H6   HGA30    0.090000        1.0080           
     497 A    63   ETH  C1   CG3310  -0.270000       12.0110           
     498 A    63   ETH  C2   CG3310  -0.270000       12.0110           
     499 A    63   ETH  H1   HGA30    0.090000        1.0080           
     500 A    63   ETH  H2   HGA30    0.090000        1.0080           
     501 A    63   ETH  H3   HGA30    0.090000        1.0080           
     502 A    63   ETH  H4   HGA30    0.090000        1.0080           
     503 A    63   ETH  H5   HGA30    0.090000        1.0080           
     504 A    63   ETH  H6   HGA30    0.090000        1.0080           
     505 A    64   ETH  C1   CG3310  -0.270000       12.0110           
     506 A    64   ETH  C2   CG3310  -0.270000       12.0110           
     507 A    64   ETH  H1   HGA30    0.090000        1.0080           
     508 A    64   ETH  H2   HGA30    0.090000        1.0080           
     509 A    64   ETH  H3   HGA30    0.090000        1.0080           
     510 A    64   ETH  H4   HGA30    0.090000        1.0080           
     511 A    64   ETH  H5   HGA30    0.090000        1.0080           
     512 A    64   ETH  H6   HGA30    0.090000        1.0080           
     513 A    65   ETH  C1   CG3310  -0.270000       12.0110           
     514 A    65   ETH  C2   CG3310  -0.270000       12.0110           
     515 A    65   ETH  H1   HGA30    0.090000        1.0080           
     516 A    65   ETH  H2   HGA30    0.090000        1.0080           
     517 A    65   ETH  H3   HGA30    0.090000        1.0080           
     518 A    65   ETH  H4   HGA30    0.090000        1.0080           
     519 A    65   ETH  H5   HGA30    0.090000        1.0080           
     520 A    65   ETH  H6   HGA30    0.090000        1.0080           
     521 A    66   ETH  C1   CG3310  -0.270000       12.0110           
     522 A    66   ETH  C2   CG3310  -0.270000       12.0110           
     523 A    66   ETH  H1   HGA30    0.090000        1.0080           
     524 A    66   ETH  H2   HGA30    0.090000        1.0080           
     525 A    66   ETH  H3   HGA30    0.090000        1.0080           
     526 A    66   ETH  H4   HGA30    0.090000        1.0080           
     527 A    66   ETH  H5   HGA30    0.090000        1.0080           
     528 A    66   ETH  H6   HGA30    0.090000        1.0080           
     529 A    67   ETH  C1   CG3310  -0.270000       12.0110           
     530 A    67   ETH  C2   CG3310  -0.270000       12.0110           
     531 A    67   ETH  H1   HGA30    0.090000        1.0080           
     532 A    67   ETH  H2   HGA30    0.090000        1.0080           
     533 A    67   ETH  H3   HGA30    0.090000        1.0080           
     534 A    67   ETH  H4   HGA30    0.090000        1.0080           
     535 A    67   ETH  H5   HGA30    0.090000        1.0080           
     536 A    67   ETH  H6   HGA30    0.090000        1.0080           
     537 A    68   ETH  C1   CG3310  -0.270000       12.0110           
     538 A    68   ETH  C2   CG3310  -0.270000       12.0110           
     539 A    68   ETH  H1   HGA30    0.090000        1.0080           
     540 A    68   ETH  H2   HGA30    0.090000        1.0080           
     541 A    68   ETH  H3   HGA30    0.090000        1.0080           
     542 A    68   ETH  H4   HGA30    0.090000        1.0080           
     543 A    68   ETH  H5   HGA30    0.090000        1.0080           
     544 A    68   ETH  H6   HGA30    0.090000        1.0080           
     545 A    69   ETH  C1   CG3310  -0.270000       12.0110           
     546 A    69   ETH  C2   CG3310  -0.270000       12.0110           
     547 A    69   ETH  H1   HGA30    0.090000        1.0080           
     548 A    69   ETH  H2   HGA30    0.090000        1.0080           
     549 A    69   ETH  H3   HGA30    0.090000        1.0080           
     550 A    69   ETH  H4   HGA30    0.090000        1.0080           
     551 A    69   ETH  H5   HGA30    0.090000        1.0080           
     552 A    69   ETH  H6   HGA30    0.090000        1.0080           
     553 A    70   ETH  C1   CG3310  -0.270000       12.0110           
     554 A    70   ETH  C2   CG3310  -0.270000       12.0110           
     555 A    70   ETH  H1   HGA30    0.090000        1.0080           
     556 A    70   ETH  H2   HGA30    0.090000        1.0080           
     557 A    70   ETH  H3   HGA30    0.090000        1.0080           
     558 A    70   ETH  H4   HGA30    0.090000        1.0080           
     559 A    70   ETH  H5   HGA30    0.090000        1.0080           
     560 A    70   ETH  H6   HGA30    0.090000        1.0080           
     561 A    71   ETH  C1   CG3310  -0.270000       12.0110           
     562 A    71   ETH  C2   CG3310  -0.270000       12.0110           
     563 A    71   ETH  H1   HGA30    0.090000        1.0080           
     564 A    71   ETH  H2   HGA30    0.090000        1.0080           
     565 A    71   ETH  H3   HGA30    0.090000        1.0080           
     566 A    71   ETH  H4   HGA30    0.090000        1.0080           
     567 A    71   ETH  H5   HGA30    0.090000        1.0080           
     568 A    71   ETH  H6   HGA30    0.090000        1.0080           
     569 A    72   ETH  C1   CG3310  -0.270000       12.0110           
     570 A    72   ETH  C2   CG3310  -0.270000       12.0110           
     571 A    72   ETH  H1   HGA30    0.090000        1.0080           
     572 A    72   ETH  H2   HGA30    0.090000        1.0080           
     573 A    72   ETH  H3   HGA30    0.090000        1.0080           
     574 A    72   ETH  H4   HGA30    0.090000        1.0080           
     575 A    72   ETH  H5   HGA30    0.090000        1.0080           
     576 A    72   ETH  H6   HGA30    0.090000        1.0080           
     577 A    73   ETH  C1   CG3310  -0.270000       12.0110           
     578 A    73   ETH  C2   CG3310  -0.270000       12.0110           
     579 A    73   ETH  H1   HGA30    0.090000        1.0080           
     580 A    73   ETH  H2   HGA30    0.090000        1.0080           
     581 A    73   ETH  H3   HGA30    0.090000        1.0080           
     582 A    73   ETH  H4   HGA30    0.090000        1.0080           
     583 A    73   ETH  H5   HGA30    0.090000        1.0080           
     584 A    73   ETH  H6   HGA30    0.090000        1.0080           
     585 A    74   ETH  C1   CG3310  -0.270000       12.0110           
     586 A    74   ETH  C2   CG3310  -0.270000       12.0110           
     587 A    74   ETH  H1   HGA30    0.090000        1.0080           
     588 A    74   ETH  H2   HGA30    0.090000        1.0080           
     589 A    74   ETH  H3   HGA30    0.090000        1.0080           
     590 A    74   ETH  H4   HGA30    0.090000        1.0080           
     591 A    74   ETH  H5   HGA30    0.090000        1.0080           
     592 A    74   ETH  H6   HGA30    0.090000        1.0080           
     593 A    75   ETH  C1   CG3310  -0.270000       12.0110           
     594 A    75   ETH  C2   CG3310  -0.270000       12.0110           
     595 A    75   ETH  H1   HGA30    0.090000        1.0080           
     596 A    75   ETH  H2   HGA30    0.090000        1.0080           
     597 A    75   ETH  H3   HGA30    0.090000        1.0080           
     598 A    75   ETH  H4   HGA30    0.090000        1.0080           
     599 A    75   ETH  H5   HGA30    0.090000        1.0080           
     600 A    75   ETH  H6   HGA30    0.090000        1.0080           
     601 A    76   ETH  C1   CG3310  -0.270000       12.0110           
     602 A    76   ETH  C2   CG3310  -0.270000       12.0110           
     603 A    76   ETH  H1   HGA30    0.090000        1.0080           
     604 A    76   ETH  H2   HGA30    0.090000        1.0080           
     605 A    76   ETH  H3   HGA30    0.090000        1.0080           
     606 A    76   ETH  H4   HGA30    0.090000        1.0080           
     607 A    76   ETH  H5   HGA30    0.090000        1.0080           
     608 A    76   ETH  H6   HGA30    0.090000        1.0080           
     609 A    77   ETH  C1   CG3310  -0.270000       12.0110           
     610 A    77   ETH  C2   CG3310  -0.270000       12.0110           
     611 A    77   ETH  H1   HGA30    0.090000        1.0080           
     612 A    77   ETH  H2   HGA30    0.090000        1.0080           
     613 A    77   ETH  H3   HGA30    0.090000        1.0080           
     614 A    77   ETH  H4   HGA30    0.090000        1.0080           
     615 A    77   ETH  H5   HGA30    0.090000        1.0080           
     616 A    77   ETH  H6   HGA30    0.090000        1.0080           
     617 A    78   ETH  C1   CG3310  -0.270000       12.0110           
     618 A    78   ETH  C2   CG3310  -0.270000       12.0110           
     619 A    78   ETH  H1   HGA30    0.090000        1.0080           
     620 A    78   ETH  H2   HGA30    0.090000        1.0080           
     621 A    78   ETH  H3   HGA30    0.090000        1.0080           
     622 A    78   ETH  H4   HGA30    0.090000        1.0080           
     623 A    78   ETH  H5   HGA30    0.090000        1.0080           
     624 A    78   ETH  H6   HGA30    0.090000        1.0080           
     625 A    79   ETH  C1   CG3310  -0.270000       12.0110           
     626 A    79   ETH  C2   CG3310  -0.270000       12.0110           
     627 A    79   ETH  H1   HGA30    0.090000        1.0080           
     628 A    79   ETH  H2   HGA30    0.090000        1.0080           
     629 A    79   ETH  H3   HGA30    0.090000        1.0080           
     630 A    79   ETH  H4   HGA30    0.090000        1.0080           
     631 A    79   ETH  H5   HGA30    0.090000        1.0080           
     632 A    79   ETH  H6   HGA30    0.090000        1.0080           
     633 A    80   ETH  C1   CG3310  -0.270000       12.0110           
     634 A    80   ETH  C2   CG3310  -0.270000       12.0110           
     635 A    80   ETH  H1   HGA30    0.090000        1.0080           
     636 A    80   ETH  H2   HGA30    0.090000        1.0080           
     637 A    80   ETH  H3   HGA30    0.090000        1.0080           
     638 A    80   ETH  H4   HGA30    0.090000        1.0080           
     639 A    80   ETH  H5   HGA30    0.090000        1.0080           
     640 A    80   ETH  H6   HGA30    0.090000        1.0080           
     641 A    81   ETH  C1   CG3310  -0.270000       12.0110           
     642 A    81   ETH  C2   CG3310  -0.270000       12.0110           
     643 A    81   ETH  H1   HGA30    0.090000        1.0080           
     644 A    81   ETH  H2   HGA30    0.090000        1.0080           
     645 A    81   ETH  H3   HGA30    0.090000        1.0080           
     646 A    81   ETH  H4   HGA30    0.090000        1.0080           
     647 A    81   ETH  H5   HGA30    0.090000        1.0080           
     648 A    81   ETH  H6   HGA30    0.090000        1.0080           
     649 A    82   ETH  C1   CG3310  -0.270000       12.0110           
     650 A    82   ETH  C2   CG3310  -0.270000       12.0110           
     651 A    82   ETH  H1   HGA30    0.090000        1.0080           
     652 A    82   ETH  H2   HGA30    0.090000        1.0080           
     653 A    82   ETH  H3   HGA30    0.090000        1.0080           
     654 A    82   ETH  H4   HGA30    0.090000        1.0080           
     655 A    82   ETH  H5   HGA30    0.090000        1.0080           
     656 A    82   ETH  H6   HGA30    0.090000        1.0080           
     657 A    83   ETH  C1   CG3310  -0.270000       12.0110           
     658 A    83   ETH  C2   CG3310  -0.270000       12.0110           
     659 A    83   ETH  H1   HGA30    0.090000        1.0080           
     660 A    83   ETH  H2   HGA30    0.090000        1.0080           
     661 A    83   ETH  H3   HGA30    0.090000        1.0080           
     662 A    83   ETH  H4   HGA30    0.090000        1.0080           
     663 A    83   ETH  H5   HGA30    0.090000        1.0080           
     664 A    83   ETH  H6   HGA30    0.090000        1.0080           
     665 A    84   ETH  C1   CG3310  -0.270000       12.0110           
     666 A    84   ETH  C2   CG3310  -0.270000       12.0110           
     667 A    84   ETH  H1   HGA30    0.090000        1.0080           
     668 A    84   ETH  H2   HGA30    0.090000        1.0080           
     669 A    84   ETH  H3   HGA30    0.090000        1.0080           
     670 A    84   ETH  H4   HGA30    0.090000        1.0080           
     671 A    84   ETH  H5   HGA30    0.090000        1.0080           
     672 A    84   ETH  H6   HGA30    0.090000        1.0080           
     673 A    85   ETH  C1   CG3310  -0.270000       12.0110           
     674 A    85   ETH  C2   CG3310  -0.270000       12.0110           
     675 A    85   ETH  H1   HGA30    0.090000        1.0080           
     676 A    85   ETH  H2   HGA30    0.090000        1.0080           
     677 A    85   ETH  H3   HGA30    0.090000        1.0080           
     678 A    85   ETH  H4   HGA30    0.090000        1.0080           
     679 A    85   ETH  H5   HGA30    0.090000        1.0080           
     680 A    85   ETH  H6   HGA30    0.090000        1.0080           
     681 A    86   ETH  C1   CG3310  -0.270000       12.0110           
     682 A    86   ETH  C2   CG3310  -0.270000       12.0110           
     683 A    86   ETH  H1   HGA30    0.090000        1.0080           
     684 A    86   ETH  H2   HGA30    0.090000        1.0080           
     685 A    86   ETH  H3   HGA30    0.090000        1.0080           
     686 A    86   ETH  H4   HGA30    0.090000        1.0080           
     687 A    86   ETH  H5   HGA30    0.090000        1.0080           
     688 A    86   ETH  H6   HGA30    0.090000        1.0080           
     689 A    87   ETH  C1   CG3310  -0.270000       12.0110           
     690 A    87   ETH  C2   CG3310  -0.270000       12.0110           
     691 A    87   ETH  H1   HGA30    0.090000        1.0080           
     692 A    87   ETH  H2   HGA30    0.090000        1.0080           
     693 A    87   ETH  H3   HGA30    0.090000        1.0080           
     694 A    87   ETH  H4   HGA30    0.090000        1.0080           
     695 A    87   ETH  H5   HGA30    0.090000        1.0080           
     696 A    87   ETH  H6   HGA30    0.090000        1.0080           
     697 A    88   ETH  C1   CG3310  -0.270000       12.0110           
     698 A    88   ETH  C2   CG3310  -0.270000       12.0110           
     699 A    88   ETH  H1   HGA30    0.090000        1.0080           
     700 A    88   ETH  H2   HGA30    0.090000        1.0080           
     701 A    88   ETH  H3   HGA30    0.090000        1.0080           
     702 A    88   ETH  H4   HGA30    0.090000        1.0080           
     703 A    88   ETH  H5   HGA30    0.090000        1.0080           
     704 A    88   ETH  H6   HGA30    0.090000        1.0080           
     705 A    89   ETH  C1   CG3310  -0.270000       12.0110           
     706 A    89   ETH  C2   CG3310  -0.270000       12.0110           
     707 A    89   ETH  H1   HGA30    0.090000        1.0080           
     708 A    89   ETH  H2   HGA30    0.090000        1.0080           
     709 A    89   ETH  H3   HGA30    0.090000        1.0080           
     710 A    89   ETH  H4   HGA30    0.090000        1.0080           
     711 A    89   ETH  H5   HGA30    0.090000        1.0080           
     712 A    89   ETH  H6   HGA30    0.090000        1.0080           
     713 A    90   ETH  C1   CG3310  -0.270000       12.0110           
     714 A    90   ETH  C2   CG3310  -0.270000       12.0110           
     715 A    90   ETH  H1   HGA30    0.090000        1.0080           
     716 A    90   ETH  H2   HGA30    0.090000        1.0080           
     717 A    90   ETH  H3   HGA30    0.090000        1.0080           
     718 A    90   ETH  H4   HGA30    0.090000        1.0080           
     719 A    90   ETH  H5   HGA30    0.090000        1.0080           
     720 A    90   ETH  H6   HGA30    0.090000        1.0080           
     721 A    91   ETH  C1   CG3310  -0.270000       12.0110           
     722 A    91   ETH  C2   CG3310  -0.270000       12.0110           
     723 A    91   ETH  H1   HGA30    0.090000        1.0080           
     724 A    91   ETH  H2   HGA30    0.090000        1.0080           
     725 A    91   ETH  H3   HGA30    0.090000        1.0080           
     726 A    91   ETH  H4   HGA30    0.090000        1.0080           
     727 A    91   ETH  H5   HGA30    0.090000        1.0080           
     728 A    91   ETH  H6   HGA30    0.090000        1.0080           
     729 A    92   ETH  C1   CG3310  -0.270000       12.0110           
     730 A    92   ETH  C2   CG3310  -0.270000       12.0110           
     731 A    92   ETH  H1   HGA30    0.090000        1.0080           
     732 A    92   ETH  H2   HGA30    0.090000        1.0080           
     733 A    92   ETH  H3   HGA30    0.090000        1.0080           
     734 A    92   ETH  H4   HGA30    0.090000        1.0080           
     735 A    92   ETH  H5   HGA30    0.090000        1.0080           
     736 A    92   ETH  H6   HGA30    0.090000        1.0080           
     737 A    93   ETH  C1   CG3310  -0.270000       12.0110           
     738 A    93   ETH  C2   CG3310  -0.270000       12.0110           
     739 A    93   ETH  H1   HGA30    0.090000        1.0080           
     740 A    93   ETH  H2   HGA30    0.090000        1.0080           
     741 A    93   ETH  H3   HGA30    0.090000        1.0080           
     742 A    93   ETH  H4   HGA30    0.090000        1.0080           
     743 A    93   ETH  H5   HGA30    0.090000        1.0080           
     744 A    93   ETH  H6   HGA30    0.090000        1.0080           
     745 A    94   ETH  C1   CG3310  -0.270000       12.0110           
     746 A    94   ETH  C2   CG3310  -0.270000       12.0110           
     747 A    94   ETH  H1   HGA30    0.090000        1.0080           
     748 A    94   ETH  H2   HGA30    0.090000        1.0080           
     749 A    94   ETH  H3   HGA30    0.090000        1.0080           
     750 A    94   ETH  H4   HGA30    0.090000        1.0080           
     751 A    94   ETH  H5   HGA30    0.090000        1.0080           
     752 A    94   ETH  H6   HGA30    0.090000        1.0080           
     753 A    95   ETH  C1   CG3310  -0.270000       12.0110           
     754 A    95   ETH  C2   CG3310  -0.270000       12.0110           
     755 A    95   ETH  H1   HGA30    0.090000        1.0080           
     756 A    95   ETH  H2   HGA30    0.090000        1.0080           
     757 A    95   ETH  H3   HGA30    0.090000        1.0080           
     758 A    95   ETH  H4   HGA30    0.090000        1.0080           
     759 A    95   ETH  H5   HGA30    0.090000        1.0080           
     760 A    95   ETH  H6   HGA30    0.090000        1.0080           
     761 A    96   ETH  C1   CG3310  -0.270000       12.0110           
     762 A    96   ETH  C2   CG3310  -0.270000       12.0110           
     763 A    96   ETH  H1   HGA30    0.090000        1.0080           
     764 A    96   ETH  H2   HGA30    0.090000        1.0080           
     765 A    96   ETH  H3   HGA30    0.090000        1.0080           
     766 A    96   ETH  H4   HGA30    0.090000        1.0080           
     767 A    96   ETH  H5   HGA30    0.090000        1.0080           
     768 A    96   ETH  H6   HGA30    0.090000        1.0080           
     769 A    97   ETH  C1   CG3310  -0.270000       12.0110           
     770 A    97   ETH  C2   CG3310  -0.270000       12.0110           
     771 A    97   ETH  H1   HGA30    0.090000        1.0080           
     772 A    97   ETH  H2   HGA30    0.090000        1.0080           
     773 A    97   ETH  H3   HGA30    0.090000        1.0080           
     774 A    97   ETH  H4   HGA30    0.090000        1.0080           
     775 A    97   ETH  H5   HGA30    0.090000        1.0080           
     776 A    97   ETH  H6   HGA30    0.090000        1.0080           
     777 A    98   ETH  C1   CG3310  -0.270000       12.0110           
     778 A    98   ETH  C2   CG3310  -0.270000       12.0110           
     779 A    98   ETH  H1   HGA30    0.090000        1.0080           
     780 A    98   ETH  H2   HGA30    0.090000        1.0080           
     781 A    98   ETH  H3   HGA30    0.090000        1.0080           
     782 A    98   ETH  H4   HGA30    0.090000        1.0080           
     783 A    98   ETH  H5   HGA30    0.090000        1.0080           
     784 A    98   ETH  H6   HGA30    0.090000        1.0080           
     785 A    99   ETH  C1   CG3310  -0.270000       12.0110           
     786 A    99   ETH  C2   CG3310  -0.270000       12.0110           
     787 A    99   ETH  H1   HGA30    0.090000        1.0080           
     788 A    99   ETH  H2   HGA30    0.090000        1.0080           
     789 A    99   ETH  H3   HGA30    0.090000        1.0080           
     790 A    99   ETH  H4   HGA30    0.090000        1.0080           
     791 A    99   ETH  H5   HGA30    0.090000        1.0080           
     792 A    99   ETH  H6   HGA30    0.090000        1.0080           
     793 A    100  ETH  C1   CG3310  -0.270000       12.0110           
     794 A    100  ETH  C2   CG3310  -0.270000       12.0110           
     795 A    100  ETH  H1   HGA30    0.090000        1.0080           
     796 A    100  ETH  H2   HGA30    0.090000        1.0080           
     797 A    100  ETH  H3   HGA30    0.090000        1.0080           
     798 A    100  ETH  H4   HGA30    0.090000        1.0080           
     799 A    100  ETH  H5   HGA30    0.090000        1.0080           
     800 A    100  ETH  H6   HGA30    0.090000        1.0080           
     801 A    101  ETH  C1   CG3310  -0.270000       12.0110           
     802 A    101  ETH  C2   CG3310  -0.270000       12.0110           
     803 A    101  ETH  H1   HGA30    0.090000        1.0080           
     804 A    101  ETH  H2   HGA30    0.090000        1.0080           
     805 A    101  ETH  H3   HGA30    0.090000        1.0080           
     806 A    101  ETH  H4   HGA30    0.090000        1.0080           
     807 A    101  ETH  H5   HGA30    0.090000        1.0080           
     808 A    101  ETH  H6   HGA30    0.090000        1.0080           
     809 A    102  ETH  C1   CG3310  -0.270000       12.0110           
     810 A    102  ETH  C2   CG3310  -0.270000       12.0110           
     811 A    102  ETH  H1   HGA30    0.090000        1.0080           
     812 A    102  ETH  H2   HGA30    0.090000        1.0080           
     813 A    102  ETH  H3   HGA30    0.090000        1.0080           
     814 A    102  ETH  H4   HGA30    0.090000        1.0080           
     815 A    102  ETH  H5   HGA30    0.090000        1.0080           
     816 A    102  ETH  H6   HGA30    0.090000        1.0080           
     817 A    103  ETH  C1   CG3310  -0.270000       12.0110           
     818 A    103  ETH  C2   CG3310  -0.270000       12.0110           
     819 A    103  ETH  H1   HGA30    0.090000        1.0080           
     820 A    103  ETH  H2   HGA30    0.090000        1.0080           
     821 A    103  ETH  H3   HGA30    0.090000        1.0080           
     822 A    103  ETH  H4   HGA30    0.090000        1.0080           
     823 A    103  ETH  H5   HGA30    0.090000        1.0080           
     824 A    103  ETH  H6   HGA30    0.090000        1.0080           
     825 A    104  ETH  C1   CG3310  -0.270000       12.0110           
     826 A    104  ETH  C2   CG3310  -0.270000       12.0110           
     827 A    104  ETH  H1   HGA30    0.090000        1.0080           
     828 A    104  ETH  H2   HGA30    0.090000        1.0080           
     829 A    104  ETH  H3   HGA30    0.090000        1.0080           
     830 A    104  ETH  H4   HGA30    0.090000        1.0080           
     831 A    104  ETH  H5   HGA30    0.090000        1.0080           
     832 A    104  ETH  H6   HGA30    0.090000        1.0080           
     833 A    105  ETH  C1   CG3310  -0.270000       12.0110           
     834 A    105  ETH  C2   CG3310  -0.270000       12.0110           
     835 A    105  ETH  H1   HGA30    0.090000        1.0080           
     836 A    105  ETH  H2   HGA30    0.090000        1.0080           
     837 A    105  ETH  H3   HGA30    0.090000        1.0080           
     838 A    105  ETH  H4   HGA30    0.090000        1.0080           
     839 A    105  ETH  H5   HGA30    0.090000        1.0080           
     840 A    105  ETH  H6   HGA30    0.090000        1.0080           
     841 A    106  ETH  C1   CG3310  -0.270000       12.0110           
     842 A    106  ETH  C2   CG3310  -0.270000       12.0110           
     843 A    106  ETH  H1   HGA30    0.090000        1.0080           
     844 A    106  ETH  H2   HGA30    0.090000        1.0080           
     845 A    106  ETH  H3   HGA30    0.090000        1.0080           
     846 A    106  ETH  H4   HGA30    0.090000        1.0080           
     847 A    106  ETH  H5   HGA30    0.090000        1.0080           
     848 A    106  ETH  H6   HGA30    0.090000        1.0080           
     849 A    107  ETH  C1   CG3310  -0.270000       12.0110           
     850 A    107  ETH  C2   CG3310  -0.270000       12.0110           
     851 A    107  ETH  H1   HGA30    0.090000        1.0080           
     852 A    107  ETH  H2   HGA30    0.090000        1.0080           
     853 A    107  ETH  H3   HGA30    0.090000        1.0080           
     854 A    107  ETH  H4   HGA30    0.090000        1.0080           
     855 A    107  ETH  H5   HGA30    0.090000        1.0080           
     856 A    107  ETH  H6   HGA30    0.090000        1.0080           
     857 A    108  ETH  C1   CG3310  -0.270000       12.0110           
     858 A    108  ETH  C2   CG3310  -0.270000       12.0110           
     859 A    108  ETH  H1   HGA30    0.090000        1.0080           
     860 A    108  ETH  H2   HGA30    0.090000        1.0080           
     861 A    108  ETH  H3   HGA30    0.090000        1.0080           
     862 A    108  ETH  H4   HGA30    0.090000        1.0080           
     863 A    108  ETH  H5   HGA30    0.090000        1.0080           
     864 A    108  ETH  H6   HGA30    0.090000        1.0080           
     865 A    109  ETH  C1   CG3310  -0.270000       12.0110           
     866 A    109  ETH  C2   CG3310  -0.270000       12.0110           
     867 A    109  ETH  H1   HGA30    0.090000        1.0080           
     868 A    109  ETH  H2   HGA30    0.090000        1.0080           
     869 A    109  ETH  H3   HGA30    0.090000        1.0080           
     870 A    109  ETH  H4   HGA30    0.090000        1.0080           
     871 A    109  ETH  H5   HGA30    0.090000        1.0080           
     872 A    109  ETH  H6   HGA30    0.090000        1.0080           
     873 A    110  ETH  C1   CG3310  -0.270000       12.0110           
     874 A    110  ETH  C2   CG3310  -0.270000       12.0110           
     875 A    110  ETH  H1   HGA30    0.090000        1.0080           
     876 A    110  ETH  H2   HGA30    0.090000        1.0080           
     877 A    110  ETH  H3   HGA30    0.090000        1.0080           
     878 A    110  ETH  H4   HGA30    0.090000        1.0080           
     879 A    110  ETH  H5   HGA30    0.090000        1.0080           
     880 A    110  ETH  H6   HGA30    0.090000        1.0080           
     881 A    111  ETH  C1   CG3310  -0.270000       12.0110           
     882 A    111  ETH  C2   CG3310  -0.270000       12.0110           
     883 A    111  ETH  H1   HGA30    0.090000        1.0080           
     884 A    111  ETH  H2   HGA30    0.090000        1.0080           
     885 A    111  ETH  H3   HGA30    0.090000        1.0080           
     886 A    111  ETH  H4   HGA30    0.090000        1.0080           
     887 A    111  ETH  H5   HGA30    0.090000        1.0080           
     888 A    111  ETH  H6   HGA30    0.090000        1.0080           
     889 A    112  ETH  C1   CG3310  -0.270000       12.0110           
     890 A    112  ETH  C2   CG3310  -0.270000       12.0110           
     891 A    112  ETH  H1   HGA30    0.090000        1.0080           
     892 A    112  ETH  H2   HGA30    0.090000        1.0080           
     893 A    112  ETH  H3   HGA30    0.090000        1.0080           
     894 A    112  ETH  H4   HGA30    0.090000        1.0080           
     895 A    112  ETH  H5   HGA30    0.090000        1.0080           
     896 A    112  ETH  H6   HGA30    0.090000        1.0080           
     897 A    113  ETH  C1   CG3310  -0.270000       12.0110           
     898 A    113  ETH  C2   CG3310  -0.270000       12.0110           
     899 A    113  ETH  H1   HGA30    0.090000        1.0080           
     900 A    113  ETH  H2   HGA30    0.090000        1.0080           
     901 A    113  ETH  H3   HGA30    0.090000        1.0080           
     902 A    113  ETH  H4   HGA30    0.090000        1.0080           
     903 A    113  ETH  H5   HGA30    0.090000        1.0080           
     904 A    113  ETH  H6   HGA30    0.090000        1.0080           
     905 A    114  ETH  C1   CG3310  -0.270000       12.0110           
     906 A    114  ETH  C2   CG3310  -0.270000       12.0110           
     907 A    114  ETH  H1   HGA30    0.090000        1.0080           
     908 A    114  ETH  H2   HGA30    0.090000        1.0080           
     909 A    114  ETH  H3   HGA30    0.090000        1.0080           
     910 A    114  ETH  H4   HGA30    0.090000        1.0080           
     911 A    114  ETH  H5   HGA30    0.090000        1.0080           
     912 A    114  ETH  H6   HGA30    0.090000        1.0080           
     913 A    115  ETH  C1   CG3310  -0.270000       12.0110           
     914 A    115  ETH  C2   CG3310  -0.270000       12.0110           
     915 A    115  ETH  H1   HGA30    0.090000        1.0080           
     916 A    115  ETH  H2   HGA30    0.090000        1.0080           
     917 A    115  ETH  H3   HGA30    0.090000        1.0080           
     918 A    115  ETH  H4   HGA30    0.090000        1.0080           
     919 A    115  ETH  H5   HGA30    0.090000        1.0080           
     920 A    115  ETH  H6   HGA30    0.090000        1.0080           
     921 A    116  ETH  C1   CG3310  -0.270000       12.0110           
     922 A    116  ETH  C2   CG3310  -0.270000       12.0110           
     923 A    116  ETH  H1   HGA30    0.090000        1.0080           
     924 A    116  ETH  H2   HGA30    0.090000        1.0080           
     925 A    116  ETH  H3   HGA30    0.090000        1.0080           
     926 A    116  ETH  H4   HGA30    0.090000        1.0080           
     927 A    116  ETH  H5   HGA30    0.090000        1.0080           
     928 A    116  ETH  H6   HGA30    0.090000        1.0080           
     929 A    117  ETH  C1   CG3310  -0.270000       12.0110           
     930 A    117  ETH  C2   CG3310  -0.270000       12.0110           
     931 A    117  ETH  H1   HGA30    0.090000        1.0080           
     932 A    117  ETH  H2   HGA30    0.090000        1.0080           
     933 A    117  ETH  H3   HGA30    0.090000        1.0080           
     934 A    117  ETH  H4   HGA30    0.090000        1.0080           
     935 A    117  ETH  H5   HGA30    0.090000        1.0080           
     936 A    117  ETH  H6   HGA30    0.090000        1.0080           
     937 A    118  ETH  C1   CG3310  -0.270000       12.0110           
     938 A    118  ETH  C2   CG3310  -0.270000       12.0110           
     939 A    118  ETH  H1   HGA30    0.090000        1.0080           
     940 A    118  ETH  H2   HGA30    0.090000        1.0080           
     941 A    118  ETH  H3   HGA30    0.090000        1.0080           
     942 A    118  ETH  H4   HGA30    0.090000        1.0080           
     943 A    118  ETH  H5   HGA30    0.090000        1.0080           
     944 A    118  ETH  H6   HGA30    0.090000        1.0080           
     945 A    119  ETH  C1   CG3310  -0.270000       12.0110           
     946 A    119  ETH  C2   CG3310  -0.270000       12.0110           
     947 A    119  ETH  H1   HGA30    0.090000        1.0080           
     948 A    119  ETH  H2   HGA30    0.090000        1.0080           
     949 A    119  ETH  H3   HGA30    0.090000        1.0080           
     950 A    119  ETH  H4   HGA30    0.090000        1.0080           
     951 A    119  ETH  H5   HGA30    0.090000        1.0080           
     952 A    119  ETH  H6   HGA30    0.090000        1.0080           
     953 A    120  ETH  C1   CG3310  -0.270000       12.0110           
     954 A    120  ETH  C2   CG3310  -0.270000       12.0110           
     955 A    120  ETH  H1   HGA30    0.090000        1.0080           
     956 A    120  ETH  H2   HGA30    0.090000        1.0080           
     957 A    120  ETH  H3   HGA30    0.090000        1.0080           
     958 A    120  ETH  H4   HGA30    0.090000        1.0080           
     959 A    120  ETH  H5   HGA30    0.090000        1.0080           
     960 A    120  ETH  H6   HGA30    0.090000        1.0080           
     961 A    121  ETH  C1   CG3310  -0.270000       12.0110           
     962 A    121  ETH  C2   CG3310  -0.270000       12.0110           
     963 A    121  ETH  H1   HGA30    0.090000        1.0080           
     964 A    121  ETH  H2   HGA30    0.090000        1.0080           
     965 A    121  ETH  H3   HGA30    0.090000        1.0080           
     966 A    121  ETH  H4   HGA30    0.090000        1.0080           
     967 A    121  ETH  H5   HGA30    0.090000        1.0080           
     968 A    121  ETH  H6   HGA30    0.090000        1.0080           
     969 A    122  ETH  C1   CG3310  -0.270000       12.0110           
     970 A    122  ETH  C2   CG3310  -0.270000       12.0110           
     971 A    122  ETH  H1   HGA30    0.090000        1.0080           
     972 A    122  ETH  H2   HGA30    0.090000        1.0080           
     973 A    122  ETH  H3   HGA30    0.090000        1.0080           
     974 A    122  ETH  H4   HGA30    0.090000        1.0080           
     975 A    122  ETH  H5   HGA30    0.090000        1.0080           
     976 A    122  ETH  H6   HGA30    0.090000        1.0080           
     977 A    123  ETH  C1   CG3310  -0.270000       12.0110           
     978 A    123  ETH  C2   CG3310  -0.270000       12.0110           
     979 A    123  ETH  H1   HGA30    0.090000        1.0080           
     980 A    123  ETH  H2   HGA30    0.090000        1.0080           
     981 A    123  ETH  H3   HGA30    0.090000        1.0080           
     982 A    123  ETH  H4   HGA30    0.090000        1.0080           
     983 A    123  ETH  H5   HGA30    0.090000        1.0080           
     984 A    123  ETH  H6   HGA30    0.090000        1.0080           
     985 A    124  ETH  C1   CG3310  -0.270000       12.0110           
     986 A    124  ETH  C2   CG3310  -0.270000       12.0110           
     987 A    124  ETH  H1   HGA30    0.090000        1.0080           
     988 A    124  ETH  H2   HGA30    0.090000        1.0080           
     989 A    124  ETH  H3   HGA30    0.090000        1.0080           
     990 A    124  ETH  H4   HGA30    0.090000        1.0080           
     991 A    124  ETH  H5   HGA30    0.090000        1.0080           
     992 A    124  ETH  H6   HGA30    0.090000        1.0080           
     993 A    125  ETH  C1   CG3310  -0.270000       12.0110           
     994 A    125  ETH  C2   CG3310  -0.270000       12.0110           
     995 A    125  ETH  H1   HGA30    0.090000        1.0080           
     996 A    125  ETH  H2   HGA30    0.090000        1.0080           
     997 A    125  ETH  H3   HGA30    0.090000        1.0080           
     998 A    125  ETH  H4   HGA30    0.090000        1.0080           
     999 A    125  ETH  H5   HGA30    0.090000        1.0080           
    1000 A    125  ETH  H6   HGA30    0.090000        1.0080           
    1001 A    126  ETH  C1   CG3310  -0.270000       12.0110           
    1002 A    126  ETH  C2   CG3310  -0.270000       12.0110           
    1003 A    126  ETH  H1   HGA30    0.090000        1.0080           
    1004 A    126  ETH  H2   HGA30    0.090000        1.0080           
    1005 A    126  ETH  H3   HGA30    0.090000        1.0080           
    1006 A    126  ETH  H4   HGA30    0.090000        1.0080           
    1007 A    126  ETH  H5   HGA30    0.090000        1.0080           
    1008 A    126  ETH  H6   HGA30    0.090000        1.0080           
    1009 A    127  ETH  C1   CG3310  -0.270000       12.0110           
    1010 A    127  ETH  C2   CG3310  -0.270000       12.0110           
    1011 A    127  ETH  H1   HGA30    0.090000        1.0080           
    1012 A    127  ETH  H2   HGA30    0.090000        1.0080           
    1013 A    127  ETH  H3   HGA30    0.090000        1.0080           
    1014 A    127  ETH  H4   HGA30    0.090000        1.0080           
    1015 A    127  ETH  H5   HGA30    0.090000        1.0080           
    1016 A    127  ETH  H6   HGA30    0.090000        1.0080           
    1017 A    128  ETH  C1   CG3310  -0.270000       12.0110           
    1018 A    128  ETH  C2   CG3310  -0.270000       12.0110           
    1019 A    128  ETH  H1   HGA30    0.090000        1.0080           
    1020 A    128  ETH  H2   HGA30    0.090000        1.0080           
    1021 A    128  ETH  H3   HGA30    0.090000        1.0080           
    1022 A    128  ETH  H4   HGA30    0.090000        1.0080           
    1023 A    128  ETH  H5   HGA30    0.090000        1.0080           
    1024 A    128  ETH  H6   HGA30    0.090000        1.0080           
    1025 A    129  ETH  C1   CG3310  -0.270000       12.0110           
    1026 A    129  ETH  C2   CG3310  -0.270000       12.0110           
    1027 A    129  ETH  H1   HGA30    0.090000        1.0080           
    1028 A    129  ETH  H2   HGA30    0.090000        1.0080           
    1029 A    129  ETH  H3   HGA30    0.090000        1.0080           
    1030 A    129  ETH  H4   HGA30    0.090000        1.0080           
    1031 A    129  ETH  H5   HGA30    0.090000        1.0080           
    1032 A    129  ETH  H6   HGA30    0.090000        1.0080           
    1033 A    130  ETH  C1   CG3310  -0.270000       12.0110           
    1034 A    130  ETH  C2   CG3310  -0.270000       12.0110           
    1035 A    130  ETH  H1   HGA30    0.090000        1.0080           
    1036 A    130  ETH  H2   HGA30    0.090000        1.0080           
    1037 A    130  ETH  H3   HGA30    0.090000        1.0080           
    1038 A    130  ETH  H4   HGA30    0.090000        1.0080           
    1039 A    130  ETH  H5   HGA30    0.090000        1.0080           
    1040 A    130  ETH  H6   HGA30    0.090000        1.0080           
    1041 A    131  ETH  C1   CG3310  -0.270000       12.0110           
    1042 A    131  ETH  C2   CG3310  -0.270000       12.0110           
    1043 A    131  ETH  H1   HGA30    0.090000        1.0080           
    1044 A    131  ETH  H2   HGA30    0.090000        1.0080           
    1045 A    131  ETH  H3   HGA30    0.090000        1.0080           
    1046 A    131  ETH  H4   HGA30    0.090000        1.0080           
    1047 A    131  ETH  H5   HGA30    0.090000        1.0080           
    1048 A    131  ETH  H6   HGA30    0.090000        1.0080           
    1049 A    132  ETH  C1   CG3310  -0.270000       12.0110           
    1050 A    132  ETH  C2   CG3310  -0.270000       12.0110           
    1051 A    132  ETH  H1   HGA30    0.090000        1.0080           
    1052 A    132  ETH  H2   HGA30    0.090000        1.0080           
    1053 A    132  ETH  H3   HGA30    0.090000        1.0080           
    1054 A    132  ETH  H4   HGA30    0.090000        1.0080           
    1055 A    132  ETH  H5   HGA30    0.090000        1.0080           
    1056 A    132  ETH  H6   HGA30    0.090000        1.0080           
    1057 A    133  ETH  C1   CG3310  -0.270000       12.0110           
    1058 A    133  ETH  C2   CG3310  -0.270000       12.0110           
    1059 A    133  ETH  H1   HGA30    0.090000        1.0080           
    1060 A    133  ETH  H2   HGA30    0.090000        1.0080           
    1061 A    133  ETH  H3   HGA30    0.090000        1.0080           
    1062 A    133  ETH  H4   HGA30    0.090000        1.0080           
    1063 A    133  ETH  H5   HGA30    0.090000        1.0080           
    1064 A    133  ETH  H6   HGA30    0.090000        1.0080           
    1065 A    134  ETH  C1   CG3310  -0.270000       12.0110           
    1066 A    134  ETH  C2   CG3310  -0.270000       12.0110           
    1067 A    134  ETH  H1   HGA30    0.090000        1.0080           
    1068 A    134  ETH  H2   HGA30    0.090000        1.0080           
    1069 A    134  ETH  H3   HGA30    0.090000        1.0080           
    1070 A    134  ETH  H4   HGA30    0.090000        1.0080           
    1071 A    134  ETH  H5   HGA30    0.090000        1.0080           
    1072 A    134  ETH  H6   HGA30    0.090000        1.0080           
    1073 A    135  ETH  C1   CG3310  -0.270000       12.0110           
    1074 A    135  ETH  C2   CG3310  -0.270000       12.0110           
    1075 A    135  ETH  H1   HGA30    0.090000        1.0080           
    1076 A    135  ETH  H2   HGA30    0.090000        1.0080           
    1077 A    135  ETH  H3   HGA30    0.090000        1.0080           
    1078 A    135  ETH  H4   HGA30    0.090000        1.0080           
    1079 A    135  ETH  H5   HGA30    0.090000        1.0080           
    1080 A    135  ETH  H6   HGA30    0.090000        1.0080           
    1081 A    136  ETH  C1   CG3310  -0.270000       12.0110           
    1082 A    136  ETH  C2   CG3310  -0.270000       12.0110           
    1083 A    136  ETH  H1   HGA30    0.090000        1.0080           
    1084 A    136  ETH  H2   HGA30    0.090000        1.0080           
    1085 A    136  ETH  H3   HGA30    0.090000        1.0080           
    1086 A    136  ETH  H4   HGA30    0.090000        1.0080           
    1087 A    136  ETH  H5   HGA30    0.090000        1.0080           
    1088 A    136  ETH  H6   HGA30    0.090000        1.0080           
    1089 A    137  ETH  C1   CG3310  -0.270000       12.0110           
    1090 A    137  ETH  C2   CG3310  -0.270000       12.0110           
    1091 A    137  ETH  H1   HGA30    0.090000        1.0080           
    1092 A    137  ETH  H2   HGA30    0.090000        1.0080           
    1093 A    137  ETH  H3   HGA30    0.090000        1.0080           
    1094 A    137  ETH  H4   HGA30    0.090000        1.0080           
    1095 A    137  ETH  H5   HGA30    0.090000        1.0080           
    1096 A    137  ETH  H6   HGA30    0.090000        1.0080           
    1097 A    138  ETH  C1   CG3310  -0.270000       12.0110           
    1098 A    138  ETH  C2   CG3310  -0.270000       12.0110           
    1099 A    138  ETH  H1   HGA30    0.090000        1.0080           
    1100 A    138  ETH  H2   HGA30    0.090000        1.0080           
    1101 A    138  ETH  H3   HGA30    0.090000        1.0080           
    1102 A    138  ETH  H4   HGA30    0.090000        1.0080           
    1103 A    138  ETH  H5   HGA30    0.090000        1.0080           
    1104 A    138  ETH  H6   HGA30    0.090000        1.0080           
    1105 A    139  ETH  C1   CG3310  -0.270000       12.0110           
    1106 A    139  ETH  C2   CG3310  -0.270000       12.0110           
    1107 A    139  ETH  H1   HGA30    0.090000        1.0080           
    1108 A    139  ETH  H2   HGA30    0.090000        1.0080           
    1109 A    139  ETH  H3   HGA30    0.090000        1.0080           
    1110 A    139  ETH  H4   HGA30    0.090000        1.0080           
    1111 A    139  ETH  H5   HGA30    0.090000        1.0080           
    1112 A    139  ETH  H6   HGA30    0.090000        1.0080           
    1113 A    140  ETH  C1   CG3310  -0.270000       12.0110           
    1114 A    140  ETH  C2   CG3310  -0.270000       12.0110           
    1115 A    140  ETH  H1   HGA30    0.090000        1.0080           
    1116 A    140  ETH  H2   HGA30    0.090000        1.0080           
    1117 A    140  ETH  H3   HGA30    0.090000        1.0080           
    1118 A    140  ETH  H4   HGA30    0.090000        1.0080           
    1119 A    140  ETH  H5   HGA30    0.090000        1.0080           
    1120 A    140  ETH  H6   HGA30    0.090000        1.0080           
    1121 A    141  ETH  C1   CG3310  -0.270000       12.0110           
    1122 A    141  ETH  C2   CG3310  -0.270000       12.0110           
    1123 A    141  ETH  H1   HGA30    0.090000        1.0080           
    1124 A    141  ETH  H2   HGA30    0.090000        1.0080           
    1125 A    141  ETH  H3   HGA30    0.090000        1.0080           
    1126 A    141  ETH  H4   HGA30    0.090000        1.0080           
    1127 A    141  ETH  H5   HGA30    0.090000        1.0080           
    1128 A    141  ETH  H6   HGA30    0.090000        1.0080           
    1129 A    142  ETH  C1   CG3310  -0.270000       12.0110           
    1130 A    142  ETH  C2   CG3310  -0.270000       12.0110           
    1131 A    142  ETH  H1   HGA30    0.090000        1.0080           
    1132 A    142  ETH  H2   HGA30    0.090000        1.0080           
    1133 A    142  ETH  H3   HGA30    0.090000        1.0080           
    1134 A    142  ETH  H4   HGA30    0.090000        1.0080           
    1135 A    142  ETH  H5   HGA30    0.090000        1.0080           
    1136 A    142  ETH  H6   HGA30    0.090000        1.0080           
    1137 A    143  ETH  C1   CG3310  -0.270000       12.0110           
    1138 A    143  ETH  C2   CG3310  -0.270000       12.0110           
    1139 A    143  ETH  H1   HGA30    0.090000        1.0080           
    1140 A    143  ETH  H2   HGA30    0.090000        1.0080           
    1141 A    143  ETH  H3   HGA30    0.090000        1.0080           
    1142 A    143  ETH  H4   HGA30    0.090000        1.0080           
    1143 A    143  ETH  H5   HGA30    0.090000        1.0080           
    1144 A    143  ETH  H6   HGA30    0.090000        1.0080           
    1145 A    144  ETH  C1   CG3310  -0.270000       12.0110           
    1146 A    144  ETH  C2   CG3310  -0.270000       12.0110           
    1147 A    144  ETH  H1   HGA30    0.090000        1.0080           
    1148 A    144  ETH  H2   HGA30    0.090000        1.0080           
    1149 A    144  ETH  H3   HGA30    0.090000        1.0080           
    1150 A    144  ETH  H4   HGA30    0.090000        1.0080           
    1151 A    144  ETH  H5   HGA30    0.090000        1.0080           
    1152 A    144  ETH  H6   HGA30    0.090000        1.0080           
    1153 A    145  ETH  C1   CG3310  -0.270000       12.0110           
    1154 A    145  ETH  C2   CG3310  -0.270000       12.0110           
    1155 A    145  ETH  H1   HGA30    0.090000        1.0080           
    1156 A    145  ETH  H2   HGA30    0.090000        1.0080           
    1157 A    145  ETH  H3   HGA30    0.090000        1.0080           
    1158 A    145  ETH  H4   HGA30    0.090000        1.0080           
    1159 A    145  ETH  H5   HGA30    0.090000        1.0080           
    1160 A    145  ETH  H6   HGA30    0.090000        1.0080           
    1161 A    146  ETH  C1   CG3310  -0.270000       12.0110           
    1162 A    146  ETH  C2   CG3310  -0.270000       12.0110           
    1163 A    146  ETH  H1   HGA30    0.090000        1.0080           
    1164 A    146  ETH  H2   HGA30    0.090000        1.0080           
    1165 A    146  ETH  H3   HGA30    0.090000        1.0080           
    1166 A    146  ETH  H4   HGA30    0.090000        1.0080           
    1167 A    146  ETH  H5   HGA30    0.090000        1.0080           
    1168 A    146  ETH  H6   HGA30    0.090000        1.0080           
    1169 A    147  ETH  C1   CG3310  -0.270000       12.0110           
    1170 A    147  ETH  C2   CG3310  -0.270000       12.0110           
    1171 A    147  ETH  H1   HGA30    0.090000        1.0080           
    1172 A    147  ETH  H2   HGA30    0.090000        1.0080           
    1173 A    147  ETH  H3   HGA30    0.090000        1.0080           
    1174 A    147  ETH  H4   HGA30    0.090000        1.0080           
    1175 A    147  ETH  H5   HGA30    0.090000        1.0080           
    1176 A    147  ETH  H6   HGA30    0.090000        1.0080           
    1177 A    148  ETH  C1   CG3310  -0.270000       12.0110           
    1178 A    148  ETH  C2   CG3310  -0.270000       12.0110           
    1179 A    148  ETH  H1   HGA30    0.090000        1.0080           
    1180 A    148  ETH  H2   HGA30    0.090000        1.0080           
    1181 A    148  ETH  H3   HGA30    0.090000        1.0080           
    1182 A    148  ETH  H4   HGA30    0.090000        1.0080           
    1183 A    148  ETH  H5   HGA30    0.090000        1.0080           
    1184 A    148  ETH  H6   HGA30    0.090000        1.0080           
    1185 A    149  ETH  C1   CG3310  -0.270000       12.0110           
    1186 A    149  ETH  C2   CG3310  -0.270000       12.0110           
    1187 A    149  ETH  H1   HGA30    0.090000        1.0080           
    1188 A    149  ETH  H2   HGA30    0.090000        1.0080           
    1189 A    149  ETH  H3   HGA30    0.090000        1.0080           
    1190 A    149  ETH  H4   HGA30    0.090000        1.0080           
    1191 A    149  ETH  H5   HGA30    0.090000        1.0080           
    1192 A    149  ETH  H6   HGA30    0.090000        1.0080           
    1193 A    150  ETH  C1   CG3310  -0.270000       12.0110           
    1194 A    150  ETH  C2   CG3310  -0.270000       12.0110           
    1195 A    150  ETH  H1   HGA30    0.090000        1.0080           
    1196 A    150  ETH  H2   HGA30    0.090000        1.0080           
    1197 A    150  ETH  H3   HGA30    0.090000        1.0080           
    1198 A    150  ETH  H4   HGA30    0.090000        1.0080           
    1199 A    150  ETH  H5   HGA30    0.090000        1.0080           
    1200 A    150  ETH  H6   HGA30    0.090000        1.0080           
    1201 A    151  ETH  C1   CG3310  -0.270000       12.0110           
    1202 A    151  ETH  C2   CG3310  -0.270000       12.0110           
    1203 A    151  ETH  H1   HGA30    0.090000        1.0080           
    1204 A    151  ETH  H2   HGA30    0.090000        1.0080           
    1205 A    151  ETH  H3   HGA30    0.090000        1.0080           
    1206 A    151  ETH  H4   HGA30    0.090000        1.0080           
    1207 A    151  ETH  H5   HGA30    0.090000        1.0080           
    1208 A    151  ETH  H6   HGA30    0.090000        1.0080           
    1209 A    152  ETH  C1   CG3310  -0.270000       12.0110           
    1210 A    152  ETH  C2   CG3310  -0.270000       12.0110           
    1211 A    152  ETH  H1   HGA30    0.090000        1.0080           
    1212 A    152  ETH  H2   HGA30    0.090000        1.0080           
    1213 A    152  ETH  H3   HGA30    0.090000        1.0080           
    1214 A    152  ETH  H4   HGA30    0.090000        1.0080           
    1215 A    152  ETH  H5   HGA30    0.090000        1.0080           
    1216 A    152  ETH  H6   HGA30    0.090000        1.0080           
    1217 A    153  ETH  C1   CG3310  -0.270000       12.0110           
    1218 A    153  ETH  C2   CG3310  -0.270000       12.0110           
    1219 A    153  ETH  H1   HGA30    0.090000        1.0080           
    1220 A    153  ETH  H2   HGA30    0.090000        1.0080           
    1221 A    153  ETH  H3   HGA30    0.090000        1.0080           
    1222 A    153  ETH  H4   HGA30    0.090000        1.0080           
    1223 A    153  ETH  H5   HGA30    0.090000        1.0080           
    1224 A    153  ETH  H6   HGA30    0.090000        1.0080           
    1225 A    154  ETH  C1   CG3310  -0.270000       12.0110           
    1226 A    154  ETH  C2   CG3310  -0.270000       12.0110           
    1227 A    154  ETH  H1   HGA30    0.090000        1.0080           
    1228 A    154  ETH  H2   HGA30    0.090000        1.0080           
    1229 A    154  ETH  H3   HGA30    0.090000        1.0080           
    1230 A    154  ETH  H4   HGA30    0.090000        1.0080           
    1231 A    154  ETH  H5   HGA30    0.090000        1.0080           
    1232 A    154  ETH  H6   HGA30    0.090000        1.0080           
    1233 A    155  ETH  C1   CG3310  -0.270000       12.0110           
    1234 A    155  ETH  C2   CG3310  -0.270000       12.0110           
    1235 A    155  ETH  H1   HGA30    0.090000        1.0080           
    1236 A    155  ETH  H2   HGA30    0.090000        1.0080           
    1237 A    155  ETH  H3   HGA30    0.090000        1.0080           
    1238 A    155  ETH  H4   HGA30    0.090000        1.0080           
    1239 A    155  ETH  H5   HGA30    0.090000        1.0080           
    1240 A    155  ETH  H6   HGA30    0.090000        1.0080           
    1241 A    156  ETH  C1   CG3310  -0.270000       12.0110           
    1242 A    156  ETH  C2   CG3310  -0.270000       12.0110           
    1243 A    156  ETH  H1   HGA30    0.090000        1.0080           
    1244 A    156  ETH  H2   HGA30    0.090000        1.0080           
    1245 A    156  ETH  H3   HGA30    0.090000        1.0080           
    1246 A    156  ETH  H4   HGA30    0.090000        1.0080           
    1247 A    156  ETH  H5   HGA30    0.090000        1.0080           
    1248 A    156  ETH  H6   HGA30    0.090000        1.0080           
    1249 A    157  ETH  C1   CG3310  -0.270000       12.0110           
    1250 A    157  ETH  C2   CG3310  -0.270000       12.0110           
    1251 A    157  ETH  H1   HGA30    0.090000        1.0080           
    1252 A    157  ETH  H2   HGA30    0.090000        1.0080           
    1253 A    157  ETH  H3   HGA30    0.090000        1.0080           
    1254 A    157  ETH  H4   HGA30    0.090000        1.0080           
    1255 A    157  ETH  H5   HGA30    0.090000        1.0080           
    1256 A    157  ETH  H6   HGA30    0.090000        1.0080           
    1257 A    158  ETH  C1   CG3310  -0.270000       12.0110           
    1258 A    158  ETH  C2   CG3310  -0.270000       12.0110           
    1259 A    158  ETH  H1   HGA30    0.090000        1.0080           
    1260 A    158  ETH  H2   HGA30    0.090000        1.0080           
    1261 A    158  ETH  H3   HGA30    0.090000        1.0080           
    1262 A    158  ETH  H4   HGA30    0.090000        1.0080           
    1263 A    158  ETH  H5   HGA30    0.090000        1.0080           
    1264 A    158  ETH  H6   HGA30    0.090000        1.0080           
    1265 A    159  ETH  C1   CG3310  -0.270000       12.0110           
    1266 A    159  ETH  C2   CG3310  -0.270000       12.0110           
    1267 A    159  ETH  H1   HGA30    0.090000        1.0080           
    1268 A    159  ETH  H2   HGA30    0.090000        1.0080           
    1269 A    159  ETH  H3   HGA30    0.090000        1.0080           
    1270 A    159  ETH  H4   HGA30    0.090000        1.0080           
    1271 A    159  ETH  H5   HGA30    0.090000        1.0080           
    1272 A    159  ETH  H6   HGA30    0.090000        1.0080           
    1273 A    160  ETH  C1   CG3310  -0.270000       12.0110           
    1274 A    160  ETH  C2   CG3310  -0.270000       12.0110           
    1275 A    160  ETH  H1   HGA30    0.090000        1.0080           
    1276 A    160  ETH  H2   HGA30    0.090000        1.0080           
    1277 A    160  ETH  H3   HGA30    0.090000        1.0080           
    1278 A    160  ETH  H4   HGA30    0.090000        1.0080           
    1279 A    160  ETH  H5   HGA30    0.090000        1.0080           
    1280 A    160  ETH  H6   HGA30    0.090000        1.0080           
    1281 A    161  ETH  C1   CG3310  -0.270000       12.0110           
    1282 A    161  ETH  C2   CG3310  -0.270000       12.0110           
    1283 A    161  ETH  H1   HGA30    0.090000        1.0080           
    1284 A    161  ETH  H2   HGA30    0.090000        1.0080           
    1285 A    161  ETH  H3   HGA30    0.090000        1.0080           
    1286 A    161  ETH  H4   HGA30    0.090000        1.0080           
    1287 A    161  ETH  H5   HGA30    0.090000        1.0080           
    1288 A    161  ETH  H6   HGA30    0.090000        1.0080           
    1289 A    162  ETH  C1   CG3310  -0.270000       12.0110           
    1290 A    162  ETH  C2   CG3310  -0.270000       12.0110           
    1291 A    162  ETH  H1   HGA30    0.090000        1.0080           
    1292 A    162  ETH  H2   HGA30    0.090000        1.0080           
    1293 A    162  ETH  H3   HGA30    0.090000        1.0080           
    1294 A    162  ETH  H4   HGA30    0.090000        1.0080           
    1295 A    162  ETH  H5   HGA30    0.090000        1.0080           
    1296 A    162  ETH  H6   HGA30    0.090000        1.0080           
    1297 A    163  ETH  C1   CG3310  -0.270000       12.0110           
    1298 A    163  ETH  C2   CG3310  -0.270000       12.0110           
    1299 A    163  ETH  H1   HGA30    0.090000        1.0080           
    1300 A    163  ETH  H2   HGA30    0.090000        1.0080           
    1301 A    163  ETH  H3   HGA30    0.090000        1.0080           
    1302 A    163  ETH  H4   HGA30    0.090000        1.0080           
    1303 A    163  ETH  H5   HGA30    0.090000        1.0080           
    1304 A    163  ETH  H6   HGA30    0.090000        1.0080           
    1305 A    164  ETH  C1   CG3310  -0.270000       12.0110           
    1306 A    164  ETH  C2   CG3310  -0.270000       12.0110           
    1307 A    164  ETH  H1   HGA30    0.090000        1.0080           
    1308 A    164  ETH  H2   HGA30    0.090000        1.0080           
    1309 A    164  ETH  H3   HGA30    0.090000        1.0080           
    1310 A    164  ETH  H4   HGA30    0.090000        1.0080           
    1311 A    164  ETH  H5   HGA30    0.090000        1.0080           
    1312 A    164  ETH  H6   HGA30    0.090000        1.0080           
    1313 A    165  ETH  C1   CG3310  -0.270000       12.0110           
    1314 A    165  ETH  C2   CG3310  -0.270000       12.0110           
    1315 A    165  ETH  H1   HGA30    0.090000        1.0080           
    1316 A    165  ETH  H2   HGA30    0.090000        1.0080           
    1317 A    165  ETH  H3   HGA30    0.090000        1.0080           
    1318 A    165  ETH  H4   HGA30    0.090000        1.0080           
    1319 A    165  ETH  H5   HGA30    0.090000        1.0080           
    1320 A    165  ETH  H6   HGA30    0.090000        1.0080           
    1321 A    166  ETH  C1   CG3310  -0.270000       12.0110           
    1322 A    166  ETH  C2   CG3310  -0.270000       12.0110           
    1323 A    166  ETH  H1   HGA30    0.090000        1.0080           
    1324 A    166  ETH  H2   HGA30    0.090000        1.0080           
    1325 A    166  ETH  H3   HGA30    0.090000        1.0080           
    1326 A    166  ETH  H4   HGA30    0.090000        1.0080           
    1327 A    166  ETH  H5   HGA30    0.090000        1.0080           
    1328 A    166  ETH  H6   HGA30    0.090000        1.0080           
    1329 A    167  ETH  C1   CG3310  -0.270000       12.0110           
    1330 A    167  ETH  C2   CG3310  -0.270000       12.0110           
    1331 A    167  ETH  H1   HGA30    0.090000        1.0080           
    1332 A    167  ETH  H2   HGA30    0.090000        1.0080           
    1333 A    167  ETH  H3   HGA30    0.090000        1.0080           
    1334 A    167  ETH  H4   HGA30    0.090000        1.0080           
    1335 A    167  ETH  H5   HGA30    0.090000        1.0080           
    1336 A    167  ETH  H6   HGA30    0.090000        1.0080           
    1337 A    168  ETH  C1   CG3310  -0.270000       12.0110           
    1338 A    168  ETH  C2   CG3310  -0.270000       12.0110           
    1339 A    168  ETH  H1   HGA30    0.090000        1.0080           
    1340 A    168  ETH  H2   HGA30    0.090000        1.0080           
    1341 A    168  ETH  H3   HGA30    0.090000        1.0080           
    1342 A    168  ETH  H4   HGA30    0.090000        1.0080           
    1343 A    168  ETH  H5   HGA30    0.090000        1.0080           
    1344 A    168  ETH  H6   HGA30    0.090000        1.0080           
    1345 A    169  ETH  C1   CG3310  -0.270000       12.0110           
    1346 A    169  ETH  C2   CG3310  -0.270000       12.0110           
    1347 A    169  ETH  H1   HGA30    0.090000        1.0080           
    1348 A    169  ETH  H2   HGA30    0.090000        1.0080           
    1349 A    169  ETH  H3   HGA30    0.090000        1.0080           
    1350 A    169  ETH  H4   HGA30    0.090000        1.0080           
    1351 A    169  ETH  H5   HGA30    0.090000        1.0080           
    1352 A    169  ETH  H6   HGA30    0.090000        1.0080           
    1353 A    170  ETH  C1   CG3310  -0.270000       12.0110           
    1354 A    170  ETH  C2   CG3310  -0.270000       12.0110           
    1355 A    170  ETH  H1   HGA30    0.090000        1.0080           
    1356 A    170  ETH  H2   HGA30    0.090000        1.0080           
    1357 A    170  ETH  H3   HGA30    0.090000        1.0080           
    1358 A    170  ETH  H4   HGA30    0.090000        1.0080           
    1359 A    170  ETH  H5   HGA30    0.090000        1.0080           
    1360 A    170  ETH  H6   HGA30    0.090000        1.0080           
    1361 A    171  ETH  C1   CG3310  -0.270000       12.0110           
    1362 A    171  ETH  C2   CG3310  -0.270000       12.0110           
    1363 A    171  ETH  H1   HGA30    0.090000        1.0080           
    1364 A    171  ETH  H2   HGA30    0.090000        1.0080           
    1365 A    171  ETH  H3   HGA30    0.090000        1.0080           
    1366 A    171  ETH  H4   HGA30    0.090000        1.0080           
    1367 A    171  ETH  H5   HGA30    0.090000        1.0080           
    1368 A    171  ETH  H6   HGA30    0.090000        1.0080           
    1369 A    172  ETH  C1   CG3310  -0.270000       12.0110           
    1370 A    172  ETH  C2   CG3310  -0.270000       12.0110           
    1371 A    172  ETH  H1   HGA30    0.090000        1.0080           
    1372 A    172  ETH  H2   HGA30    0.090000        1.0080           
    1373 A    172  ETH  H3   HGA30    0.090000        1.0080           
    1374 A    172  ETH  H4   HGA30    0.090000        1.0080           
    1375 A    172  ETH  H5   HGA30    0.090000        1.0080           
    1376 A    172  ETH  H6   HGA30    0.090000        1.0080           
    1377 A    173  ETH  C1   CG3310  -0.270000       12.0110           
    1378 A    173  ETH  C2   CG3310  -0.270000       12.0110           
    1379 A    173  ETH  H1   HGA30    0.090000        1.0080           
    1380 A    173  ETH  H2   HGA30    0.090000        1.0080           
    1381 A    173  ETH  H3   HGA30    0.090000        1.0080           
    1382 A    173  ETH  H4   HGA30    0.090000        1.0080           
    1383 A    173  ETH  H5   HGA30    0.090000        1.0080           
    1384 A    173  ETH  H6   HGA30    0.090000        1.0080           
    1385 A    174  ETH  C1   CG3310  -0.270000       12.0110           
    1386 A    174  ETH  C2   CG3310  -0.270000       12.0110           
    1387 A    174  ETH  H1   HGA30    0.090000        1.0080           
    1388 A    174  ETH  H2   HGA30    0.090000        1.0080           
    1389 A    174  ETH  H3   HGA30    0.090000        1.0080           
    1390 A    174  ETH  H4   HGA30    0.090000        1.0080           
    1391 A    174  ETH  H5   HGA30    0.090000        1.0080           
    1392 A    174  ETH  H6   HGA30    0.090000        1.0080           
    1393 A    175  ETH  C1   CG3310  -0.270000       12.0110           
    1394 A    175  ETH  C2   CG3310  -0.270000       12.0110           
    1395 A    175  ETH  H1   HGA30    0.090000        1.0080           
    1396 A    175  ETH  H2   HGA30    0.090000        1.0080           
    1397 A    175  ETH  H3   HGA30    0.090000        1.0080           
    1398 A    175  ETH  H4   HGA30    0.090000        1.0080           
    1399 A    175  ETH  H5   HGA30    0.090000        1.0080           
    1400 A    175  ETH  H6   HGA30    0.090000        1.0080           
    1401 A    176  ETH  C1   CG3310  -0.270000       12.0110           
    1402 A    176  ETH  C2   CG3310  -0.270000       12.0110           
    1403 A    176  ETH  H1   HGA30    0.090000        1.0080           
    1404 A    176  ETH  H2   HGA30    0.090000        1.0080           
    1405 A    176  ETH  H3   HGA30    0.090000        1.0080           
    1406 A    176  ETH  H4   HGA30    0.090000        1.0080           
    1407 A    176  ETH  H5   HGA30    0.090000        1.0080           
    1408 A    176  ETH  H6   HGA30    0.090000        1.0080           
    1409 A    177  ETH  C1   CG3310  -0.270000       12.0110           
    1410 A    177  ETH  C2   CG3310  -0.270000       12.0110           
    1411 A    177  ETH  H1   HGA30    0.090000        1.0080           
    1412 A    177  ETH  H2   HGA30    0.090000        1.0080           
    1413 A    177  ETH  H3   HGA30    0.090000        1.0080           
    1414 A    177  ETH  H4   HGA30    0.090000        1.0080           
    1415 A    177  ETH  H5   HGA30    0.090000        1.0080           
    1416 A    177  ETH  H6   HGA30    0.090000        1.0080           
    1417 A    178  ETH  C1   CG3310  -0.270000       12.0110           
    1418 A    178  ETH  C2   CG3310  -0.270000       12.0110           
    1419 A    178  ETH  H1   HGA30    0.090000        1.0080           
    1420 A    178  ETH  H2   HGA30    0.090000        1.0080           
    1421 A    178  ETH  H3   HGA30    0.090000        1.0080           
    1422 A    178  ETH  H4   HGA30    0.090000        1.0080           
    1423 A    178  ETH  H5   HGA30    0.090000        1.0080           
    1424 A    178  ETH  H6   HGA30    0.090000        1.0080           
    1425 A    179  ETH  C1   CG3310  -0.270000       12.0110           
    1426 A    179  ETH  C2   CG3310  -0.270000       12.0110           
    1427 A    179  ETH  H1   HGA30    0.090000        1.0080           
    1428 A    179  ETH  H2   HGA30    0.090000        1.0080           
    1429 A    179  ETH  H3   HGA30    0.090000        1.0080           
    1430 A    179  ETH  H4   HGA30    0.090000        1.0080           
    1431 A    179  ETH  H5   HGA30    0.090000        1.0080           
    1432 A    179  ETH  H6   HGA30    0.090000        1.0080           
    1433 A    180  ETH  C1   CG3310  -0.270000       12.0110           
    1434 A    180  ETH  C2   CG3310  -0.270000       12.0110           
    1435 A    180  ETH  H1   HGA30    0.090000        1.0080           
    1436 A    180  ETH  H2   HGA30    0.090000        1.0080           
    1437 A    180  ETH  H3   HGA30    0.090000        1.0080           
    1438 A    180  ETH  H4   HGA30    0.090000        1.0080           
    1439 A    180  ETH  H5   HGA30    0.090000        1.0080           
    1440 A    180  ETH  H6   HGA30    0.090000        1.0080           
    1441 A    181  ETH  C1   CG3310  -0.270000       12.0110           
    1442 A    181  ETH  C2   CG3310  -0.270000       12.0110           
    1443 A    181  ETH  H1   HGA30    0.090000        1.0080           
    1444 A    181  ETH  H2   HGA30    0.090000        1.0080           
    1445 A    181  ETH  H3   HGA30    0.090000        1.0080           
    1446 A    181  ETH  H4   HGA30    0.090000        1.0080           
    1447 A    181  ETH  H5   HGA30    0.090000        1.0080           
    1448 A    181  ETH  H6   HGA30    0.090000        1.0080           
    1449 A    182  ETH  C1   CG3310  -0.270000       12.0110           
    1450 A    182  ETH  C2   CG3310  -0.270000       12.0110           
    1451 A    182  ETH  H1   HGA30    0.090000        1.0080           
    1452 A    182  ETH  H2   HGA30    0.090000        1.0080           
    1453 A    182  ETH  H3   HGA30    0.090000        1.0080           
    1454 A    182  ETH  H4   HGA30    0.090000        1.0080           
    1455 A    182  ETH  H5   HGA30    0.090000        1.0080           
    1456 A    182  ETH  H6   HGA30    0.090000        1.0080           
    1457 A    183  ETH  C1   CG3310  -0.270000       12.0110           
    1458 A    183  ETH  C2   CG3310  -0.270000       12.0110           
    1459 A    183  ETH  H1   HGA30    0.090000        1.0080           
    1460 A    183  ETH  H2   HGA30    0.090000        1.0080           
    1461 A    183  ETH  H3   HGA30    0.090000        1.0080           
    1462 A    183  ETH  H4   HGA30    0.090000        1.0080           
    1463 A    183  ETH  H5   HGA30    0.090000        1.0080           
    1464 A    183  ETH  H6   HGA30    0.090000        1.0080           
    1465 A    184  ETH  C1   CG3310  -0.270000       12.0110           
    1466 A    184  ETH  C2   CG3310  -0.270000       12.0110           
    1467 A    184  ETH  H1   HGA30    0.090000        1.0080           
    1468 A    184  ETH  H2   HGA30    0.090000        1.0080           
    1469 A    184  ETH  H3   HGA30    0.090000        1.0080           
    1470 A    184  ETH  H4   HGA30    0.090000        1.0080           
    1471 A    184  ETH  H5   HGA30    0.090000        1.0080           
    1472 A    184  ETH  H6   HGA30    0.090000        1.0080           
    1473 A    185  ETH  C1   CG3310  -0.270000       12.0110           
    1474 A    185  ETH  C2   CG3310  -0.270000       12.0110           
    1475 A    185  ETH  H1   HGA30    0.090000        1.0080           
    1476 A    185  ETH  H2   HGA30    0.090000        1.0080           
    1477 A    185  ETH  H3   HGA30    0.090000        1.0080           
    1478 A    185  ETH  H4   HGA30    0.090000        1.0080           
    1479 A    185  ETH  H5   HGA30    0.090000        1.0080           
    1480 A    185  ETH  H6   HGA30    0.090000        1.0080           
    1481 A    186  ETH  C1   CG3310  -0.270000       12.0110           
    1482 A    186  ETH  C2   CG3310  -0.270000       12.0110           
    1483 A    186  ETH  H1   HGA30    0.090000        1.0080           
    1484 A    186  ETH  H2   HGA30    0.090000        1.0080           
    1485 A    186  ETH  H3   HGA30    0.090000        1.0080           
    1486 A    186  ETH  H4   HGA30    0.090000        1.0080           
    1487 A    186  ETH  H5   HGA30    0.090000        1.0080           
    1488 A    186  ETH  H6   HGA30    0.090000        1.0080           
    1489 A    187  ETH  C1   CG3310  -0.270000       12.0110           
    1490 A    187  ETH  C2   CG3310  -0.270000       12.0110           
    1491 A    187  ETH  H1   HGA30    0.090000        1.0080           
    1492 A    187  ETH  H2   HGA30    0.090000        1.0080           
    1493 A    187  ETH  H3   HGA30    0.090000        1.0080           
    1494 A    187  ETH  H4   HGA30    0.090000        1.0080           
    1495 A    187  ETH  H5   HGA30    0.090000        1.0080           
    1496 A    187  ETH  H6   HGA30    0.090000        1.0080           
    1497 A    188  ETH  C1   CG3310  -0.270000       12.0110           
    1498 A    188  ETH  C2   CG3310  -0.270000       12.0110           
    1499 A    188  ETH  H1   HGA30    0.090000        1.0080           
    1500 A    188  ETH  H2   HGA30    0.090000        1.0080           
    1501 A    188  ETH  H3   HGA30    0.090000        1.0080           
    1502 A    188  ETH  H4   HGA30    0.090000        1.0080           
    1503 A    188  ETH  H5   HGA30    0.090000        1.0080           
    1504 A    188  ETH  H6   HGA30    0.090000        1.0080           
    1505 A    189  ETH  C1   CG3310  -0.270000       12.0110           
    1506 A    189  ETH  C2   CG3310  -0.270000       12.0110           
    1507 A    189  ETH  H1   HGA30    0.090000        1.0080           
    1508 A    189  ETH  H2   HGA30    0.090000        1.0080           
    1509 A    189  ETH  H3   HGA30    0.090000        1.0080           
    1510 A    189  ETH  H4   HGA30    0.090000        1.0080           
    1511 A    189  ETH  H5   HGA30    0.090000        1.0080           
    1512 A    189  ETH  H6   HGA30    0.090000        1.0080           
    1513 A    190  ETH  C1   CG3310  -0.270000       12.0110           
    1514 A    190  ETH  C2   CG3310  -0.270000       12.0110           
    1515 A    190  ETH  H1   HGA30    0.090000        1.0080           
    1516 A    190  ETH  H2   HGA30    0.090000        1.0080           
    1517 A    190  ETH  H3   HGA30    0.090000        1.0080           
    1518 A    190  ETH  H4   HGA30    0.090000        1.0080           
    1519 A    190  ETH  H5   HGA30    0.090000        1.0080           
    1520 A    190  ETH  H6   HGA30    0.090000        1.0080           
    1521 A    191  ETH  C1   CG3310  -0.270000       12.0110           
    1522 A    191  ETH  C2   CG3310  -0.270000       12.0110           
    1523 A    191  ETH  H1   HGA30    0.090000        1.0080           
    1524 A    191  ETH  H2   HGA30    0.090000        1.0080           
    1525 A    191  ETH  H3   HGA30    0.090000        1.0080           
    1526 A    191  ETH  H4   HGA30    0.090000        1.0080           
    1527 A    191  ETH  H5   HGA30    0.090000        1.0080           
    1528 A    191  ETH  H6   HGA30    0.090000        1.0080           
    1529 A    192  ETH  C1   CG3310  -0.270000       12.0110           
    1530 A    192  ETH  C2   CG3310  -0.270000       12.0110           
    1531 A    192  ETH  H1   HGA30    0.090000        1.0080           
    1532 A    192  ETH  H2   HGA30    0.090000        1.0080           
    1533 A    192  ETH  H3   HGA30    0.090000        1.0080           
    1534 A    192  ETH  H4   HGA30    0.090000        1.0080           
    1535 A    192  ETH  H5   HGA30    0.090000        1.0080           
    1536 A    192  ETH  H6   HGA30    0.090000        1.0080           
    1537 A    193  ETH  C1   CG3310  -0.270000       12.0110           
    1538 A    193  ETH  C2   CG3310  -0.270000       12.0110           
    1539 A    193  ETH  H1   HGA30    0.090000        1.0080           
    1540 A    193  ETH  H2   HGA30    0.090000        1.0080           
    1541 A    193  ETH  H3   HGA30    0.090000        1.0080           
    1542 A    193  ETH  H4   HGA30    0.090000        1.0080           
    1543 A    193  ETH  H5   HGA30    0.090000        1.0080           
    1544 A    193  ETH  H6   HGA30    0.090000        1.0080           
    1545 A    194  ETH  C1   CG3310  -0.270000       12.0110           
    1546 A    194  ETH  C2   CG3310  -0.270000       12.0110           
    1547 A    194  ETH  H1   HGA30    0.090000        1.0080           
    1548 A    194  ETH  H2   HGA30    0.090000        1.0080           
    1549 A    194  ETH  H3   HGA30    0.090000        1.0080           
    1550 A    194  ETH  H4   HGA30    0.090000        1.0080           
    1551 A    194  ETH  H5   HGA30    0.090000        1.0080           
    1552 A    194  ETH  H6   HGA30    0.090000        1.0080           
    1553 A    195  ETH  C1   CG3310  -0.270000       12.0110           
    1554 A    195  ETH  C2   CG3310  -0.270000       12.0110           
    1555 A    195  ETH  H1   HGA30    0.090000        1.0080           
    1556 A    195  ETH  H2   HGA30    0.090000        1.0080           
    1557 A    195  ETH  H3   HGA30    0.090000        1.0080           
    1558 A    195  ETH  H4   HGA30    0.090000        1.0080           
    1559 A    195  ETH  H5   HGA30    0.090000        1.0080           
    1560 A    195  ETH  H6   HGA30    0.090000        1.0080           
    1561 A    196  ETH  C1   CG3310  -0.270000       12.0110           
    1562 A    196  ETH  C2   CG3310  -0.270000       12.0110           
    1563 A    196  ETH  H1   HGA30    0.090000        1.0080           
    1564 A    196  ETH  H2   HGA30    0.090000        1.0080           
    1565 A    196  ETH  H3   HGA30    0.090000        1.0080           
    1566 A    196  ETH  H4   HGA30    0.090000        1.0080           
    1567 A    196  ETH  H5   HGA30    0.090000        1.0080           
    1568 A    196  ETH  H6   HGA30    0.090000        1.0080           
    1569 A    197  ETH  C1   CG3310  -0.270000       12.0110           
    1570 A    197  ETH  C2   CG3310  -0.270000       12.0110           
    1571 A    197  ETH  H1   HGA30    0.090000        1.0080           
    1572 A    197  ETH  H2   HGA30    0.090000        1.0080           
    1573 A    197  ETH  H3   HGA30    0.090000        1.0080           
    1574 A    197  ETH  H4   HGA30    0.090000        1.0080           
    1575 A    197  ETH  H5   HGA30    0.090000        1.0080           
    1576 A    197  ETH  H6   HGA30    0.090000        1.0080           
    1577 A    198  ETH  C1   CG3310  -0.270000       12.0110           
    1578 A    198  ETH  C2   CG3310  -0.270000       12.0110           
    1579 A    198  ETH  H1   HGA30    0.090000        1.0080           
    1580 A    198  ETH  H2   HGA30    0.090000        1.0080           
    1581 A    198  ETH  H3   HGA30    0.090000        1.0080           
    1582 A    198  ETH  H4   HGA30    0.090000        1.0080           
    1583 A    198  ETH  H5   HGA30    0.090000        1.0080           
    1584 A    198  ETH  H6   HGA30    0.090000        1.0080           
    1585 A    199  ETH  C1   CG3310  -0.270000       12.0110           
    1586 A    199  ETH  C2   CG3310  -0.270000       12.0110           
    1587 A    199  ETH  H1   HGA30    0.090000        1.0080           
    1588 A    199  ETH  H2   HGA30    0.090000        1.0080           
    1589 A    199  ETH  H3   HGA30    0.090000        1.0080           
    1590 A    199  ETH  H4   HGA30    0.090000        1.0080           
    1591 A    199  ETH  H5   HGA30    0.090000        1.0080           
    1592 A    199  ETH  H6   HGA30    0.090000        1.0080           
    1593 A    200  ETH  C1   CG3310  -0.270000       12.0110           
    1594 A    200  ETH  C2   CG3310  -0.270000       12.0110           
    1595 A    200  ETH  H1   HGA30    0.090000        1.0080           
    1596 A    200  ETH  H2   HGA30    0.090000        1.0080           
    1597 A    200  ETH  H3   HGA30    0.090000        1.0080           
    1598 A    200  ETH  H4   HGA30    0.090000        1.0080           
    1599 A    200  ETH  H5   HGA30    0.090000        1.0080           
    1600 A    200  ETH  H6   HGA30    0.090000        1.0080           
    1601 A    201  ETH  C1   CG3310  -0.270000       12.0110           
    1602 A    201  ETH  C2   CG3310  -0.270000       12.0110           
    1603 A    201  ETH  H1   HGA30    0.090000        1.0080           
    1604 A    201  ETH  H2   HGA30    0.090000        1.0080           
    1605 A    201  ETH  H3   HGA30    0.090000        1.0080           
    1606 A    201  ETH  H4   HGA30    0.090000        1.0080           
    1607 A    201  ETH  H5   HGA30    0.090000        1.0080           
    1608 A    201  ETH  H6   HGA30    0.090000        1.0080           
    1609 A    202  ETH  C1   CG3310  -0.270000       12.0110           
    1610 A    202  ETH  C2   CG3310  -0.270000       12.0110           
    1611 A    202  ETH  H1   HGA30    0.090000        1.0080           
    1612 A    202  ETH  H2   HGA30    0.090000        1.0080           
    1613 A    202  ETH  H3   HGA30    0.090000        1.0080           
    1614 A    202  ETH  H4   HGA30    0.090000        1.0080           
    1615 A    202  ETH  H5   HGA30    0.090000        1.0080           
    1616 A    202  ETH  H6   HGA30    0.090000        1.0080           
    1617 A    203  ETH  C1   CG3310  -0.270000       12.0110           
    1618 A    203  ETH  C2   CG3310  -0.270000       12.0110           
    1619 A    203  ETH  H1   HGA30    0.090000        1.0080           
    1620 A    203  ETH  H2   HGA30    0.090000        1.0080           
    1621 A    203  ETH  H3   HGA30    0.090000        1.0080           
    1622 A    203  ETH  H4   HGA30    0.090000        1.0080           
    1623 A    203  ETH  H5   HGA30    0.090000        1.0080           
    1624 A    203  ETH  H6   HGA30    0.090000        1.0080           
    1625 A    204  ETH  C1   CG3310  -0.270000       12.0110           
    1626 A    204  ETH  C2   CG3310  -0.270000       12.0110           
    1627 A    204  ETH  H1   HGA30    0.090000        1.0080           
    1628 A    204  ETH  H2   HGA30    0.090000        1.0080           
    1629 A    204  ETH  H3   HGA30    0.090000        1.0080           
    1630 A    204  ETH  H4   HGA30    0.090000        1.0080           
    1631 A    204  ETH  H5   HGA30    0.090000        1.0080           
    1632 A    204  ETH  H6   HGA30    0.090000        1.0080           
    1633 A    205  ETH  C1   CG3310  -0.270000       12.0110           
    1634 A    205  ETH  C2   CG3310  -0.270000       12.0110           
    1635 A    205  ETH  H1   HGA30    0.090000        1.0080           
    1636 A    205  ETH  H2   HGA30    0.090000        1.0080           
    1637 A    205  ETH  H3   HGA30    0.090000        1.0080           
    1638 A    205  ETH  H4   HGA30    0.090000        1.0080           
    1639 A    205  ETH  H5   HGA30    0.090000        1.0080           
    1640 A    205  ETH  H6   HGA30    0.090000        1.0080           
    1641 A    206  ETH  C1   CG3310  -0.270000       12.0110           
    1642 A    206  ETH  C2   CG3310  -0.270000       12.0110           
    1643 A    206  ETH  H1   HGA30    0.090000        1.0080           
    1644 A    206  ETH  H2   HGA30    0.090000        1.0080           
    1645 A    206  ETH  H3   HGA30    0.090000        1.0080           
    1646 A    206  ETH  H4   HGA30    0.090000        1.0080           
    1647 A    206  ETH  H5   HGA30    0.090000        1.0080           
    1648 A    206  ETH  H6   HGA30    0.090000        1.0080           
    1649 A    207  ETH  C1   CG3310  -0.270000       12.0110           
    1650 A    207  ETH  C2   CG3310  -0.270000       12.0110           
    1651 A    207  ETH  H1   HGA30    0.090000        1.0080           
    1652 A    207  ETH  H2   HGA30    0.090000        1.0080           
    1653 A    207  ETH  H3   HGA30    0.090000        1.0080           
    1654 A    207  ETH  H4   HGA30    0.090000        1.0080           
    1655 A    207  ETH  H5   HGA30    0.090000        1.0080           
    1656 A    207  ETH  H6   HGA30    0.090000        1.0080           
    1657 A    208  ETH  C1   CG3310  -0.270000       12.0110           
    1658 A    208  ETH  C2   CG3310  -0.270000       12.0110           
    1659 A    208  ETH  H1   HGA30    0.090000        1.0080           
    1660 A    208  ETH  H2   HGA30    0.090000        1.0080           
    1661 A    208  ETH  H3   HGA30    0.090000        1.0080           
    1662 A    208  ETH  H4   HGA30    0.090000        1.0080           
    1663 A    208  ETH  H5   HGA30    0.090000        1.0080           
    1664 A    208  ETH  H6   HGA30    0.090000        1.0080           
    1665 A    209  ETH  C1   CG3310  -0.270000       12.0110           
    1666 A    209  ETH  C2   CG3310  -0.270000       12.0110           
    1667 A    209  ETH  H1   HGA30    0.090000        1.0080           
    1668 A    209  ETH  H2   HGA30    0.090000        1.0080           
    1669 A    209  ETH  H3   HGA30    0.090000        1.0080           
    1670 A    209  ETH  H4   HGA30    0.090000        1.0080           
    1671 A    209  ETH  H5   HGA30    0.090000        1.0080           
    1672 A    209  ETH  H6   HGA30    0.090000        1.0080           
    1673 A    210  ETH  C1   CG3310  -0.270000       12.0110           
    1674 A    210  ETH  C2   CG3310  -0.270000       12.0110           
    1675 A    210  ETH  H1   HGA30    0.090000        1.0080           
    1676 A    210  ETH  H2   HGA30    0.090000        1.0080           
    1677 A    210  ETH  H3   HGA30    0.090000        1.0080           
    1678 A    210  ETH  H4   HGA30    0.090000        1.0080           
    1679 A    210  ETH  H5   HGA30    0.090000        1.0080           
    1680 A    210  ETH  H6   HGA30    0.090000        1.0080           
    1681 A    211  ETH  C1   CG3310  -0.270000       12.0110           
    1682 A    211  ETH  C2   CG3310  -0.270000       12.0110           
    1683 A    211  ETH  H1   HGA30    0.090000        1.0080           
    1684 A    211  ETH  H2   HGA30    0.090000        1.0080           
    1685 A    211  ETH  H3   HGA30    0.090000        1.0080           
    1686 A    211  ETH  H4   HGA30    0.090000        1.0080           
    1687 A    211  ETH  H5   HGA30    0.090000        1.0080           
    1688 A    211  ETH  H6   HGA30    0.090000        1.0080           
    1689 A    212  ETH  C1   CG3310  -0.270000       12.0110           
    1690 A    212  ETH  C2   CG3310  -0.270000       12.0110           
    1691 A    212  ETH  H1   HGA30    0.090000        1.0080           
    1692 A    212  ETH  H2   HGA30    0.090000        1.0080           
    1693 A    212  ETH  H3   HGA30    0.090000        1.0080           
    1694 A    212  ETH  H4   HGA30    0.090000        1.0080           
    1695 A    212  ETH  H5   HGA30    0.090000        1.0080           
    1696 A    212  ETH  H6   HGA30    0.090000        1.0080           
    1697 A    213  ETH  C1   CG3310  -0.270000       12.0110           
    1698 A    213  ETH  C2   CG3310  -0.270000       12.0110           
    1699 A    213  ETH  H1   HGA30    0.090000        1.0080           
    1700 A    213  ETH  H2   HGA30    0.090000        1.0080           
    1701 A    213  ETH  H3   HGA30    0.090000        1.0080           
    1702 A    213  ETH  H4   HGA30    0.090000        1.0080           
    1703 A    213  ETH  H5   HGA30    0.090000        1.0080           
    1704 A    213  ETH  H6   HGA30    0.090000        1.0080           
    1705 A    214  ETH  C1   CG3310  -0.270000       12.0110           
    1706 A    214  ETH  C2   CG3310  -0.270000       12.0110           
    1707 A    214  ETH  H1   HGA30    0.090000        1.0080           
    1708 A    214  ETH  H2   HGA30    0.090000        1.0080           
    1709 A    214  ETH  H3   HGA30    0.090000        1.0080           
    1710 A    214  ETH  H4   HGA30    0.090000        1.0080           
    1711 A    214  ETH  H5   HGA30    0.090000        1.0080           
    1712 A    214  ETH  H6   HGA30    0.090000        1.0080           
    1713 A    215  ETH  C1   CG3310  -0.270000       12.0110           
    1714 A    215  ETH  C2   CG3310  -0.270000       12.0110           
    1715 A    215  ETH  H1   HGA30    0.090000        1.0080           
    1716 A    215  ETH  H2   HGA30    0.090000        1.0080           
    1717 A    215  ETH  H3   HGA30    0.090000        1.0080           
    1718 A    215  ETH  H4   HGA30    0.090000        1.0080           
    1719 A    215  ETH  H5   HGA30    0.090000        1.0080           
    1720 A    215  ETH  H6   HGA30    0.090000        1.0080           
    1721 A    216  ETH  C1   CG3310  -0.270000       12.0110           
    1722 A    216  ETH  C2   CG3310  -0.270000       12.0110           
    1723 A    216  ETH  H1   HGA30    0.090000        1.0080           
    1724 A    216  ETH  H2   HGA30    0.090000        1.0080           
    1725 A    216  ETH  H3   HGA30    0.090000        1.0080           
    1726 A    216  ETH  H4   HGA30    0.090000        1.0080           
    1727 A    216  ETH  H5   HGA30    0.090000        1.0080           
    1728 A    216  ETH  H6   HGA30    0.090000        1.0080           
    1729 A    217  ETH  C1   CG3310  -0.270000       12.0110           
    1730 A    217  ETH  C2   CG3310  -0.270000       12.0110           
    1731 A    217  ETH  H1   HGA30    0.090000        1.0080           
    1732 A    217  ETH  H2   HGA30    0.090000        1.0080           
    1733 A    217  ETH  H3   HGA30    0.090000        1.0080           
    1734 A    217  ETH  H4   HGA30    0.090000        1.0080           
    1735 A    217  ETH  H5   HGA30    0.090000        1.0080           
    1736 A    217  ETH  H6   HGA30    0.090000        1.0080           
    1737 A    218  ETH  C1   CG3310  -0.270000       12.0110           
    1738 A    218  ETH  C2   CG3310  -0.270000       12.0110           
    1739 A    218  ETH  H1   HGA30    0.090000        1.0080           
    1740 A    218  ETH  H2   HGA30    0.090000        1.0080           
    1741 A    218  ETH  H3   HGA30    0.090000        1.0080           
    1742 A    218  ETH  H4   HGA30    0.090000        1.0080           
    1743 A    218  ETH  H5   HGA30    0.090000        1.0080           
    1744 A    218  ETH  H6   HGA30    0.090000        1.0080           
    1745 A    219  ETH  C1   CG3310  -0.270000       12.0110           
    1746 A    219  ETH  C2   CG3310  -0.270000       12.0110           
    1747 A    219  ETH  H1   HGA30    0.090000        1.0080           
    1748 A    219  ETH  H2   HGA30    0.090000        1.0080           
    1749 A    219  ETH  H3   HGA30    0.090000        1.0080           
    1750 A    219  ETH  H4   HGA30    0.090000        1.0080           
    1751 A    219  ETH  H5   HGA30    0.090000        1.0080           
    1752 A    219  ETH  H6   HGA30    0.090000        1.0080           
    1753 A    220  ETH  C1   CG3310  -0.270000       12.0110           
    1754 A    220  ETH  C2   CG3310  -0.270000       12.0110           
    1755 A    220  ETH  H1   HGA30    0.090000        1.0080           
    1756 A    220  ETH  H2   HGA30    0.090000        1.0080           
    1757 A    220  ETH  H3   HGA30    0.090000        1.0080           
    1758 A    220  ETH  H4   HGA30    0.090000        1.0080           
    1759 A    220  ETH  H5   HGA30    0.090000        1.0080           
    1760 A    220  ETH  H6   HGA30    0.090000        1.0080           
    1761 A    221  ETH  C1   CG3310  -0.270000       12.0110           
    1762 A    221  ETH  C2   CG3310  -0.270000       12.0110           
    1763 A    221  ETH  H1   HGA30    0.090000        1.0080           
    1764 A    221  ETH  H2   HGA30    0.090000        1.0080           
    1765 A    221  ETH  H3   HGA30    0.090000        1.0080           
    1766 A    221  ETH  H4   HGA30    0.090000        1.0080           
    1767 A    221  ETH  H5   HGA30    0.090000        1.0080           
    1768 A    221  ETH  H6   HGA30    0.090000        1.0080           
    1769 A    222  ETH  C1   CG3310  -0.270000       12.0110           
    1770 A    222  ETH  C2   CG3310  -0.270000       12.0110           
    1771 A    222  ETH  H1   HGA30    0.090000        1.0080           
    1772 A    222  ETH  H2   HGA30    0.090000        1.0080           
    1773 A    222  ETH  H3   HGA30    0.090000        1.0080           
    1774 A    222  ETH  H4   HGA30    0.090000        1.0080           
    1775 A    222  ETH  H5   HGA30    0.090000        1.0080           
    1776 A    222  ETH  H6   HGA30    0.090000        1.0080           
    1777 A    223  ETH  C1   CG3310  -0.270000       12.0110           
    1778 A    223  ETH  C2   CG3310  -0.270000       12.0110           
    1779 A    223  ETH  H1   HGA30    0.090000        1.0080           
    1780 A    223  ETH  H2   HGA30    0.090000        1.0080           
    1781 A    223  ETH  H3   HGA30    0.090000        1.0080           
    1782 A    223  ETH  H4   HGA30    0.090000        1.0080           
    1783 A    223  ETH  H5   HGA30    0.090000        1.0080           
    1784 A    223  ETH  H6   HGA30    0.090000        1.0080           
    1785 A    224  ETH  C1   CG3310  -0.270000       12.0110           
    1786 A    224  ETH  C2   CG3310  -0.270000       12.0110           
    1787 A    224  ETH  H1   HGA30    0.090000        1.0080           
    1788 A    224  ETH  H2   HGA30    0.090000        1.0080           
    1789 A    224  ETH  H3   HGA30    0.090000        1.0080           
    1790 A    224  ETH  H4   HGA30    0.090000        1.0080           
    1791 A    224  ETH  H5   HGA30    0.090000        1.0080           
    1792 A    224  ETH  H6   HGA30    0.090000        1.0080           
    1793 A    225  ETH  C1   CG3310  -0.270000       12.0110           
    1794 A    225  ETH  C2   CG3310  -0.270000       12.0110           
    1795 A    225  ETH  H1   HGA30    0.090000        1.0080           
    1796 A    225  ETH  H2   HGA30    0.090000        1.0080           
    1797 A    225  ETH  H3   HGA30    0.090000        1.0080           
    1798 A    225  ETH  H4   HGA30    0.090000        1.0080           
    1799 A    225  ETH  H5   HGA30    0.090000        1.0080           
    1800 A    225  ETH  H6   HGA30    0.090000        1.0080           
    1801 A    226  ETH  C1   CG3310  -0.270000       12.0110           
    1802 A    226  ETH  C2   CG3310  -0.270000       12.0110           
    1803 A    226  ETH  H1   HGA30    0.090000        1.0080           
    1804 A    226  ETH  H2   HGA30    0.090000        1.0080           
    1805 A    226  ETH  H3   HGA30    0.090000        1.0080           
    1806 A    226  ETH  H4   HGA30    0.090000        1.0080           
    1807 A    226  ETH  H5   HGA30    0.090000        1.0080           
    1808 A    226  ETH  H6   HGA30    0.090000        1.0080           
    1809 A    227  ETH  C1   CG3310  -0.270000       12.0110           
    1810 A    227  ETH  C2   CG3310  -0.270000       12.0110           
    1811 A    227  ETH  H1   HGA30    0.090000        1.0080           
    1812 A    227  ETH  H2   HGA30    0.090000        1.0080           
    1813 A    227  ETH  H3   HGA30    0.090000        1.0080           
    1814 A    227  ETH  H4   HGA30    0.090000        1.0080           
    1815 A    227  ETH  H5   HGA30    0.090000        1.0080           
    1816 A    227  ETH  H6   HGA30    0.090000        1.0080           
    1817 A    228  ETH  C1   CG3310  -0.270000       12.0110           
    1818 A    228  ETH  C2   CG3310  -0.270000       12.0110           
    1819 A    228  ETH  H1   HGA30    0.090000        1.0080           
    1820 A    228  ETH  H2   HGA30    0.090000        1.0080           
    1821 A    228  ETH  H3   HGA30    0.090000        1.0080           
    1822 A    228  ETH  H4   HGA30    0.090000        1.0080           
    1823 A    228  ETH  H5   HGA30    0.090000        1.0080           
    1824 A    228  ETH  H6   HGA30    0.090000        1.0080           
    1825 A    229  ETH  C1   CG3310  -0.270000       12.0110           
    1826 A    229  ETH  C2   CG3310  -0.270000       12.0110           
    1827 A    229  ETH  H1   HGA30    0.090000        1.0080           
    1828 A    229  ETH  H2   HGA30    0.090000        1.0080           
    1829 A    229  ETH  H3   HGA30    0.090000        1.0080           
    1830 A    229  ETH  H4   HGA30    0.090000        1.0080           
    1831 A    229  ETH  H5   HGA30    0.090000        1.0080           
    1832 A    229  ETH  H6   HGA30    0.090000        1.0080           
    1833 A    230  ETH  C1   CG3310  -0.270000       12.0110           
    1834 A    230  ETH  C2   CG3310  -0.270000       12.0110           
    1835 A    230  ETH  H1   HGA30    0.090000        1.0080           
    1836 A    230  ETH  H2   HGA30    0.090000        1.0080           
    1837 A    230  ETH  H3   HGA30    0.090000        1.0080           
    1838 A    230  ETH  H4   HGA30    0.090000        1.0080           
    1839 A    230  ETH  H5   HGA30    0.090000        1.0080           
    1840 A    230  ETH  H6   HGA30    0.090000        1.0080           
    1841 A    231  ETH  C1   CG3310  -0.270000       12.0110           
    1842 A    231  ETH  C2   CG3310  -0.270000       12.0110           
    1843 A    231  ETH  H1   HGA30    0.090000        1.0080           
    1844 A    231  ETH  H2   HGA30    0.090000        1.0080           
    1845 A    231  ETH  H3   HGA30    0.090000        1.0080           
    1846 A    231  ETH  H4   HGA30    0.090000        1.0080           
    1847 A    231  ETH  H5   HGA30    0.090000        1.0080           
    1848 A    231  ETH  H6   HGA30    0.090000        1.0080           
    1849 A    232  ETH  C1   CG3310  -0.270000       12.0110           
    1850 A    232  ETH  C2   CG3310  -0.270000       12.0110           
    1851 A    232  ETH  H1   HGA30    0.090000        1.0080           
    1852 A    232  ETH  H2   HGA30    0.090000        1.0080           
    1853 A    232  ETH  H3   HGA30    0.090000        1.0080           
    1854 A    232  ETH  H4   HGA30    0.090000        1.0080           
    1855 A    232  ETH  H5   HGA30    0.090000        1.0080           
    1856 A    232  ETH  H6   HGA30    0.090000        1.0080           
    1857 A    233  ETH  C1   CG3310  -0.270000       12.0110           
    1858 A    233  ETH  C2   CG3310  -0.270000       12.0110           
    1859 A    233  ETH  H1   HGA30    0.090000        1.0080           
    1860 A    233  ETH  H2   HGA30    0.090000        1.0080           
    1861 A    233  ETH  H3   HGA30    0.090000        1.0080           
    1862 A    233  ETH  H4   HGA30    0.090000        1.0080           
    1863 A    233  ETH  H5   HGA30    0.090000        1.0080           
    1864 A    233  ETH  H6   HGA30    0.090000        1.0080           
    1865 A    234  ETH  C1   CG3310  -0.270000       12.0110           
    1866 A    234  ETH  C2   CG3310  -0.270000       12.0110           
    1867 A    234  ETH  H1   HGA30    0.090000        1.0080           
    1868 A    234  ETH  H2   HGA30    0.090000        1.0080           
    1869 A    234  ETH  H3   HGA30    0.090000        1.0080           
    1870 A    234  ETH  H4   HGA30    0.090000        1.0080           
    1871 A    234  ETH  H5   HGA30    0.090000        1.0080           
    1872 A    234  ETH  H6   HGA30    0.090000        1.0080           
    1873 A    235  ETH  C1   CG3310  -0.270000       12.0110           
    1874 A    235  ETH  C2   CG3310  -0.270000       12.0110           
    1875 A    235  ETH  H1   HGA30    0.090000        1.0080           
    1876 A    235  ETH  H2   HGA30    0.090000        1.0080           
    1877 A    235  ETH  H3   HGA30    0.090000        1.0080           
    1878 A    235  ETH  H4   HGA30    0.090000        1.0080           
    1879 A    235  ETH  H5   HGA30    0.090000        1.0080           
    1880 A    235  ETH  H6   HGA30    0.090000        1.0080           
    1881 A    236  ETH  C1   CG3310  -0.270000       12.0110           
    1882 A    236  ETH  C2   CG3310  -0.270000       12.0110           
    1883 A    236  ETH  H1   HGA30    0.090000        1.0080           
    1884 A    236  ETH  H2   HGA30    0.090000        1.0080           
    1885 A    236  ETH  H3   HGA30    0.090000        1.0080           
    1886 A    236  ETH  H4   HGA30    0.090000        1.0080           
    1887 A    236  ETH  H5   HGA30    0.090000        1.0080           
    1888 A    236  ETH  H6   HGA30    0.090000        1.0080           
    1889 A    237  ETH  C1   CG3310  -0.270000       12.0110           
    1890 A    237  ETH  C2   CG3310  -0.270000       12.0110           
    1891 A    237  ETH  H1   HGA30    0.090000        1.0080           
    1892 A    237  ETH  H2   HGA30    0.090000        1.0080           
    1893 A    237  ETH  H3   HGA30    0.090000        1.0080           
    1894 A    237  ETH  H4   HGA30    0.090000        1.0080           
    1895 A    237  ETH  H5   HGA30    0.090000        1.0080           
    1896 A    237  ETH  H6   HGA30    0.090000        1.0080           
    1897 A    238  ETH  C1   CG3310  -0.270000       12.0110           
    1898 A    238  ETH  C2   CG3310  -0.270000       12.0110           
    1899 A    238  ETH  H1   HGA30    0.090000        1.0080           
    1900 A    238  ETH  H2   HGA30    0.090000        1.0080           
    1901 A    238  ETH  H3   HGA30    0.090000        1.0080           
    1902 A    238  ETH  H4   HGA30    0.090000        1.0080           
    1903 A    238  ETH  H5   HGA30    0.090000        1.0080           
    1904 A    238  ETH  H6   HGA30    0.090000        1.0080           
    1905 A    239  ETH  C1   CG3310  -0.270000       12.0110           
    1906 A    239  ETH  C2   CG3310  -0.270000       12.0110           
    1907 A    239  ETH  H1   HGA30    0.090000        1.0080           
    1908 A    239  ETH  H2   HGA30    0.090000        1.0080           
    1909 A    239  ETH  H3   HGA30    0.090000        1.0080           
    1910 A    239  ETH  H4   HGA30    0.090000        1.0080           
    1911 A    239  ETH  H5   HGA30    0.090000        1.0080           
    1912 A    239  ETH  H6   HGA30    0.090000        1.0080           
    1913 A    240  ETH  C1   CG3310  -0.270000       12.0110           
    1914 A    240  ETH  C2   CG3310  -0.270000       12.0110           
    1915 A    240  ETH  H1   HGA30    0.090000        1.0080           
    1916 A    240  ETH  H2   HGA30    0.090000        1.0080           
    1917 A    240  ETH  H3   HGA30    0.090000        1.0080           
    1918 A    240  ETH  H4   HGA30    0.090000        1.0080           
    1919 A    240  ETH  H5   HGA30    0.090000        1.0080           
    1920 A    240  ETH  H6   HGA30    0.090000        1.0080           
    1921 A    241  ETH  C1   CG3310  -0.270000       12.0110           
    1922 A    241  ETH  C2   CG3310  -0.270000       12.0110           
    1923 A    241  ETH  H1   HGA30    0.090000        1.0080           
    1924 A    241  ETH  H2   HGA30    0.090000        1.0080           
    1925 A    241  ETH  H3   HGA30    0.090000        1.0080           
    1926 A    241  ETH  H4   HGA30    0.090000        1.0080           
    1927 A    241  ETH  H5   HGA30    0.090000        1.0080           
    1928 A    241  ETH  H6   HGA30    0.090000        1.0080           
    1929 A    242  ETH  C1   CG3310  -0.270000       12.0110           
    1930 A    242  ETH  C2   CG3310  -0.270000       12.0110           
    1931 A    242  ETH  H1   HGA30    0.090000        1.0080           
    1932 A    242  ETH  H2   HGA30    0.090000        1.0080           
    1933 A    242  ETH  H3   HGA30    0.090000        1.0080           
    1934 A    242  ETH  H4   HGA30    0.090000        1.0080           
    1935 A    242  ETH  H5   HGA30    0.090000        1.0080           
    1936 A    242  ETH  H6   HGA30    0.090000        1.0080           
    1937 A    243  ETH  C1   CG3310  -0.270000       12.0110           
    1938 A    243  ETH  C2   CG3310  -0.270000       12.0110           
    1939 A    243  ETH  H1   HGA30    0.090000        1.0080           
    1940 A    243  ETH  H2   HGA30    0.090000        1.0080           
    1941 A    243  ETH  H3   HGA30    0.090000        1.0080           
    1942 A    243  ETH  H4   HGA30    0.090000        1.0080           
    1943 A    243  ETH  H5   HGA30    0.090000        1.0080           
    1944 A    243  ETH  H6   HGA30    0.090000        1.0080           
    1945 A    244  ETH  C1   CG3310  -0.270000       12.0110           
    1946 A    244  ETH  C2   CG3310  -0.270000       12.0110           
    1947 A    244  ETH  H1   HGA30    0.090000        1.0080           
    1948 A    244  ETH  H2   HGA30    0.090000        1.0080           
    1949 A    244  ETH  H3   HGA30    0.090000        1.0080           
    1950 A    244  ETH  H4   HGA30    0.090000        1.0080           
    1951 A    244  ETH  H5   HGA30    0.090000        1.0080           
    1952 A    244  ETH  H6   HGA30    0.090000        1.0080           
    1953 A    245  ETH  C1   CG3310  -0.270000       12.0110           
    1954 A    245  ETH  C2   CG3310  -0.270000       12.0110           
    1955 A    245  ETH  H1   HGA30    0.090000        1.0080           
    1956 A    245  ETH  H2   HGA30    0.090000        1.0080           
    1957 A    245  ETH  H3   HGA30    0.090000        1.0080           
    1958 A    245  ETH  H4   HGA30    0.090000        1.0080           
    1959 A    245  ETH  H5   HGA30    0.090000        1.0080           
    1960 A    245  ETH  H6   HGA30    0.090000        1.0080           
    1961 A    246  ETH  C1   CG3310  -0.270000       12.0110           
    1962 A    246  ETH  C2   CG3310  -0.270000       12.0110           
    1963 A    246  ETH  H1   HGA30    0.090000        1.0080           
    1964 A    246  ETH  H2   HGA30    0.090000        1.0080           
    1965 A    246  ETH  H3   HGA30    0.090000        1.0080           
    1966 A    246  ETH  H4   HGA30    0.090000        1.0080           
    1967 A    246  ETH  H5   HGA30    0.090000        1.0080           
    1968 A    246  ETH  H6   HGA30    0.090000        1.0080           
    1969 A    247  ETH  C1   CG3310  -0.270000       12.0110           
    1970 A    247  ETH  C2   CG3310  -0.270000       12.0110           
    1971 A    247  ETH  H1   HGA30    0.090000        1.0080           
    1972 A    247  ETH  H2   HGA30    0.090000        1.0080           
    1973 A    247  ETH  H3   HGA30    0.090000        1.0080           
    1974 A    247  ETH  H4   HGA30    0.090000        1.0080           
    1975 A    247  ETH  H5   HGA30    0.090000        1.0080           
    1976 A    247  ETH  H6   HGA30    0.090000        1.0080           
    1977 A    248  ETH  C1   CG3310  -0.270000       12.0110           
    1978 A    248  ETH  C2   CG3310  -0.270000       12.0110           
    1979 A    248  ETH  H1   HGA30    0.090000        1.0080           
    1980 A    248  ETH  H2   HGA30    0.090000        1.0080           
    1981 A    248  ETH  H3   HGA30    0.090000        1.0080           
    1982 A    248  ETH  H4   HGA30    0.090000        1.0080           
    1983 A    248  ETH  H5   HGA30    0.090000        1.0080           
    1984 A    248  ETH  H6   HGA30    0.090000        1.0080           
    1985 A    249  ETH  C1   CG3310  -0.270000       12.0110           
    1986 A    249  ETH  C2   CG3310  -0.270000       12.0110           
    1987 A    249  ETH  H1   HGA30    0.090000        1.0080           
    1988 A    249  ETH  H2   HGA30    0.090000        1.0080           
    1989 A    249  ETH  H3   HGA30    0.090000        1.0080           
    1990 A    249  ETH  H4   HGA30    0.090000        1.0080           
    1991 A    249  ETH  H5   HGA30    0.090000        1.0080           
    1992 A    249  ETH  H6   HGA30    0.090000        1.0080           
    1993 A    250  ETH  C1   CG3310  -0.270000       12.0110           
    1994 A    250  ETH  C2   CG3310  -0.270000       12.0110           
    1995 A    250  ETH  H1   HGA30    0.090000        1.0080           
    1996 A    250  ETH  H2   HGA30    0.090000        1.0080           
    1997 A    250  ETH  H3   HGA30    0.090000        1.0080           
    1998 A    250  ETH  H4   HGA30    0.090000        1.0080           
    1999 A    250  ETH  H5   HGA30    0.090000        1.0080           
    2000 A    250  ETH  H6   HGA30    0.090000        1.0080           
    2001 A    251  ETH  C1   CG3310  -0.270000       12.0110           
    2002 A    251  ETH  C2   CG3310  -0.270000       12.0110           
    2003 A    251  ETH  H1   HGA30    0.090000        1.0080           
    2004 A    251  ETH  H2   HGA30    0.090000        1.0080           
    2005 A    251  ETH  H3   HGA30    0.090000        1.0080           
    2006 A    251  ETH  H4   HGA30    0.090000        1.0080           
    2007 A    251  ETH  H5   HGA30    0.090000        1.0080           
    2008 A    251  ETH  H6   HGA30    0.090000        1.0080           
    2009 A    252  ETH  C1   CG3310  -0.270000       12.0110           
    2010 A    252  ETH  C2   CG3310  -0.270000       12.0110           
    2011 A    252  ETH  H1   HGA30    0.090000        1.0080           
    2012 A    252  ETH  H2   HGA30    0.090000        1.0080           
    2013 A    252  ETH  H3   HGA30    0.090000        1.0080           
    2014 A    252  ETH  H4   HGA30    0.090000        1.0080           
    2015 A    252  ETH  H5   HGA30    0.090000        1.0080           
    2016 A    252  ETH  H6   HGA30    0.090000        1.0080           
    2017 A    253  ETH  C1   CG3310  -0.270000       12.0110           
    2018 A    253  ETH  C2   CG3310  -0.270000       12.0110           
    2019 A    253  ETH  H1   HGA30    0.090000        1.0080           
    2020 A    253  ETH  H2   HGA30    0.090000        1.0080           
    2021 A    253  ETH  H3   HGA30    0.090000        1.0080           
    2022 A    253  ETH  H4   HGA30    0.090000        1.0080           
    2023 A    253  ETH  H5   HGA30    0.090000        1.0080           
    2024 A    253  ETH  H6   HGA30    0.090000        1.0080           
    2025 A    254  ETH  C1   CG3310  -0.270000       12.0110           
    2026 A    254  ETH  C2   CG3310  -0.270000       12.0110           
    2027 A    254  ETH  H1   HGA30    0.090000        1.0080           
    2028 A    254  ETH  H2   HGA30    0.090000        1.0080           
    2029 A    254  ETH  H3   HGA30    0.090000        1.0080           
    2030 A    254  ETH  H4   HGA30    0.090000        1.0080           
    2031 A    254  ETH  H5   HGA30    0.090000        1.0080           
    2032 A    254  ETH  H6   HGA30    0.090000        1.0080           
    2033 A    255  ETH  C1   CG3310  -0.270000       12.0110           
    2034 A    255  ETH  C2   CG3310  -0.270000       12.0110           
    2035 A    255  ETH  H1   HGA30    0.090000        1.0080           
    2036 A    255  ETH  H2   HGA30    0.090000        1.0080           
    2037 A    255  ETH  H3   HGA30    0.090000        1.0080           
    2038 A    255  ETH  H4   HGA30    0.090000        1.0080           
    2039 A    255  ETH  H5   HGA30    0.090000        1.0080           
    2040 A    255  ETH  H6   HGA30    0.090000        1.0080           
    2041 A    256  ETH  C1   CG3310  -0.270000       12.0110           
    2042 A    256  ETH  C2   CG3310  -0.270000       12.0110           
    2043 A    256  ETH  H1   HGA30    0.090000        1.0080           
    2044 A    256  ETH  H2   HGA30    0.090000        1.0080           
    2045 A    256  ETH  H3   HGA30    0.090000        1.0080           
    2046 A    256  ETH  H4   HGA30    0.090000        1.0080           
    2047 A    256  ETH  H5   HGA30    0.090000        1.0080           
    2048 A    256  ETH  H6   HGA30    0.090000        1.0080           
    2049 A    257  ETH  C1   CG3310  -0.270000       12.0110           
    2050 A    257  ETH  C2   CG3310  -0.270000       12.0110           
    2051 A    257  ETH  H1   HGA30    0.090000        1.0080           
    2052 A    257  ETH  H2   HGA30    0.090000        1.0080           
    2053 A    257  ETH  H3   HGA30    0.090000        1.0080           
    2054 A    257  ETH  H4   HGA30    0.090000        1.0080           
    2055 A    257  ETH  H5   HGA30    0.090000        1.0080           
    2056 A    257  ETH  H6   HGA30    0.090000        1.0080           
    2057 A    258  ETH  C1   CG3310  -0.270000       12.0110           
    2058 A    258  ETH  C2   CG3310  -0.270000       12.0110           
    2059 A    258  ETH  H1   HGA30    0.090000        1.0080           
    2060 A    258  ETH  H2   HGA30    0.090000        1.0080           
    2061 A    258  ETH  H3   HGA30    0.090000        1.0080           
    2062 A    258  ETH  H4   HGA30    0.090000        1.0080           
    2063 A    258  ETH  H5   HGA30    0.090000        1.0080           
    2064 A    258  ETH  H6   HGA30    0.090000        1.0080           
    2065 A    259  ETH  C1   CG3310  -0.270000       12.0110           
    2066 A    259  ETH  C2   CG3310  -0.270000       12.0110           
    2067 A    259  ETH  H1   HGA30    0.090000        1.0080           
    2068 A    259  ETH  H2   HGA30    0.090000        1.0080           
    2069 A    259  ETH  H3   HGA30    0.090000        1.0080           
    2070 A    259  ETH  H4   HGA30    0.090000        1.0080           
    2071 A    259  ETH  H5   HGA30    0.090000        1.0080           
    2072 A    259  ETH  H6   HGA30    0.090000        1.0080           
    2073 A    260  ETH  C1   CG3310  -0.270000       12.0110           
    2074 A    260  ETH  C2   CG3310  -0.270000       12.0110           
    2075 A    260  ETH  H1   HGA30    0.090000        1.0080           
    2076 A    260  ETH  H2   HGA30    0.090000        1.0080           
    2077 A    260  ETH  H3   HGA30    0.090000        1.0080           
    2078 A    260  ETH  H4   HGA30    0.090000        1.0080           
    2079 A    260  ETH  H5   HGA30    0.090000        1.0080           
    2080 A    260  ETH  H6   HGA30    0.090000        1.0080           
    2081 A    261  ETH  C1   CG3310  -0.270000       12.0110           
    2082 A    261  ETH  C2   CG3310  -0.270000       12.0110           
    2083 A    261  ETH  H1   HGA30    0.090000        1.0080           
    2084 A    261  ETH  H2   HGA30    0.090000        1.0080           
    2085 A    261  ETH  H3   HGA30    0.090000        1.0080           
    2086 A    261  ETH  H4   HGA30    0.090000        1.0080           
    2087 A    261  ETH  H5   HGA30    0.090000        1.0080           
    2088 A    261  ETH  H6   HGA30    0.090000        1.0080           
    2089 A    262  ETH  C1   CG3310  -0.270000       12.0110           
    2090 A    262  ETH  C2   CG3310  -0.270000       12.0110           
    2091 A    262  ETH  H1   HGA30    0.090000        1.0080           
    2092 A    262  ETH  H2   HGA30    0.090000        1.0080           
    2093 A    262  ETH  H3   HGA30    0.090000        1.0080           
    2094 A    262  ETH  H4   HGA30    0.090000        1.0080           
    2095 A    262  ETH  H5   HGA30    0.090000        1.0080           
    2096 A    262  ETH  H6   HGA30    0.090000        1.0080           
    2097 A    263  ETH  C1   CG3310  -0.270000       12.0110           
    2098 A    263  ETH  C2   CG3310  -0.270000       12.0110           
    2099 A    263  ETH  H1   HGA30    0.090000        1.0080           
    2100 A    263  ETH  H2   HGA30    0.090000        1.0080           
    2101 A    263  ETH  H3   HGA30    0.090000        1.0080           
    2102 A    263  ETH  H4   HGA30    0.090000        1.0080           
    2103 A    263  ETH  H5   HGA30    0.090000        1.0080           
    2104 A    263  ETH  H6   HGA30    0.090000        1.0080           
    2105 A    264  ETH  C1   CG3310  -0.270000       12.0110           
    2106 A    264  ETH  C2   CG3310  -0.270000       12.0110           
    2107 A    264  ETH  H1   HGA30    0.090000        1.0080           
    2108 A    264  ETH  H2   HGA30    0.090000        1.0080           
    2109 A    264  ETH  H3   HGA30    0.090000        1.0080           
    2110 A    264  ETH  H4   HGA30    0.090000        1.0080           
    2111 A    264  ETH  H5   HGA30    0.090000        1.0080           
    2112 A    264  ETH  H6   HGA30    0.090000        1.0080           
    2113 A    265  ETH  C1   CG3310  -0.270000       12.0110           
    2114 A    265  ETH  C2   CG3310  -0.270000       12.0110           
    2115 A    265  ETH  H1   HGA30    0.090000        1.0080           
    2116 A    265  ETH  H2   HGA30    0.090000        1.0080           
    2117 A    265  ETH  H3   HGA30    0.090000        1.0080           
    2118 A    265  ETH  H4   HGA30    0.090000        1.0080           
    2119 A    265  ETH  H5   HGA30    0.090000        1.0080           
    2120 A    265  ETH  H6   HGA30    0.090000        1.0080           
    2121 A    266  ETH  C1   CG3310  -0.270000       12.0110           
    2122 A    266  ETH  C2   CG3310  -0.270000       12.0110           
    2123 A    266  ETH  H1   HGA30    0.090000        1.0080           
    2124 A    266  ETH  H2   HGA30    0.090000        1.0080           
    2125 A    266  ETH  H3   HGA30    0.090000        1.0080           
    2126 A    266  ETH  H4   HGA30    0.090000        1.0080           
    2127 A    266  ETH  H5   HGA30    0.090000        1.0080           
    2128 A    266  ETH  H6   HGA30    0.090000        1.0080           
    2129 A    267  ETH  C1   CG3310  -0.270000       12.0110           
    2130 A    267  ETH  C2   CG3310  -0.270000       12.0110           
    2131 A    267  ETH  H1   HGA30    0.090000        1.0080           
    2132 A    267  ETH  H2   HGA30    0.090000        1.0080           
    2133 A    267  ETH  H3   HGA30    0.090000        1.0080           
    2134 A    267  ETH  H4   HGA30    0.090000        1.0080           
    2135 A    267  ETH  H5   HGA30    0.090000        1.0080           
    2136 A    267  ETH  H6   HGA30    0.090000        1.0080           
    2137 A    268  ETH  C1   CG3310  -0.270000       12.0110           
    2138 A    268  ETH  C2   CG3310  -0.270000       12.0110           
    2139 A    268  ETH  H1   HGA30    0.090000        1.0080           
    2140 A    268  ETH  H2   HGA30    0.090000        1.0080           
    2141 A    268  ETH  H3   HGA30    0.090000        1.0080           
    2142 A    268  ETH  H4   HGA30    0.090000        1.0080           
    2143 A    268  ETH  H5   HGA30    0.090000        1.0080           
    2144 A    268  ETH  H6   HGA30    0.090000        1.0080           
    2145 A    269  ETH  C1   CG3310  -0.270000       12.0110           
    2146 A    269  ETH  C2   CG3310  -0.270000       12.0110           
    2147 A    269  ETH  H1   HGA30    0.090000        1.0080           
    2148 A    269  ETH  H2   HGA30    0.090000        1.0080           
    2149 A    269  ETH  H3   HGA30    0.090000        1.0080           
    2150 A    269  ETH  H4   HGA30    0.090000        1.0080           
    2151 A    269  ETH  H5   HGA30    0.090000        1.0080           
    2152 A    269  ETH  H6   HGA30    0.090000        1.0080           
    2153 A    270  ETH  C1   CG3310  -0.270000       12.0110           
    2154 A    270  ETH  C2   CG3310  -0.270000       12.0110           
    2155 A    270  ETH  H1   HGA30    0.090000        1.0080           
    2156 A    270  ETH  H2   HGA30    0.090000        1.0080           
    2157 A    270  ETH  H3   HGA30    0.090000        1.0080           
    2158 A    270  ETH  H4   HGA30    0.090000        1.0080           
    2159 A    270  ETH  H5   HGA30    0.090000        1.0080           
    2160 A    270  ETH  H6   HGA30    0.090000        1.0080           
    2161 A    271  ETH  C1   CG3310  -0.270000       12.0110           
    2162 A    271  ETH  C2   CG3310  -0.270000       12.0110           
    2163 A    271  ETH  H1   HGA30    0.090000        1.0080           
    2164 A    271  ETH  H2   HGA30    0.090000        1.0080           
    2165 A    271  ETH  H3   HGA30    0.090000        1.0080           
    2166 A    271  ETH  H4   HGA30    0.090000        1.0080           
    2167 A    271  ETH  H5   HGA30    0.090000        1.0080           
    2168 A    271  ETH  H6   HGA30    0.090000        1.0080           
    2169 A    272  ETH  C1   CG3310  -0.270000       12.0110           
    2170 A    272  ETH  C2   CG3310  -0.270000       12.0110           
    2171 A    272  ETH  H1   HGA30    0.090000        1.0080           
    2172 A    272  ETH  H2   HGA30    0.090000        1.0080           
    2173 A    272  ETH  H3   HGA30    0.090000        1.0080           
    2174 A    272  ETH  H4   HGA30    0.090000        1.0080           
    2175 A    272  ETH  H5   HGA30    0.090000        1.0080           
    2176 A    272  ETH  H6   HGA30    0.090000        1.0080           
    2177 A    273  ETH  C1   CG3310  -0.270000       12.0110           
    2178 A    273  ETH  C2   CG3310  -0.270000       12.0110           
    2179 A    273  ETH  H1   HGA30    0.090000        1.0080           
    2180 A    273  ETH  H2   HGA30    0.090000        1.0080           
    2181 A    273  ETH  H3   HGA30    0.090000        1.0080           
    2182 A    273  ETH  H4   HGA30    0.090000        1.0080           
    2183 A    273  ETH  H5   HGA30    0.090000        1.0080           
    2184 A    273  ETH  H6   HGA30    0.090000        1.0080           
    2185 A    274  ETH  C1   CG3310  -0.270000       12.0110           
    2186 A    274  ETH  C2   CG3310  -0.270000       12.0110           
    2187 A    274  ETH  H1   HGA30    0.090000        1.0080           
    2188 A    274  ETH  H2   HGA30    0.090000        1.0080           
    2189 A    274  ETH  H3   HGA30    0.090000        1.0080           
    2190 A    274  ETH  H4   HGA30    0.090000        1.0080           
    2191 A    274  ETH  H5   HGA30    0.090000        1.0080           
    2192 A    274  ETH  H6   HGA30    0.090000        1.0080           
    2193 A    275  ETH  C1   CG3310  -0.270000       12.0110           
    2194 A    275  ETH  C2   CG3310  -0.270000       12.0110           
    2195 A    275  ETH  H1   HGA30    0.090000        1.0080           
    2196 A    275  ETH  H2   HGA30    0.090000        1.0080           
    2197 A    275  ETH  H3   HGA30    0.090000        1.0080           
    2198 A    275  ETH  H4   HGA30    0.090000        1.0080           
    2199 A    275  ETH  H5   HGA30    0.090000        1.0080           
    2200 A    275  ETH  H6   HGA30    0.090000        1.0080           
    2201 A    276  ETH  C1   CG3310  -0.270000       12.0110           
    2202 A    276  ETH  C2   CG3310  -0.270000       12.0110           
    2203 A    276  ETH  H1   HGA30    0.090000        1.0080           
    2204 A    276  ETH  H2   HGA30    0.090000        1.0080           
    2205 A    276  ETH  H3   HGA30    0.090000        1.0080           
    2206 A    276  ETH  H4   HGA30    0.090000        1.0080           
    2207 A    276  ETH  H5   HGA30    0.090000        1.0080           
    2208 A    276  ETH  H6   HGA30    0.090000        1.0080           
    2209 A    277  ETH  C1   CG3310  -0.270000       12.0110           
    2210 A    277  ETH  C2   CG3310  -0.270000       12.0110           
    2211 A    277  ETH  H1   HGA30    0.090000        1.0080           
    2212 A    277  ETH  H2   HGA30    0.090000        1.0080           
    2213 A    277  ETH  H3   HGA30    0.090000        1.0080           
    2214 A    277  ETH  H4   HGA30    0.090000        1.0080           
    2215 A    277  ETH  H5   HGA30    0.090000        1.0080           
    2216 A    277  ETH  H6   HGA30    0.090000        1.0080           
    2217 A    278  ETH  C1   CG3310  -0.270000       12.0110           
    2218 A    278  ETH  C2   CG3310  -0.270000       12.0110           
    2219 A    278  ETH  H1   HGA30    0.090000        1.0080           
    2220 A    278  ETH  H2   HGA30    0.090000        1.0080           
    2221 A    278  ETH  H3   HGA30    0.090000        1.0080           
    2222 A    278  ETH  H4   HGA30    0.090000        1.0080           
    2223 A    278  ETH  H5   HGA30    0.090000        1.0080           
    2224 A    278  ETH  H6   HGA30    0.090000        1.0080           
    2225 A    279  ETH  C1   CG3310  -0.270000       12.0110           
    2226 A    279  ETH  C2   CG3310  -0.270000       12.0110           
    2227 A    279  ETH  H1   HGA30    0.090000        1.0080           
    2228 A    279  ETH  H2   HGA30    0.090000        1.0080           
    2229 A    279  ETH  H3   HGA30    0.090000        1.0080           
    2230 A    279  ETH  H4   HGA30    0.090000        1.0080           
    2231 A    279  ETH  H5   HGA30    0.090000        1.0080           
    2232 A    279  ETH  H6   HGA30    0.090000        1.0080           
    2233 A    280  ETH  C1   CG3310  -0.270000       12.0110           
    2234 A    280  ETH  C2   CG3310  -0.270000       12.0110           
    2235 A    280  ETH  H1   HGA30    0.090000        1.0080           
    2236 A    280  ETH  H2   HGA30    0.090000        1.0080           
    2237 A    280  ETH  H3   HGA30    0.090000        1.0080           
    2238 A    280  ETH  H4   HGA30    0.090000        1.0080           
    2239 A    280  ETH  H5   HGA30    0.090000        1.0080           
    2240 A    280  ETH  H6   HGA30    0.090000        1.0080           
    2241 A    281  ETH  C1   CG3310  -0.270000       12.0110           
    2242 A    281  ETH  C2   CG3310  -0.270000       12.0110           
    2243 A    281  ETH  H1   HGA30    0.090000        1.0080           
    2244 A    281  ETH  H2   HGA30    0.090000        1.0080           
    2245 A    281  ETH  H3   HGA30    0.090000        1.0080           
    2246 A    281  ETH  H4   HGA30    0.090000        1.0080           
    2247 A    281  ETH  H5   HGA30    0.090000        1.0080           
    2248 A    281  ETH  H6   HGA30    0.090000        1.0080           
    2249 A    282  ETH  C1   CG3310  -0.270000       12.0110           
    2250 A    282  ETH  C2   CG3310  -0.270000       12.0110           
    2251 A    282  ETH  H1   HGA30    0.090000        1.0080           
    2252 A    282  ETH  H2   HGA30    0.090000        1.0080           
    2253 A    282  ETH  H3   HGA30    0.090000        1.0080           
    2254 A    282  ETH  H4   HGA30    0.090000        1.0080           
    2255 A    282  ETH  H5   HGA30    0.090000        1.0080           
    2256 A    282  ETH  H6   HGA30    0.090000        1.0080           
    2257 A    283  ETH  C1   CG3310  -0.270000       12.0110           
    2258 A    283  ETH  C2   CG3310  -0.270000       12.0110           
    2259 A    283  ETH  H1   HGA30    0.090000        1.0080           
    2260 A    283  ETH  H2   HGA30    0.090000        1.0080           
    2261 A    283  ETH  H3   HGA30    0.090000        1.0080           
    2262 A    283  ETH  H4   HGA30    0.090000        1.0080           
    2263 A    283  ETH  H5   HGA30    0.090000        1.0080           
    2264 A    283  ETH  H6   HGA30    0.090000        1.0080           
    2265 A    284  ETH  C1   CG3310  -0.270000       12.0110           
    2266 A    284  ETH  C2   CG3310  -0.270000       12.0110           
    2267 A    284  ETH  H1   HGA30    0.090000        1.0080           
    2268 A    284  ETH  H2   HGA30    0.090000        1.0080           
    2269 A    284  ETH  H3   HGA30    0.090000        1.0080           
    2270 A    284  ETH  H4   HGA30    0.090000        1.0080           
    2271 A    284  ETH  H5   HGA30    0.090000        1.0080           
    2272 A    284  ETH  H6   HGA30    0.090000        1.0080           
    2273 A    285  ETH  C1   CG3310  -0.270000       12.0110           
    2274 A    285  ETH  C2   CG3310  -0.270000       12.0110           
    2275 A    285  ETH  H1   HGA30    0.090000        1.0080           
    2276 A    285  ETH  H2   HGA30    0.090000        1.0080           
    2277 A    285  ETH  H3   HGA30    0.090000        1.0080           
    2278 A    285  ETH  H4   HGA30    0.090000        1.0080           
    2279 A    285  ETH  H5   HGA30    0.090000        1.0080           
    2280 A    285  ETH  H6   HGA30    0.090000        1.0080           
    2281 A    286  ETH  C1   CG3310  -0.270000       12.0110           
    2282 A    286  ETH  C2   CG3310  -0.270000       12.0110           
    2283 A    286  ETH  H1   HGA30    0.090000        1.0080           
    2284 A    286  ETH  H2   HGA30    0.090000        1.0080           
    2285 A    286  ETH  H3   HGA30    0.090000        1.0080           
    2286 A    286  ETH  H4   HGA30    0.090000        1.0080           
    2287 A    286  ETH  H5   HGA30    0.090000        1.0080           
    2288 A    286  ETH  H6   HGA30    0.090000        1.0080           
    2289 A    287  ETH  C1   CG3310  -0.270000       12.0110           
    2290 A    287  ETH  C2   CG3310  -0.270000       12.0110           
    2291 A    287  ETH  H1   HGA30    0.090000        1.0080           
    2292 A    287  ETH  H2   HGA30    0.090000        1.0080           
    2293 A    287  ETH  H3   HGA30    0.090000        1.0080           
    2294 A    287  ETH  H4   HGA30    0.090000        1.0080           
    2295 A    287  ETH  H5   HGA30    0.090000        1.0080           
    2296 A    287  ETH  H6   HGA30    0.090000        1.0080           
    2297 A    288  ETH  C1   CG3310  -0.270000       12.0110           
    2298 A    288  ETH  C2   CG3310  -0.270000       12.0110           
    2299 A    288  ETH  H1   HGA30    0.090000        1.0080           
    2300 A    288  ETH  H2   HGA30    0.090000        1.0080           
    2301 A    288  ETH  H3   HGA30    0.090000        1.0080           
    2302 A    288  ETH  H4   HGA30    0.090000        1.0080           
    2303 A    288  ETH  H5   HGA30    0.090000        1.0080           
    2304 A    288  ETH  H6   HGA30    0.090000        1.0080           
    2305 A    289  ETH  C1   CG3310  -0.270000       12.0110           
    2306 A    289  ETH  C2   CG3310  -0.270000       12.0110           
    2307 A    289  ETH  H1   HGA30    0.090000        1.0080           
    2308 A    289  ETH  H2   HGA30    0.090000        1.0080           
    2309 A    289  ETH  H3   HGA30    0.090000        1.0080           
    2310 A    289  ETH  H4   HGA30    0.090000        1.0080           
    2311 A    289  ETH  H5   HGA30    0.090000        1.0080           
    2312 A    289  ETH  H6   HGA30    0.090000        1.0080           
    2313 A    290  ETH  C1   CG3310  -0.270000       12.0110           
    2314 A    290  ETH  C2   CG3310  -0.270000       12.0110           
    2315 A    290  ETH  H1   HGA30    0.090000        1.0080           
    2316 A    290  ETH  H2   HGA30    0.090000        1.0080           
    2317 A    290  ETH  H3   HGA30    0.090000        1.0080           
    2318 A    290  ETH  H4   HGA30    0.090000        1.0080           
    2319 A    290  ETH  H5   HGA30    0.090000        1.0080           
    2320 A    290  ETH  H6   HGA30    0.090000        1.0080           
    2321 A    291  ETH  C1   CG3310  -0.270000       12.0110           
    2322 A    291  ETH  C2   CG3310  -0.270000       12.0110           
    2323 A    291  ETH  H1   HGA30    0.090000        1.0080           
    2324 A    291  ETH  H2   HGA30    0.090000        1.0080           
    2325 A    291  ETH  H3   HGA30    0.090000        1.0080           
    2326 A    291  ETH  H4   HGA30    0.090000        1.0080           
    2327 A    291  ETH  H5   HGA30    0.090000        1.0080           
    2328 A    291  ETH  H6   HGA30    0.090000        1.0080           
    2329 A    292  ETH  C1   CG3310  -0.270000       12.0110           
    2330 A    292  ETH  C2   CG3310  -0.270000       12.0110           
    2331 A    292  ETH  H1   HGA30    0.090000        1.0080           
    2332 A    292  ETH  H2   HGA30    0.090000        1.0080           
    2333 A    292  ETH  H3   HGA30    0.090000        1.0080           
    2334 A    292  ETH  H4   HGA30    0.090000        1.0080           
    2335 A    292  ETH  H5   HGA30    0.090000        1.0080           
    2336 A    292  ETH  H6   HGA30    0.090000        1.0080           
    2337 A    293  ETH  C1   CG3310  -0.270000       12.0110           
    2338 A    293  ETH  C2   CG3310  -0.270000       12.0110           
    2339 A    293  ETH  H1   HGA30    0.090000        1.0080           
    2340 A    293  ETH  H2   HGA30    0.090000        1.0080           
    2341 A    293  ETH  H3   HGA30    0.090000        1.0080           
    2342 A    293  ETH  H4   HGA30    0.090000        1.0080           
    2343 A    293  ETH  H5   HGA30    0.090000        1.0080           
    2344 A    293  ETH  H6   HGA30    0.090000        1.0080           
    2345 A    294  ETH  C1   CG3310  -0.270000       12.0110           
    2346 A    294  ETH  C2   CG3310  -0.270000       12.0110           
    2347 A    294  ETH  H1   HGA30    0.090000        1.0080           
    2348 A    294  ETH  H2   HGA30    0.090000        1.0080           
    2349 A    294  ETH  H3   HGA30    0.090000        1.0080           
    2350 A    294  ETH  H4   HGA30    0.090000        1.0080           
    2351 A    294  ETH  H5   HGA30    0.090000        1.0080           
    2352 A    294  ETH  H6   HGA30    0.090000        1.0080           
    2353 A    295  ETH  C1   CG3310  -0.270000       12.0110           
    2354 A    295  ETH  C2   CG3310  -0.270000       12.0110           
    2355 A    295  ETH  H1   HGA30    0.090000        1.0080           
    2356 A    295  ETH  H2   HGA30    0.090000        1.0080           
    2357 A    295  ETH  H3   HGA30    0.090000        1.0080           
    2358 A    295  ETH  H4   HGA30    0.090000        1.0080           
    2359 A    295  ETH  H5   HGA30    0.090000        1.0080           
    2360 A    295  ETH  H6   HGA30    0.090000        1.0080           
    2361 A    296  ETH  C1   CG3310  -0.270000       12.0110           
    2362 A    296  ETH  C2   CG3310  -0.270000       12.0110           
    2363 A    296  ETH  H1   HGA30    0.090000        1.0080           
    2364 A    296  ETH  H2   HGA30    0.090000        1.0080           
    2365 A    296  ETH  H3   HGA30    0.090000        1.0080           
    2366 A    296  ETH  H4   HGA30    0.090000        1.0080           
    2367 A    296  ETH  H5   HGA30    0.090000        1.0080           
    2368 A    296  ETH  H6   HGA30    0.090000        1.0080           
    2369 A    297  ETH  C1   CG3310  -0.270000       12.0110           
    2370 A    297  ETH  C2   CG3310  -0.270000       12.0110           
    2371 A    297  ETH  H1   HGA30    0.090000        1.0080           
    2372 A    297  ETH  H2   HGA30    0.090000        1.0080           
    2373 A    297  ETH  H3   HGA30    0.090000        1.0080           
    2374 A    297  ETH  H4   HGA30    0.090000        1.0080           
    2375 A    297  ETH  H5   HGA30    0.090000        1.0080           
    2376 A    297  ETH  H6   HGA30    0.090000        1.0080           
    2377 A    298  ETH  C1   CG3310  -0.270000       12.0110           
    2378 A    298  ETH  C2   CG3310  -0.270000       12.0110           
    2379 A    298  ETH  H1   HGA30    0.090000        1.0080           
    2380 A    298  ETH  H2   HGA30    0.090000        1.0080           
    2381 A    298  ETH  H3   HGA30    0.090000        1.0080           
    2382 A    298  ETH  H4   HGA30    0.090000        1.0080           
    2383 A    298  ETH  H5   HGA30    0.090000        1.0080           
    2384 A    298  ETH  H6   HGA30    0.090000        1.0080           
    2385 A    299  ETH  C1   CG3310  -0.270000       12.0110           
    2386 A    299  ETH  C2   CG3310  -0.270000       12.0110           
    2387 A    299  ETH  H1   HGA30    0.090000        1.0080           
    2388 A    299  ETH  H2   HGA30    0.090000        1.0080           
    2389 A    299  ETH  H3   HGA30    0.090000        1.0080           
    2390 A    299  ETH  H4   HGA30    0.090000        1.0080           
    2391 A    299  ETH  H5   HGA30    0.090000        1.0080           
    2392 A    299  ETH  H6   HGA30    0.090000        1.0080           
    2393 A    300  ETH  C1   CG3310  -0.270000       12.0110           
    2394 A    300  ETH  C2   CG3310  -0.270000       12.0110           
    2395 A    300  ETH  H1   HGA30    0.090000        1.0080           
    2396 A    300  ETH  H2   HGA30    0.090000        1.0080           
    2397 A    300  ETH  H3   HGA30    0.090000        1.0080           
    2398 A    300  ETH  H4   HGA30    0.090000        1.0080           
    2399 A    300  ETH  H5   HGA30    0.090000        1.0080           
    2400 A    300  ETH  H6   HGA30    0.090000        1.0080           
    2401 A    301  ETH  C1   CG3310  -0.270000       12.0110           
    2402 A    301  ETH  C2   CG3310  -0.270000       12.0110           
    2403 A    301  ETH  H1   HGA30    0.090000        1.0080           
    2404 A    301  ETH  H2   HGA30    0.090000        1.0080           
    2405 A    301  ETH  H3   HGA30    0.090000        1.0080           
    2406 A    301  ETH  H4   HGA30    0.090000        1.0080           
    2407 A    301  ETH  H5   HGA30    0.090000        1.0080           
    2408 A    301  ETH  H6   HGA30    0.090000        1.0080           
    2409 A    302  ETH  C1   CG3310  -0.270000       12.0110           
    2410 A    302  ETH  C2   CG3310  -0.270000       12.0110           
    2411 A    302  ETH  H1   HGA30    0.090000        1.0080           
    2412 A    302  ETH  H2   HGA30    0.090000        1.0080           
    2413 A    302  ETH  H3   HGA30    0.090000        1.0080           
    2414 A    302  ETH  H4   HGA30    0.090000        1.0080           
    2415 A    302  ETH  H5   HGA30    0.090000        1.0080           
    2416 A    302  ETH  H6   HGA30    0.090000        1.0080           
    2417 A    303  ETH  C1   CG3310  -0.270000       12.0110           
    2418 A    303  ETH  C2   CG3310  -0.270000       12.0110           
    2419 A    303  ETH  H1   HGA30    0.090000        1.0080           
    2420 A    303  ETH  H2   HGA30    0.090000        1.0080           
    2421 A    303  ETH  H3   HGA30    0.090000        1.0080           
    2422 A    303  ETH  H4   HGA30    0.090000        1.0080           
    2423 A    303  ETH  H5   HGA30    0.090000        1.0080           
    2424 A    303  ETH  H6   HGA30    0.090000        1.0080           
    2425 A    304  ETH  C1   CG3310  -0.270000       12.0110           
    2426 A    304  ETH  C2   CG3310  -0.270000       12.0110           
    2427 A    304  ETH  H1   HGA30    0.090000        1.0080           
    2428 A    304  ETH  H2   HGA30    0.090000        1.0080           
    2429 A    304  ETH  H3   HGA30    0.090000        1.0080           
    2430 A    304  ETH  H4   HGA30    0.090000        1.0080           
    2431 A    304  ETH  H5   HGA30    0.090000        1.0080           
    2432 A    304  ETH  H6   HGA30    0.090000        1.0080           
    2433 A    305  ETH  C1   CG3310  -0.270000       12.0110           
    2434 A    305  ETH  C2   CG3310  -0.270000       12.0110           
    2435 A    305  ETH  H1   HGA30    0.090000        1.0080           
    2436 A    305  ETH  H2   HGA30    0.090000        1.0080           
    2437 A    305  ETH  H3   HGA30    0.090000        1.0080           
    2438 A    305  ETH  H4   HGA30    0.090000        1.0080           
    2439 A    305  ETH  H5   HGA30    0.090000        1.0080           
    2440 A    305  ETH  H6   HGA30    0.090000        1.0080           
    2441 A    306  ETH  C1   CG3310  -0.270000       12.0110           
    2442 A    306  ETH  C2   CG3310  -0.270000       12.0110           
    2443 A    306  ETH  H1   HGA30    0.090000        1.0080           
    2444 A    306  ETH  H2   HGA30    0.090000        1.0080           
    2445 A    306  ETH  H3   HGA30    0.090000        1.0080           
    2446 A    306  ETH  H4   HGA30    0.090000        1.0080           
    2447 A    306  ETH  H5   HGA30    0.090000        1.0080           
    2448 A    306  ETH  H6   HGA30    0.090000        1.0080           
    2449 A    307  ETH  C1   CG3310  -0.270000       12.0110           
    2450 A    307  ETH  C2   CG3310  -0.270000       12.0110           
    2451 A    307  ETH  H1   HGA30    0.090000        1.0080           
    2452 A    307  ETH  H2   HGA30    0.090000        1.0080           
    2453 A    307  ETH  H3   HGA30    0.090000        1.0080           
    2454 A    307  ETH  H4   HGA30    0.090000        1.0080           
    2455 A    307  ETH  H5   HGA30    0.090000        1.0080           
    2456 A    307  ETH  H6   HGA30    0.090000        1.0080           
    2457 A    308  ETH  C1   CG3310  -0.270000       12.0110           
    2458 A    308  ETH  C2   CG3310  -0.270000       12.0110           
    2459 A    308  ETH  H1   HGA30    0.090000        1.0080           
    2460 A    308  ETH  H2   HGA30    0.090000        1.0080           
    2461 A    308  ETH  H3   HGA30    0.090000        1.0080           
    2462 A    308  ETH  H4   HGA30    0.090000        1.0080           
    2463 A    308  ETH  H5   HGA30    0.090000        1.0080           
    2464 A    308  ETH  H6   HGA30    0.090000        1.0080           
    2465 A    309  ETH  C1   CG3310  -0.270000       12.0110           
    2466 A    309  ETH  C2   CG3310  -0.270000       12.0110           
    2467 A    309  ETH  H1   HGA30    0.090000        1.0080           
    2468 A    309  ETH  H2   HGA30    0.090000        1.0080           
    2469 A    309  ETH  H3   HGA30    0.090000        1.0080           
    2470 A    309  ETH  H4   HGA30    0.090000        1.0080           
    2471 A    309  ETH  H5   HGA30    0.090000        1.0080           
    2472 A    309  ETH  H6   HGA30    0.090000        1.0080           
    2473 A    310  ETH  C1   CG3310  -0.270000       12.0110           
    2474 A    310  ETH  C2   CG3310  -0.270000       12.0110           
    2475 A    310  ETH  H1   HGA30    0.090000        1.0080           
    2476 A    310  ETH  H2   HGA30    0.090000        1.0080           
    2477 A    310  ETH  H3   HGA30    0.090000        1.0080           
    2478 A    310  ETH  H4   HGA30    0.090000        1.0080           
    2479 A    310  ETH  H5   HGA30    0.090000        1.0080           
    2480 A    310  ETH  H6   HGA30    0.090000        1.0080           
    2481 A    311  ETH  C1   CG3310  -0.270000       12.0110           
    2482 A    311  ETH  C2   CG3310  -0.270000       12.0110           
    2483 A    311  ETH  H1   HGA30    0.090000        1.0080           
    2484 A    311  ETH  H2   HGA30    0.090000        1.0080           
    2485 A    311  ETH  H3   HGA30    0.090000        1.0080           
    2486 A    311  ETH  H4   HGA30    0.090000        1.0080           
    2487 A    311  ETH  H5   HGA30    0.090000        1.0080           
    2488 A    311  ETH  H6   HGA30    0.090000        1.0080           
    2489 A    312  ETH  C1   CG3310  -0.270000       12.0110           
    2490 A    312  ETH  C2   CG3310  -0.270000       12.0110           
    2491 A    312  ETH  H1   HGA30    0.090000        1.0080           
    2492 A    312  ETH  H2   HGA30    0.090000        1.0080           
    2493 A    312  ETH  H3   HGA30    0.090000        1.0080           
    2494 A    312  ETH  H4   HGA30    0.090000        1.0080           
    2495 A    312  ETH  H5   HGA30    0.090000        1.0080           
    2496 A    312  ETH  H6   HGA30    0.090000        1.0080           
    2497 A    313  ETH  C1   CG3310  -0.270000       12.0110           
    2498 A    313  ETH  C2   CG3310  -0.270000       12.0110           
    2499 A    313  ETH  H1   HGA30    0.090000        1.0080           
    2500 A    313  ETH  H2   HGA30    0.090000        1.0080           
    2501 A    313  ETH  H3   HGA30    0.090000        1.0080           
    2502 A    313  ETH  H4   HGA30    0.090000        1.0080           
    2503 A    313  ETH  H5   HGA30    0.090000        1.0080           
    2504 A    313  ETH  H6   HGA30    0.090000        1.0080           
    2505 A    314  ETH  C1   CG3310  -0.270000       12.0110           
    2506 A    314  ETH  C2   CG3310  -0.270000       12.0110           
    2507 A    314  ETH  H1   HGA30    0.090000        1.0080           
    2508 A    314  ETH  H2   HGA30    0.090000        1.0080           
    2509 A    314  ETH  H3   HGA30    0.090000        1.0080           
    2510 A    314  ETH  H4   HGA30    0.090000        1.0080           
    2511 A    314  ETH  H5   HGA30    0.090000        1.0080           
    2512 A    314  ETH  H6   HGA30    0.090000        1.0080           
    2513 A    315  ETH  C1   CG3310  -0.270000       12.0110           
    2514 A    315  ETH  C2   CG3310  -0.270000       12.0110           
    2515 A    315  ETH  H1   HGA30    0.090000        1.0080           
    2516 A    315  ETH  H2   HGA30    0.090000        1.0080           
    2517 A    315  ETH  H3   HGA30    0.090000        1.0080           
    2518 A    315  ETH  H4   HGA30    0.090000        1.0080           
    2519 A    315  ETH  H5   HGA30    0.090000        1.0080           
    2520 A    315  ETH  H6   HGA30    0.090000        1.0080           
    2521 A    316  ETH  C1   CG3310  -0.270000       12.0110           
    2522 A    316  ETH  C2   CG3310  -0.270000       12.0110           
    2523 A    316  ETH  H1   HGA30    0.090000        1.0080           
    2524 A    316  ETH  H2   HGA30    0.090000        1.0080           
    2525 A    316  ETH  H3   HGA30    0.090000        1.0080           
    2526 A    316  ETH  H4   HGA30    0.090000        1.0080           
    2527 A    316  ETH  H5   HGA30    0.090000        1.0080           
    2528 A    316  ETH  H6   HGA30    0.090000        1.0080           
    2529 A    317  ETH  C1   CG3310  -0.270000       12.0110           
    2530 A    317  ETH  C2   CG3310  -0.270000       12.0110           
    2531 A    317  ETH  H1   HGA30    0.090000        1.0080           
    2532 A    317  ETH  H2   HGA30    0.090000        1.0080           
    2533 A    317  ETH  H3   HGA30    0.090000        1.0080           
    2534 A    317  ETH  H4   HGA30    0.090000        1.0080           
    2535 A    317  ETH  H5   HGA30    0.090000        1.0080           
    2536 A    317  ETH  H6   HGA30    0.090000        1.0080           
    2537 A    318  ETH  C1   CG3310  -0.270000       12.0110           
    2538 A    318  ETH  C2   CG3310  -0.270000       12.0110           
    2539 A    318  ETH  H1   HGA30    0.090000        1.0080           
    2540 A    318  ETH  H2   HGA30    0.090000        1.0080           
    2541 A    318  ETH  H3   HGA30    0.090000        1.0080           
    2542 A    318  ETH  H4   HGA30    0.090000        1.0080           
    2543 A    318  ETH  H5   HGA30    0.090000        1.0080           
    2544 A    318  ETH  H6   HGA30    0.090000        1.0080           
    2545 A    319  ETH  C1   CG3310  -0.270000       12.0110           
    2546 A    319  ETH  C2   CG3310  -0.270000       12.0110           
    2547 A    319  ETH  H1   HGA30    0.090000        1.0080           
    2548 A    319  ETH  H2   HGA30    0.090000        1.0080           
    2549 A    319  ETH  H3   HGA30    0.090000        1.0080           
    2550 A    319  ETH  H4   HGA30    0.090000        1.0080           
    2551 A    319  ETH  H5   HGA30    0.090000        1.0080           
    2552 A    319  ETH  H6   HGA30    0.090000        1.0080           
    2553 A    320  ETH  C1   CG3310  -0.270000       12.0110           
    2554 A    320  ETH  C2   CG3310  -0.270000       12.0110           
    2555 A    320  ETH  H1   HGA30    0.090000        1.0080           
    2556 A    320  ETH  H2   HGA30    0.090000        1.0080           
    2557 A    320  ETH  H3   HGA30    0.090000        1.0080           
    2558 A    320  ETH  H4   HGA30    0.090000        1.0080           
    2559 A    320  ETH  H5   HGA30    0.090000        1.0080           
    2560 A    320  ETH  H6   HGA30    0.090000        1.0080           
    2561 A    321  ETH  C1   CG3310  -0.270000       12.0110           
    2562 A    321  ETH  C2   CG3310  -0.270000       12.0110           
    2563 A    321  ETH  H1   HGA30    0.090000        1.0080           
    2564 A    321  ETH  H2   HGA30    0.090000        1.0080           
    2565 A    321  ETH  H3   HGA30    0.090000        1.0080           
    2566 A    321  ETH  H4   HGA30    0.090000        1.0080           
    2567 A    321  ETH  H5   HGA30    0.090000        1.0080           
    2568 A    321  ETH  H6   HGA30    0.090000        1.0080           
    2569 A    322  ETH  C1   CG3310  -0.270000       12.0110           
    2570 A    322  ETH  C2   CG3310  -0.270000       12.0110           
    2571 A    322  ETH  H1   HGA30    0.090000        1.0080           
    2572 A    322  ETH  H2   HGA30    0.090000        1.0080           
    2573 A    322  ETH  H3   HGA30    0.090000        1.0080           
    2574 A    322  ETH  H4   HGA30    0.090000        1.0080           
    2575 A    322  ETH  H5   HGA30    0.090000        1.0080           
    2576 A    322  ETH  H6   HGA30    0.090000        1.0080           
    2577 A    323  ETH  C1   CG3310  -0.270000       12.0110           
    2578 A    323  ETH  C2   CG3310  -0.270000       12.0110           
    2579 A    323  ETH  H1   HGA30    0.090000        1.0080           
    2580 A    323  ETH  H2   HGA30    0.090000        1.0080           
    2581 A    323  ETH  H3   HGA30    0.090000        1.0080           
    2582 A    323  ETH  H4   HGA30    0.090000        1.0080           
    2583 A    323  ETH  H5   HGA30    0.090000        1.0080           
    2584 A    323  ETH  H6   HGA30    0.090000        1.0080           
    2585 A    324  ETH  C1   CG3310  -0.270000       12.0110           
    2586 A    324  ETH  C2   CG3310  -0.270000       12.0110           
    2587 A    324  ETH  H1   HGA30    0.090000        1.0080           
    2588 A    324  ETH  H2   HGA30    0.090000        1.0080           
    2589 A    324  ETH  H3   HGA30    0.090000        1.0080           
    2590 A    324  ETH  H4   HGA30    0.090000        1.0080           
    2591 A    324  ETH  H5   HGA30    0.090000        1.0080           
    2592 A    324  ETH  H6   HGA30    0.090000        1.0080           
    2593 A    325  ETH  C1   CG3310  -0.270000       12.0110           
    2594 A    325  ETH  C2   CG3310  -0.270000       12.0110           
    2595 A    325  ETH  H1   HGA30    0.090000        1.0080           
    2596 A    325  ETH  H2   HGA30    0.090000        1.0080           
    2597 A    325  ETH  H3   HGA30    0.090000        1.0080           
    2598 A    325  ETH  H4   HGA30    0.090000        1.0080           
    2599 A    325  ETH  H5   HGA30    0.090000        1.0080           
    2600 A    325  ETH  H6   HGA30    0.090000        1.0080           
    2601 A    326  ETH  C1   CG3310  -0.270000       12.0110           
    2602 A    326  ETH  C2   CG3310  -0.270000       12.0110           
    2603 A    326  ETH  H1   HGA30    0.090000        1.0080           
    2604 A    326  ETH  H2   HGA30    0.090000        1.0080           
    2605 A    326  ETH  H3   HGA30    0.090000        1.0080           
    2606 A    326  ETH  H4   HGA30    0.090000        1.0080           
    2607 A    326  ETH  H5   HGA30    0.090000        1.0080           
    2608 A    326  ETH  H6   HGA30    0.090000        1.0080           
    2609 A    327  ETH  C1   CG3310  -0.270000       12.0110           
    2610 A    327  ETH  C2   CG3310  -0.270000       12.0110           
    2611 A    327  ETH  H1   HGA30    0.090000        1.0080           
    2612 A    327  ETH  H2   HGA30    0.090000        1.0080           
    2613 A    327  ETH  H3   HGA30    0.090000        1.0080           
    2614 A    327  ETH  H4   HGA30    0.090000        1.0080           
    2615 A    327  ETH  H5   HGA30    0.090000        1.0080           
    2616 A    327  ETH  H6   HGA30    0.090000        1.0080           
    2617 A    328  ETH  C1   CG3310  -0.270000       12.0110           
    2618 A    328  ETH  C2   CG3310  -0.270000       12.0110           
    2619 A    328  ETH  H1   HGA30    0.090000        1.0080           
    2620 A    328  ETH  H2   HGA30    0.090000        1.0080           
    2621 A    328  ETH  H3   HGA30    0.090000        1.0080           
    2622 A    328  ETH  H4   HGA30    0.090000        1.0080           
    2623 A    328  ETH  H5   HGA30    0.090000        1.0080           
    2624 A    328  ETH  H6   HGA30    0.090000        1.0080           
    2625 A    329  ETH  C1   CG3310  -0.270000       12.0110           
    2626 A    329  ETH  C2   CG3310  -0.270000       12.0110           
    2627 A    329  ETH  H1   HGA30    0.090000        1.0080           
    2628 A    329  ETH  H2   HGA30    0.090000        1.0080           
    2629 A    329  ETH  H3   HGA30    0.090000        1.0080           
    2630 A    329  ETH  H4   HGA30    0.090000        1.0080           
    2631 A    329  ETH  H5   HGA30    0.090000        1.0080           
    2632 A    329  ETH  H6   HGA30    0.090000        1.0080           
    2633 A    330  ETH  C1   CG3310  -0.270000       12.0110           
    2634 A    330  ETH  C2   CG3310  -0.270000       12.0110           
    2635 A    330  ETH  H1   HGA30    0.090000        1.0080           
    2636 A    330  ETH  H2   HGA30    0.090000        1.0080           
    2637 A    330  ETH  H3   HGA30    0.090000        1.0080           
    2638 A    330  ETH  H4   HGA30    0.090000        1.0080           
    2639 A    330  ETH  H5   HGA30    0.090000        1.0080           
    2640 A    330  ETH  H6   HGA30    0.090000        1.0080           
    2641 A    331  ETH  C1   CG3310  -0.270000       12.0110           
    2642 A    331  ETH  C2   CG3310  -0.270000       12.0110           
    2643 A    331  ETH  H1   HGA30    0.090000        1.0080           
    2644 A    331  ETH  H2   HGA30    0.090000        1.0080           
    2645 A    331  ETH  H3   HGA30    0.090000        1.0080           
    2646 A    331  ETH  H4   HGA30    0.090000        1.0080           
    2647 A    331  ETH  H5   HGA30    0.090000        1.0080           
    2648 A    331  ETH  H6   HGA30    0.090000        1.0080           
    2649 A    332  ETH  C1   CG3310  -0.270000       12.0110           
    2650 A    332  ETH  C2   CG3310  -0.270000       12.0110           
    2651 A    332  ETH  H1   HGA30    0.090000        1.0080           
    2652 A    332  ETH  H2   HGA30    0.090000        1.0080           
    2653 A    332  ETH  H3   HGA30    0.090000        1.0080           
    2654 A    332  ETH  H4   HGA30    0.090000        1.0080           
    2655 A    332  ETH  H5   HGA30    0.090000        1.0080           
    2656 A    332  ETH  H6   HGA30    0.090000        1.0080           
    2657 A    333  ETH  C1   CG3310  -0.270000       12.0110           
    2658 A    333  ETH  C2   CG3310  -0.270000       12.0110           
    2659 A    333  ETH  H1   HGA30    0.090000        1.0080           
    2660 A    333  ETH  H2   HGA30    0.090000        1.0080           
    2661 A    333  ETH  H3   HGA30    0.090000        1.0080           
    2662 A    333  ETH  H4   HGA30    0.090000        1.0080           
    2663 A    333  ETH  H5   HGA30    0.090000        1.0080           
    2664 A    333  ETH  H6   HGA30    0.090000        1.0080           
    2665 A    334  ETH  C1   CG3310  -0.270000       12.0110           
    2666 A    334  ETH  C2   CG3310  -0.270000       12.0110           
    2667 A    334  ETH  H1   HGA30    0.090000        1.0080           
    2668 A    334  ETH  H2   HGA30    0.090000        1.0080           
    2669 A    334  ETH  H3   HGA30    0.090000        1.0080           
    2670 A    334  ETH  H4   HGA30    0.090000        1.0080           
    2671 A    334  ETH  H5   HGA30    0.090000        1.0080           
    2672 A    334  ETH  H6   HGA30    0.090000        1.0080           
    2673 A    335  ETH  C1   CG3310  -0.270000       12.0110           
    2674 A    335  ETH  C2   CG3310  -0.270000       12.0110           
    2675 A    335  ETH  H1   HGA30    0.090000        1.0080           
    2676 A    335  ETH  H2   HGA30    0.090000        1.0080           
    2677 A    335  ETH  H3   HGA30    0.090000        1.0080           
    2678 A    335  ETH  H4   HGA30    0.090000        1.0080           
    2679 A    335  ETH  H5   HGA30    0.090000        1.0080           
    2680 A    335  ETH  H6   HGA30    0.090000        1.0080           
    2681 A    336  ETH  C1   CG3310  -0.270000       12.0110           
    2682 A    336  ETH  C2   CG3310  -0.270000       12.0110           
    2683 A    336  ETH  H1   HGA30    0.090000        1.0080           
    2684 A    336  ETH  H2   HGA30    0.090000        1.0080           
    2685 A    336  ETH  H3   HGA30    0.090000        1.0080           
    2686 A    336  ETH  H4   HGA30    0.090000        1.0080           
    2687 A    336  ETH  H5   HGA30    0.090000        1.0080           
    2688 A    336  ETH  H6   HGA30    0.090000        1.0080           
    2689 A    337  ETH  C1   CG3310  -0.270000       12.0110           
    2690 A    337  ETH  C2   CG3310  -0.270000       12.0110           
    2691 A    337  ETH  H1   HGA30    0.090000        1.0080           
    2692 A    337  ETH  H2   HGA30    0.090000        1.0080           
    2693 A    337  ETH  H3   HGA30    0.090000        1.0080           
    2694 A    337  ETH  H4   HGA30    0.090000        1.0080           
    2695 A    337  ETH  H5   HGA30    0.090000        1.0080           
    2696 A    337  ETH  H6   HGA30    0.090000        1.0080           
    2697 A    338  ETH  C1   CG3310  -0.270000       12.0110           
    2698 A    338  ETH  C2   CG3310  -0.270000       12.0110           
    2699 A    338  ETH  H1   HGA30    0.090000        1.0080           
    2700 A    338  ETH  H2   HGA30    0.090000        1.0080           
    2701 A    338  ETH  H3   HGA30    0.090000        1.0080           
    2702 A    338  ETH  H4   HGA30    0.090000        1.0080           
    2703 A    338  ETH  H5   HGA30    0.090000        1.0080           
    2704 A    338  ETH  H6   HGA30    0.090000        1.0080           
    2705 A    339  ETH  C1   CG3310  -0.270000       12.0110           
    2706 A    339  ETH  C2   CG3310  -0.270000       12.0110           
    2707 A    339  ETH  H1   HGA30    0.090000        1.0080           
    2708 A    339  ETH  H2   HGA30    0.090000        1.0080           
    2709 A    339  ETH  H3   HGA30    0.090000        1.0080           
    2710 A    339  ETH  H4   HGA30    0.090000        1.0080           
    2711 A    339  ETH  H5   HGA30    0.090000        1.0080           
    2712 A    339  ETH  H6   HGA30    0.090000        1.0080           
    2713 A    340  ETH  C1   CG3310  -0.270000       12.0110           
    2714 A    340  ETH  C2   CG3310  -0.270000       12.0110           
    2715 A    340  ETH  H1   HGA30    0.090000        1.0080           
    2716 A    340  ETH  H2   HGA30    0.090000        1.0080           
    2717 A    340  ETH  H3   HGA30    0.090000        1.0080           
    2718 A    340  ETH  H4   HGA30    0.090000        1.0080           
    2719 A    340  ETH  H5   HGA30    0.090000        1.0080           
    2720 A    340  ETH  H6   HGA30    0.090000        1.0080           
    2721 A    341  ETH  C1   CG3310  -0.270000       12.0110           
    2722 A    341  ETH  C2   CG3310  -0.270000       12.0110           
    2723 A    341  ETH  H1   HGA30    0.090000        1.0080           
    2724 A    341  ETH  H2   HGA30    0.090000        1.0080           
    2725 A    341  ETH  H3   HGA30    0.090000        1.0080           
    2726 A    341  ETH  H4   HGA30    0.090000        1.0080           
    2727 A    341  ETH  H5   HGA30    0.090000        1.0080           
    2728 A    341  ETH  H6   HGA30    0.090000        1.0080           
    2729 A    342  ETH  C1   CG3310  -0.270000       12.0110           
    2730 A    342  ETH  C2   CG3310  -0.270000       12.0110           
    2731 A    342  ETH  H1   HGA30    0.090000        1.0080           
    2732 A    342  ETH  H2   HGA30    0.090000        1.0080           
    2733 A    342  ETH  H3   HGA30    0.090000        1.0080           
    2734 A    342  ETH  H4   HGA30    0.090000        1.0080           
    2735 A    342  ETH  H5   HGA30    0.090000        1.0080           
    2736 A    342  ETH  H6   HGA30    0.090000        1.0080           
    2737 A    343  ETH  C1   CG3310  -0.270000       12.0110           
    2738 A    343  ETH  C2   CG3310  -0.270000       12.0110           
    2739 A    343  ETH  H1   HGA30    0.090000        1.0080           
    2740 A    343  ETH  H2   HGA30    0.090000        1.0080           
    2741 A    343  ETH  H3   HGA30    0.090000        1.0080           
    2742 A    343  ETH  H4   HGA30    0.090000        1.0080           
    2743 A    343  ETH  H5   HGA30    0.090000        1.0080           
    2744 A    343  ETH  H6   HGA30    0.090000        1.0080           
    2745 A    344  ETH  C1   CG3310  -0.270000       12.0110           
    2746 A    344  ETH  C2   CG3310  -0.270000       12.0110           
    2747 A    344  ETH  H1   HGA30    0.090000        1.0080           
    2748 A    344  ETH  H2   HGA30    0.090000        1.0080           
    2749 A    344  ETH  H3   HGA30    0.090000        1.0080           
    2750 A    344  ETH  H4   HGA30    0.090000        1.0080           
    2751 A    344  ETH  H5   HGA30    0.090000        1.0080           
    2752 A    344  ETH  H6   HGA30    0.090000        1.0080           
    2753 A    345  ETH  C1   CG3310  -0.270000       12.0110           
    2754 A    345  ETH  C2   CG3310  -0.270000       12.0110           
    2755 A    345  ETH  H1   HGA30    0.090000        1.0080           
    2756 A    345  ETH  H2   HGA30    0.090000        1.0080           
    2757 A    345  ETH  H3   HGA30    0.090000        1.0080           
    2758 A    345  ETH  H4   HGA30    0.090000        1.0080           
    2759 A    345  ETH  H5   HGA30    0.090000        1.0080           
    2760 A    345  ETH  H6   HGA30    0.090000        1.0080           
    2761 A    346  ETH  C1   CG3310  -0.270000       12.0110           
    2762 A    346  ETH  C2   CG3310  -0.270000       12.0110           
    2763 A    346  ETH  H1   HGA30    0.090000        1.0080           
    2764 A    346  ETH  H2   HGA30    0.090000        1.0080           
    2765 A    346  ETH  H3   HGA30    0.090000        1.0080           
    2766 A    346  ETH  H4   HGA30    0.090000        1.0080           
    2767 A    346  ETH  H5   HGA30    0.090000        1.0080           
    2768 A    346  ETH  H6   HGA30    0.090000        1.0080           
    2769 A    347  ETH  C1   CG3310  -0.270000       12.0110           
    2770 A    347  ETH  C2   CG3310  -0.270000       12.0110           
    2771 A    347  ETH  H1   HGA30    0.090000        1.0080           
    2772 A    347  ETH  H2   HGA30    0.090000        1.0080           
    2773 A    347  ETH  H3   HGA30    0.090000        1.0080           
    2774 A    347  ETH  H4   HGA30    0.090000        1.0080           
    2775 A    347  ETH  H5   HGA30    0.090000        1.0080           
    2776 A    347  ETH  H6   HGA30    0.090000        1.0080           
    2777 A    348  ETH  C1   CG3310  -0.270000       12.0110           
    2778 A    348  ETH  C2   CG3310  -0.270000       12.0110           
    2779 A    348  ETH  H1   HGA30    0.090000        1.0080           
    2780 A    348  ETH  H2   HGA30    0.090000        1.0080           
    2781 A    348  ETH  H3   HGA30    0.090000        1.0080           
    2782 A    348  ETH  H4   HGA30    0.090000        1.0080           
    2783 A    348  ETH  H5   HGA30    0.090000        1.0080           
    2784 A    348  ETH  H6   HGA30    0.090000        1.0080           
    2785 A    349  ETH  C1   CG3310  -0.270000       12.0110           
    2786 A    349  ETH  C2   CG3310  -0.270000       12.0110           
    2787 A    349  ETH  H1   HGA30    0.090000        1.0080           
    2788 A    349  ETH  H2   HGA30    0.090000        1.0080           
    2789 A    349  ETH  H3   HGA30    0.090000        1.0080           
    2790 A    349  ETH  H4   HGA30    0.090000        1.0080           
    2791 A    349  ETH  H5   HGA30    0.090000        1.0080           
    2792 A    349  ETH  H6   HGA30    0.090000        1.0080           
    2793 A    350  ETH  C1   CG3310  -0.270000       12.0110           
    2794 A    350  ETH  C2   CG3310  -0.270000       12.0110           
    2795 A    350  ETH  H1   HGA30    0.090000        1.0080           
    2796 A    350  ETH  H2   HGA30    0.090000        1.0080           
    2797 A    350  ETH  H3   HGA30    0.090000        1.0080           
    2798 A    350  ETH  H4   HGA30    0.090000        1.0080           
    2799 A    350  ETH  H5   HGA30    0.090000        1.0080           
    2800 A    350  ETH  H6   HGA30    0.090000        1.0080           
    2801 A    351  ETH  C1   CG3310  -0.270000       12.0110           
    2802 A    351  ETH  C2   CG3310  -0.270000       12.0110           
    2803 A    351  ETH  H1   HGA30    0.090000        1.0080           
    2804 A    351  ETH  H2   HGA30    0.090000        1.0080           
    2805 A    351  ETH  H3   HGA30    0.090000        1.0080           
    2806 A    351  ETH  H4   HGA30    0.090000        1.0080           
    2807 A    351  ETH  H5   HGA30    0.090000        1.0080           
    2808 A    351  ETH  H6   HGA30    0.090000        1.0080           
    2809 A    352  ETH  C1   CG3310  -0.270000       12.0110           
    2810 A    352  ETH  C2   CG3310  -0.270000       12.0110           
    2811 A    352  ETH  H1   HGA30    0.090000        1.0080           
    2812 A    352  ETH  H2   HGA30    0.090000        1.0080           
    2813 A    352  ETH  H3   HGA30    0.090000        1.0080           
    2814 A    352  ETH  H4   HGA30    0.090000        1.0080           
    2815 A    352  ETH  H5   HGA30    0.090000        1.0080           
    2816 A    352  ETH  H6   HGA30    0.090000        1.0080           
    2817 A    353  ETH  C1   CG3310  -0.270000       12.0110           
    2818 A    353  ETH  C2   CG3310  -0.270000       12.0110           
    2819 A    353  ETH  H1   HGA30    0.090000        1.0080           
    2820 A    353  ETH  H2   HGA30    0.090000        1.0080           
    2821 A    353  ETH  H3   HGA30    0.090000        1.0080           
    2822 A    353  ETH  H4   HGA30    0.090000        1.0080           
    2823 A    353  ETH  H5   HGA30    0.090000        1.0080           
    2824 A    353  ETH  H6   HGA30    0.090000        1.0080           
    2825 A    354  ETH  C1   CG3310  -0.270000       12.0110           
    2826 A    354  ETH  C2   CG3310  -0.270000       12.0110           
    2827 A    354  ETH  H1   HGA30    0.090000        1.0080           
    2828 A    354  ETH  H2   HGA30    0.090000        1.0080           
    2829 A    354  ETH  H3   HGA30    0.090000        1.0080           
    2830 A    354  ETH  H4   HGA30    0.090000        1.0080           
    2831 A    354  ETH  H5   HGA30    0.090000        1.0080           
    2832 A    354  ETH  H6   HGA30    0.090000        1.0080           
    2833 A    355  ETH  C1   CG3310  -0.270000       12.0110           
    2834 A    355  ETH  C2   CG3310  -0.270000       12.0110           
    2835 A    355  ETH  H1   HGA30    0.090000        1.0080           
    2836 A    355  ETH  H2   HGA30    0.090000        1.0080           
    2837 A    355  ETH  H3   HGA30    0.090000        1.0080           
    2838 A    355  ETH  H4   HGA30    0.090000        1.0080           
    2839 A    355  ETH  H5   HGA30    0.090000        1.0080           
    2840 A    355  ETH  H6   HGA30    0.090000        1.0080           
    2841 A    356  ETH  C1   CG3310  -0.270000       12.0110           
    2842 A    356  ETH  C2   CG3310  -0.270000       12.0110           
    2843 A    356  ETH  H1   HGA30    0.090000        1.0080           
    2844 A    356  ETH  H2   HGA30    0.090000        1.0080           
    2845 A    356  ETH  H3   HGA30    0.090000        1.0080           
    2846 A    356  ETH  H4   HGA30    0.090000        1.0080           
    2847 A    356  ETH  H5   HGA30    0.090000        1.0080           
    2848 A    356  ETH  H6   HGA30    0.090000        1.0080           
    2849 A    357  ETH  C1   CG3310  -0.270000       12.0110           
    2850 A    357  ETH  C2   CG3310  -0.270000       12.0110           
    2851 A    357  ETH  H1   HGA30    0.090000        1.0080           
    2852 A    357  ETH  H2   HGA30    0.090000        1.0080           
    2853 A    357  ETH  H3   HGA30    0.090000        1.0080           
    2854 A    357  ETH  H4   HGA30    0.090000        1.0080           
    2855 A    357  ETH  H5   HGA30    0.090000        1.0080           
    2856 A    357  ETH  H6   HGA30    0.090000        1.0080           
    2857 A    358  ETH  C1   CG3310  -0.270000       12.0110           
    2858 A    358  ETH  C2   CG3310  -0.270000       12.0110           
    2859 A    358  ETH  H1   HGA30    0.090000        1.0080           
    2860 A    358  ETH  H2   HGA30    0.090000        1.0080           
    2861 A    358  ETH  H3   HGA30    0.090000        1.0080           
    2862 A    358  ETH  H4   HGA30    0.090000        1.0080           
    2863 A    358  ETH  H5   HGA30    0.090000        1.0080           
    2864 A    358  ETH  H6   HGA30    0.090000        1.0080           
    2865 A    359  ETH  C1   CG3310  -0.270000       12.0110           
    2866 A    359  ETH  C2   CG3310  -0.270000       12.0110           
    2867 A    359  ETH  H1   HGA30    0.090000        1.0080           
    2868 A    359  ETH  H2   HGA30    0.090000        1.0080           
    2869 A    359  ETH  H3   HGA30    0.090000        1.0080           
    2870 A    359  ETH  H4   HGA30    0.090000        1.0080           
    2871 A    359  ETH  H5   HGA30    0.090000        1.0080           
    2872 A    359  ETH  H6   HGA30    0.090000        1.0080           
    2873 A    360  ETH  C1   CG3310  -0.270000       12.0110           
    2874 A    360  ETH  C2   CG3310  -0.270000       12.0110           
    2875 A    360  ETH  H1   HGA30    0.090000        1.0080           
    2876 A    360  ETH  H2   HGA30    0.090000        1.0080           
    2877 A    360  ETH  H3   HGA30    0.090000        1.0080           
    2878 A    360  ETH  H4   HGA30    0.090000        1.0080           
    2879 A    360  ETH  H5   HGA30    0.090000        1.0080           
    2880 A    360  ETH  H6   HGA30    0.090000        1.0080           
    2881 A    361  ETH  C1   CG3310  -0.270000       12.0110           
    2882 A    361  ETH  C2   CG3310  -0.270000       12.0110           
    2883 A    361  ETH  H1   HGA30    0.090000        1.0080           
    2884 A    361  ETH  H2   HGA30    0.090000        1.0080           
    2885 A    361  ETH  H3   HGA30    0.090000        1.0080           
    2886 A    361  ETH  H4   HGA30    0.090000        1.0080           
    2887 A    361  ETH  H5   HGA30    0.090000        1.0080           
    2888 A    361  ETH  H6   HGA30    0.090000        1.0080           
    2889 A    362  ETH  C1   CG3310  -0.270000       12.0110           
    2890 A    362  ETH  C2   CG3310  -0.270000       12.0110           
    2891 A    362  ETH  H1   HGA30    0.090000        1.0080           
    2892 A    362  ETH  H2   HGA30    0.090000        1.0080           
    2893 A    362  ETH  H3   HGA30    0.090000        1.0080           
    2894 A    362  ETH  H4   HGA30    0.090000        1.0080           
    2895 A    362  ETH  H5   HGA30    0.090000        1.0080           
    2896 A    362  ETH  H6   HGA30    0.090000        1.0080           
    2897 A    363  ETH  C1   CG3310  -0.270000       12.0110           
    2898 A    363  ETH  C2   CG3310  -0.270000       12.0110           
    2899 A    363  ETH  H1   HGA30    0.090000        1.0080           
    2900 A    363  ETH  H2   HGA30    0.090000        1.0080           
    2901 A    363  ETH  H3   HGA30    0.090000        1.0080           
    2902 A    363  ETH  H4   HGA30    0.090000        1.0080           
    2903 A    363  ETH  H5   HGA30    0.090000        1.0080           
    2904 A    363  ETH  H6   HGA30    0.090000        1.0080           
    2905 A    364  ETH  C1   CG3310  -0.270000       12.0110           
    2906 A    364  ETH  C2   CG3310  -0.270000       12.0110           
    2907 A    364  ETH  H1   HGA30    0.090000        1.0080           
    2908 A    364  ETH  H2   HGA30    0.090000        1.0080           
    2909 A    364  ETH  H3   HGA30    0.090000        1.0080           
    2910 A    364  ETH  H4   HGA30    0.090000        1.0080           
    2911 A    364  ETH  H5   HGA30    0.090000        1.0080           
    2912 A    364  ETH  H6   HGA30    0.090000        1.0080           
    2913 A    365  ETH  C1   CG3310  -0.270000       12.0110           
    2914 A    365  ETH  C2   CG3310  -0.270000       12.0110           
    2915 A    365  ETH  H1   HGA30    0.090000        1.0080           
    2916 A    365  ETH  H2   HGA30    0.090000        1.0080           
    2917 A    365  ETH  H3   HGA30    0.090000        1.0080           
    2918 A    365  ETH  H4   HGA30    0.090000        1.0080           
    2919 A    365  ETH  H5   HGA30    0.090000        1.0080           
    2920 A    365  ETH  H6   HGA30    0.090000        1.0080           
    2921 A    366  ETH  C1   CG3310  -0.270000       12.0110           
    2922 A    366  ETH  C2   CG3310  -0.270000       12.0110           
    2923 A    366  ETH  H1   HGA30    0.090000        1.0080           
    2924 A    366  ETH  H2   HGA30    0.090000        1.0080           
    2925 A    366  ETH  H3   HGA30    0.090000        1.0080           
    2926 A    366  ETH  H4   HGA30    0.090000        1.0080           
    2927 A    366  ETH  H5   HGA30    0.090000        1.0080           
    2928 A    366  ETH  H6   HGA30    0.090000        1.0080           
    2929 A    367  ETH  C1   CG3310  -0.270000       12.0110           
    2930 A    367  ETH  C2   CG3310  -0.270000       12.0110           
    2931 A    367  ETH  H1   HGA30    0.090000        1.0080           
    2932 A    367  ETH  H2   HGA30    0.090000        1.0080           
    2933 A    367  ETH  H3   HGA30    0.090000        1.0080           
    2934 A    367  ETH  H4   HGA30    0.090000        1.0080           
    2935 A    367  ETH  H5   HGA30    0.090000        1.0080           
    2936 A    367  ETH  H6   HGA30    0.090000        1.0080           
    2937 A    368  ETH  C1   CG3310  -0.270000       12.0110           
    2938 A    368  ETH  C2   CG3310  -0.270000       12.0110           
    2939 A    368  ETH  H1   HGA30    0.090000        1.0080           
    2940 A    368  ETH  H2   HGA30    0.090000        1.0080           
    2941 A    368  ETH  H3   HGA30    0.090000        1.0080           
    2942 A    368  ETH  H4   HGA30    0.090000        1.0080           
    2943 A    368  ETH  H5   HGA30    0.090000        1.0080           
    2944 A    368  ETH  H6   HGA30    0.090000        1.0080           
    2945 A    369  ETH  C1   CG3310  -0.270000       12.0110           
    2946 A    369  ETH  C2   CG3310  -0.270000       12.0110           
    2947 A    369  ETH  H1   HGA30    0.090000        1.0080           
    2948 A    369  ETH  H2   HGA30    0.090000        1.0080           
    2949 A    369  ETH  H3   HGA30    0.090000        1.0080           
    2950 A    369  ETH  H4   HGA30    0.090000        1.0080           
    2951 A    369  ETH  H5   HGA30    0.090000        1.0080           
    2952 A    369  ETH  H6   HGA30    0.090000        1.0080           
    2953 A    370  ETH  C1   CG3310  -0.270000       12.0110           
    2954 A    370  ETH  C2   CG3310  -0.270000       12.0110           
    2955 A    370  ETH  H1   HGA30    0.090000        1.0080           
    2956 A    370  ETH  H2   HGA30    0.090000        1.0080           
    2957 A    370  ETH  H3   HGA30    0.090000        1.0080           
    2958 A    370  ETH  H4   HGA30    0.090000        1.0080           
    2959 A    370  ETH  H5   HGA30    0.090000        1.0080           
    2960 A    370  ETH  H6   HGA30    0.090000        1.0080           
    2961 A    371  ETH  C1   CG3310  -0.270000       12.0110           
    2962 A    371  ETH  C2   CG3310  -0.270000       12.0110           
    2963 A    371  ETH  H1   HGA30    0.090000        1.0080           
    2964 A    371  ETH  H2   HGA30    0.090000        1.0080           
    2965 A    371  ETH  H3   HGA30    0.090000        1.0080           
    2966 A    371  ETH  H4   HGA30    0.090000        1.0080           
    2967 A    371  ETH  H5   HGA30    0.090000        1.0080           
    2968 A    371  ETH  H6   HGA30    0.090000        1.0080           
    2969 A    372  ETH  C1   CG3310  -0.270000       12.0110           
    2970 A    372  ETH  C2   CG3310  -0.270000       12.0110           
    2971 A    372  ETH  H1   HGA30    0.090000        1.0080           
    2972 A    372  ETH  H2   HGA30    0.090000        1.0080           
    2973 A    372  ETH  H3   HGA30    0.090000        1.0080           
    2974 A    372  ETH  H4   HGA30    0.090000        1.0080           
    2975 A    372  ETH  H5   HGA30    0.090000        1.0080           
    2976 A    372  ETH  H6   HGA30    0.090000        1.0080           
    2977 A    373  ETH  C1   CG3310  -0.270000       12.0110           
    2978 A    373  ETH  C2   CG3310  -0.270000       12.0110           
    2979 A    373  ETH  H1   HGA30    0.090000        1.0080           
    2980 A    373  ETH  H2   HGA30    0.090000        1.0080           
    2981 A    373  ETH  H3   HGA30    0.090000        1.0080           
    2982 A    373  ETH  H4   HGA30    0.090000        1.0080           
    2983 A    373  ETH  H5   HGA30    0.090000        1.0080           
    2984 A    373  ETH  H6   HGA30    0.090000        1.0080           
    2985 A    374  ETH  C1   CG3310  -0.270000       12.0110           
    2986 A    374  ETH  C2   CG3310  -0.270000       12.0110           
    2987 A    374  ETH  H1   HGA30    0.090000        1.0080           
    2988 A    374  ETH  H2   HGA30    0.090000        1.0080           
    2989 A    374  ETH  H3   HGA30    0.090000        1.0080           
    2990 A    374  ETH  H4   HGA30    0.090000        1.0080           
    2991 A    374  ETH  H5   HGA30    0.090000        1.0080           
    2992 A    374  ETH  H6   HGA30    0.090000        1.0080           
    2993 A    375  ETH  C1   CG3310  -0.270000       12.0110           
    2994 A    375  ETH  C2   CG3310  -0.270000       12.0110           
    2995 A    375  ETH  H1   HGA30    0.090000        1.0080           
    2996 A    375  ETH  H2   HGA30    0.090000        1.0080           
    2997 A    375  ETH  H3   HGA30    0.090000        1.0080           
    2998 A    375  ETH  H4   HGA30    0.090000        1.0080           
    2999 A    375  ETH  H5   HGA30    0.090000        1.0080           
    3000 A    375  ETH  H6   HGA30    0.090000        1.0080           
    3001 A    376  ETH  C1   CG3310  -0.270000       12.0110           
    3002 A    376  ETH  C2   CG3310  -0.270000       12.0110           
    3003 A    376  ETH  H1   HGA30    0.090000        1.0080           
    3004 A    376  ETH  H2   HGA30    0.090000        1.0080           
    3005 A    376  ETH  H3   HGA30    0.090000        1.0080           
    3006 A    376  ETH  H4   HGA30    0.090000        1.0080           
    3007 A    376  ETH  H5   HGA30    0.090000        1.0080           
    3008 A    376  ETH  H6   HGA30    0.090000        1.0080           
    3009 A    377  ETH  C1   CG3310  -0.270000       12.0110           
    3010 A    377  ETH  C2   CG3310  -0.270000       12.0110           
    3011 A    377  ETH  H1   HGA30    0.090000        1.0080           
    3012 A    377  ETH  H2   HGA30    0.090000        1.0080           
    3013 A    377  ETH  H3   HGA30    0.090000        1.0080           
    3014 A    377  ETH  H4   HGA30    0.090000        1.0080           
    3015 A    377  ETH  H5   HGA30    0.090000        1.0080           
    3016 A    377  ETH  H6   HGA30    0.090000        1.0080           
    3017 A    378  ETH  C1   CG3310  -0.270000       12.0110           
    3018 A    378  ETH  C2   CG3310  -0.270000       12.0110           
    3019 A    378  ETH  H1   HGA30    0.090000        1.0080           
    3020 A    378  ETH  H2   HGA30    0.090000        1.0080           
    3021 A    378  ETH  H3   HGA30    0.090000        1.0080           
    3022 A    378  ETH  H4   HGA30    0.090000        1.0080           
    3023 A    378  ETH  H5   HGA30    0.090000        1.0080           
    3024 A    378  ETH  H6   HGA30    0.090000        1.0080           
    3025 A    379  ETH  C1   CG3310  -0.270000       12.0110           
    3026 A    379  ETH  C2   CG3310  -0.270000       12.0110           
    3027 A    379  ETH  H1   HGA30    0.090000        1.0080           
    3028 A    379  ETH  H2   HGA30    0.090000        1.0080           
    3029 A    379  ETH  H3   HGA30    0.090000        1.0080           
    3030 A    379  ETH  H4   HGA30    0.090000        1.0080           
    3031 A    379  ETH  H5   HGA30    0.090000        1.0080           
    3032 A    379  ETH  H6   HGA30    0.090000        1.0080           
    3033 A    380  ETH  C1   CG3310  -0.270000       12.0110           
    3034 A    380  ETH  C2   CG3310  -0.270000       12.0110           
    3035 A    380  ETH  H1   HGA30    0.090000        1.0080           
    3036 A    380  ETH  H2   HGA30    0.090000        1.0080           
    3037 A    380  ETH  H3   HGA30    0.090000        1.0080           
    3038 A    380  ETH  H4   HGA30    0.090000        1.0080           
    3039 A    380  ETH  H5   HGA30    0.090000        1.0080           
    3040 A    380  ETH  H6   HGA30    0.090000        1.0080           
    3041 A    381  ETH  C1   CG3310  -0.270000       12.0110           
    3042 A    381  ETH  C2   CG3310  -0.270000       12.0110           
    3043 A    381  ETH  H1   HGA30    0.090000        1.0080           
    3044 A    381  ETH  H2   HGA30    0.090000        1.0080           
    3045 A    381  ETH  H3   HGA30    0.090000        1.0080           
    3046 A    381  ETH  H4   HGA30    0.090000        1.0080           
    3047 A    381  ETH  H5   HGA30    0.090000        1.0080           
    3048 A    381  ETH  H6   HGA30    0.090000        1.0080           
    3049 A    382  ETH  C1   CG3310  -0.270000       12.0110           
    3050 A    382  ETH  C2   CG3310  -0.270000       12.0110           
    3051 A    382  ETH  H1   HGA30    0.090000        1.0080           
    3052 A    382  ETH  H2   HGA30    0.090000        1.0080           
    3053 A    382  ETH  H3   HGA30    0.090000        1.0080           
    3054 A    382  ETH  H4   HGA30    0.090000        1.0080           
    3055 A    382  ETH  H5   HGA30    0.090000        1.0080           
    3056 A    382  ETH  H6   HGA30    0.090000        1.0080           
    3057 A    383  ETH  C1   CG3310  -0.270000       12.0110           
    3058 A    383  ETH  C2   CG3310  -0.270000       12.0110           
    3059 A    383  ETH  H1   HGA30    0.090000        1.0080           
    3060 A    383  ETH  H2   HGA30    0.090000        1.0080           
    3061 A    383  ETH  H3   HGA30    0.090000        1.0080           
    3062 A    383  ETH  H4   HGA30    0.090000        1.0080           
    3063 A    383  ETH  H5   HGA30    0.090000        1.0080           
    3064 A    383  ETH  H6   HGA30    0.090000        1.0080           
    3065 A    384  ETH  C1   CG3310  -0.270000       12.0110           
    3066 A    384  ETH  C2   CG3310  -0.270000       12.0110           
    3067 A    384  ETH  H1   HGA30    0.090000        1.0080           
    3068 A    384  ETH  H2   HGA30    0.090000        1.0080           
    3069 A    384  ETH  H3   HGA30    0.090000        1.0080           
    3070 A    384  ETH  H4   HGA30    0.090000        1.0080           
    3071 A    384  ETH  H5   HGA30    0.090000        1.0080           
    3072 A    384  ETH  H6   HGA30    0.090000        1.0080           
    3073 A    385  ETH  C1   CG3310  -0.270000       12.0110           
    3074 A    385  ETH  C2   CG3310  -0.270000       12.0110           
    3075 A    385  ETH  H1   HGA30    0.090000        1.0080           
    3076 A    385  ETH  H2   HGA30    0.090000        1.0080           
    3077 A    385  ETH  H3   HGA30    0.090000        1.0080           
    3078 A    385  ETH  H4   HGA30    0.090000        1.0080           
    3079 A    385  ETH  H5   HGA30    0.090000        1.0080           
    3080 A    385  ETH  H6   HGA30    0.090000        1.0080           
    3081 A    386  ETH  C1   CG3310  -0.270000       12.0110           
    3082 A    386  ETH  C2   CG3310  -0.270000       12.0110           
    3083 A    386  ETH  H1   HGA30    0.090000        1.0080           
    3084 A    386  ETH  H2   HGA30    0.090000        1.0080           
    3085 A    386  ETH  H3   HGA30    0.090000        1.0080           
    3086 A    386  ETH  H4   HGA30    0.090000        1.0080           
    3087 A    386  ETH  H5   HGA30    0.090000        1.0080           
    3088 A    386  ETH  H6   HGA30    0.090000        1.0080           
    3089 A    387  ETH  C1   CG3310  -0.270000       12.0110           
    3090 A    387  ETH  C2   CG3310  -0.270000       12.0110           
    3091 A    387  ETH  H1   HGA30    0.090000        1.0080           
    3092 A    387  ETH  H2   HGA30    0.090000        1.0080           
    3093 A    387  ETH  H3   HGA30    0.090000        1.0080           
    3094 A    387  ETH  H4   HGA30    0.090000        1.0080           
    3095 A    387  ETH  H5   HGA30    0.090000        1.0080           
    3096 A    387  ETH  H6   HGA30    0.090000        1.0080           
    3097 A    388  ETH  C1   CG3310  -0.270000       12.0110           
    3098 A    388  ETH  C2   CG3310  -0.270000       12.0110           
    3099 A    388  ETH  H1   HGA30    0.090000        1.0080           
    3100 A    388  ETH  H2   HGA30    0.090000        1.0080           
    3101 A    388  ETH  H3   HGA30    0.090000        1.0080           
    3102 A    388  ETH  H4   HGA30    0.090000        1.0080           
    3103 A    388  ETH  H5   HGA30    0.090000        1.0080           
    3104 A    388  ETH  H6   HGA30    0.090000        1.0080           
    3105 A    389  ETH  C1   CG3310  -0.270000       12.0110           
    3106 A    389  ETH  C2   CG3310  -0.270000       12.0110           
    3107 A    389  ETH  H1   HGA30    0.090000        1.0080           
    3108 A    389  ETH  H2   HGA30    0.090000        1.0080           
    3109 A    389  ETH  H3   HGA30    0.090000        1.0080           
    3110 A    389  ETH  H4   HGA30    0.090000        1.0080           
    3111 A    389  ETH  H5   HGA30    0.090000        1.0080           
    3112 A    389  ETH  H6   HGA30    0.090000        1.0080           
    3113 A    390  ETH  C1   CG3310  -0.270000       12.0110           
    3114 A    390  ETH  C2   CG3310  -0.270000       12.0110           
    3115 A    390  ETH  H1   HGA30    0.090000        1.0080           
    3116 A    390  ETH  H2   HGA30    0.090000        1.0080           
    3117 A    390  ETH  H3   HGA30    0.090000        1.0080           
    3118 A    390  ETH  H4   HGA30    0.090000        1.0080           
    3119 A    390  ETH  H5   HGA30    0.090000        1.0080           
    3120 A    390  ETH  H6   HGA30    0.090000        1.0080           
    3121 A    391  ETH  C1   CG3310  -0.270000       12.0110           
    3122 A    391  ETH  C2   CG3310  -0.270000       12.0110           
    3123 A    391  ETH  H1   HGA30    0.090000        1.0080           
    3124 A    391  ETH  H2   HGA30    0.090000        1.0080           
    3125 A    391  ETH  H3   HGA30    0.090000        1.0080           
    3126 A    391  ETH  H4   HGA30    0.090000        1.0080           
    3127 A    391  ETH  H5   HGA30    0.090000        1.0080           
    3128 A    391  ETH  H6   HGA30    0.090000        1.0080           
    3129 A    392  ETH  C1   CG3310  -0.270000       12.0110           
    3130 A    392  ETH  C2   CG3310  -0.270000       12.0110           
    3131 A    392  ETH  H1   HGA30    0.090000        1.0080           
    3132 A    392  ETH  H2   HGA30    0.090000        1.0080           
    3133 A    392  ETH  H3   HGA30    0.090000        1.0080           
    3134 A    392  ETH  H4   HGA30    0.090000        1.0080           
    3135 A    392  ETH  H5   HGA30    0.090000        1.0080           
    3136 A    392  ETH  H6   HGA30    0.090000        1.0080           
    3137 A    393  ETH  C1   CG3310  -0.270000       12.0110           
    3138 A    393  ETH  C2   CG3310  -0.270000       12.0110           
    3139 A    393  ETH  H1   HGA30    0.090000        1.0080           
    3140 A    393  ETH  H2   HGA30    0.090000        1.0080           
    3141 A    393  ETH  H3   HGA30    0.090000        1.0080           
    3142 A    393  ETH  H4   HGA30    0.090000        1.0080           
    3143 A    393  ETH  H5   HGA30    0.090000        1.0080           
    3144 A    393  ETH  H6   HGA30    0.090000        1.0080           
    3145 A    394  ETH  C1   CG3310  -0.270000       12.0110           
    3146 A    394  ETH  C2   CG3310  -0.270000       12.0110           
    3147 A    394  ETH  H1   HGA30    0.090000        1.0080           
    3148 A    394  ETH  H2   HGA30    0.090000        1.0080           
    3149 A    394  ETH  H3   HGA30    0.090000        1.0080           
    3150 A    394  ETH  H4   HGA30    0.090000        1.0080           
    3151 A    394  ETH  H5   HGA30    0.090000        1.0080           
    3152 A    394  ETH  H6   HGA30    0.090000        1.0080           
    3153 A    395  ETH  C1   CG3310  -0.270000       12.0110           
    3154 A    395  ETH  C2   CG3310  -0.270000       12.0110           
    3155 A    395  ETH  H1   HGA30    0.090000        1.0080           
    3156 A    395  ETH  H2   HGA30    0.090000        1.0080           
    3157 A    395  ETH  H3   HGA30    0.090000        1.0080           
    3158 A    395  ETH  H4   HGA30    0.090000        1.0080           
    3159 A    395  ETH  H5   HGA30    0.090000        1.0080           
    3160 A    395  ETH  H6   HGA30    0.090000        1.0080           
    3161 A    396  ETH  C1   CG3310  -0.270000       12.0110           
    3162 A    396  ETH  C2   CG3310  -0.270000       12.0110           
    3163 A    396  ETH  H1   HGA30    0.090000        1.0080           
    3164 A    396  ETH  H2   HGA30    0.090000        1.0080           
    3165 A    396  ETH  H3   HGA30    0.090000        1.0080           
    3166 A    396  ETH  H4   HGA30    0.090000        1.0080           
    3167 A    396  ETH  H5   HGA30    0.090000        1.0080           
    3168 A    396  ETH  H6   HGA30    0.090000        1.0080           
    3169 A    397  ETH  C1   CG3310  -0.270000       12.0110           
    3170 A    397  ETH  C2   CG3310  -0.270000       12.0110           
    3171 A    397  ETH  H1   HGA30    0.090000        1.0080           
    3172 A    397  ETH  H2   HGA30    0.090000        1.0080           
    3173 A    397  ETH  H3   HGA30    0.090000        1.0080           
    3174 A    397  ETH  H4   HGA30    0.090000        1.0080           
    3175 A    397  ETH  H5   HGA30    0.090000        1.0080           
    3176 A    397  ETH  H6   HGA30    0.090000        1.0080           
    3177 A    398  ETH  C1   CG3310  -0.270000       12.0110           
    3178 A    398  ETH  C2   CG3310  -0.270000       12.0110           
    3179 A    398  ETH  H1   HGA30    0.090000        1.0080           
    3180 A    398  ETH  H2   HGA30    0.090000        1.0080           
    3181 A    398  ETH  H3   HGA30    0.090000        1.0080           
    3182 A    398  ETH  H4   HGA30    0.090000        1.0080           
    3183 A    398  ETH  H5   HGA30    0.090000        1.0080           
    3184 A    398  ETH  H6   HGA30    0.090000        1.0080           
    3185 A    399  ETH  C1   CG3310  -0.270000       12.0110           
    3186 A    399  ETH  C2   CG3310  -0.270000       12.0110           
    3187 A    399  ETH  H1   HGA30    0.090000        1.0080           
    3188 A    399  ETH  H2   HGA30    0.090000        1.0080           
    3189 A    399  ETH  H3   HGA30    0.090000        1.0080           
    3190 A    399  ETH  H4   HGA30    0.090000        1.0080           
    3191 A    399  ETH  H5   HGA30    0.090000        1.0080           
    3192 A    399  ETH  H6   HGA30    0.090000        1.0080           
    3193 A    400  ETH  C1   CG3310  -0.270000       12.0110           
    3194 A    400  ETH  C2   CG3310  -0.270000       12.0110           
    3195 A    400  ETH  H1   HGA30    0.090000        1.0080           
    3196 A    400  ETH  H2   HGA30    0.090000        1.0080           
    3197 A    400  ETH  H3   HGA30    0.090000        1.0080           
    3198 A    400  ETH  H4   HGA30    0.090000        1.0080           
    3199 A    400  ETH  H5   HGA30    0.090000        1.0080           
    3200 A    400  ETH  H6   HGA30    0.090000        1.0080           

    2800 !NBOND: bonds
       2       1       1       3       1       4       1       5
       2       6       2       7       2       8      10       9
       9      11       9      12       9      13      10      14
      10      15      10      16      18      17      17      19
      17      20      17      21      18      22      18      23
      18      24      26      25      25      27      25      28
      25      29      26      30      26      31      26      32
      34      33      33      35      33      36      33      37
      34      38      34      39      34      40      42      41
      41      43      41      44      41      45      42      46
      42      47      42      48      50      49      49      51
      49      52      49      53      50      54      50      55
      50      56      58      57      57      59      57      60
      57      61      58      62      58      63      58      64
      66      65      65      67      65      68      65      69
      66      70      66      71      66      72      74      73
      73      75      73      76      73      77      74      78
      74      79      74      80      82      81      81      83
      81      84      81      85      82      86      82      87
      82      88      90      89      89      91      89      92
      89      93      90      94      90      95      90      96
      98      97      97      99      97     100      97     101
      98     102      98     103      98     104     106     105
     105     107     105     108     105     109     106     110
     106     111     106     112     114     113     113     115
     113     116     113     117     114     118     114     119
     114     120     122     121     121     123     121     124
     121     125     122     126     122     127     122     128
     130     129     129     131     129     132     129     133
     130     134     130     135     130     136     138     137
     137     139     137     140     137     141     138     142
     138     143     138     144     146     145     145     147
     145     148     145     149     146     150     146     151
     146     152     154     153     153     155     153     156
     153     157     154     158     154     159     154     160
     162     161     161     163     161     164     161     165
     162     166     162     167     162     168     170     169
     169     171     169     172     169     173     170     174
     170     175     170     176     178     177     177     179
     177     180     177     181     178     182     178     183
     178     184     186     185     185     187     185     188
     185     189     186     190     186     191     186     192
     194     193     193     195     193     196     193     197
     194     198     194     199     194     200     202     201
     201     203     201     204     201     205     202     206
     202     207     202     208     210     209     209     211
     209     212     209     213     210     214     210     215
     210     216     218     217     217     219     217     220
     217     221     218     222     218     223     218     224
     226     225     225     227     225     228     225     229
     226     230     226     231     226     232     234     233
     233     235     233     236     233     237     234     238
     234     239     234     240     242     241     241     243
     241     244     241     245     242     246     242     247
     242     248     250     249     249     251     249     252
     249     253     250     254     250     255     250     256
     258     257     257     259     257     260     257     261
     258     262     258     263     258     264     266     265
     265     267     265     268     265     269     266     270
     266     271     266     272     274     273     273     275
     273     276     273     277     274     278     274     279
     274     280     282     281     281     283     281     284
     281     285     282     286     282     287     282     288
     290     289     289     291     289     292     289     293
     290     294     290     295     290     296     298     297
     297     299     297     300     297     301     298     302
     298     303     298     304     306     305     305     307
     305     308     305     309     306     310     306     311
     306     312     314     313     313     315     313     316
     313     317     314     318     314     319     314     320
     322     321     321     323     321     324     321     325
     322     326     322     327     322     328     330     329
     329     331     329     332     329     333     330     334
     330     335     330     336     338     337     337     339
     337     340     337     341     338     342     338     343
     338     344     346     345     345     347     345     348
     345     349     346     350     346     351     346     352
     354     353     353     355     353     356     353     357
     354     358     354     359     354     360     362     361
     361     363     361     364     361     365     362     366
     362     367     362     368     370     369     369     371
     369     372     369     373     370     374     370     375
     370     376     378     377     377     379     377     380
     377     381     378     382     378     383     378     384
     386     385     385     387     385     388     385     389
     386     390     386     391     386     392     394     393
     393     395     393     396     393     397     394     398
     394     399     394     400     402     401     401     403
     401     404     401     405     402     406     402     407
     402     408     410     409     409     411     409     412
     409     413     410     414     410     415     410     416
     418     417     417     419     417     420     417     421
     418     422     418     423     418     424     426     425
     425     427     425     428     425     429     426     430
     426     431     426     432     434     433     433     435
     433     436     433     437     434     438     434     439
     434     440     442     441     441     443     441     444
     441     445     442     446     442     447     442     448
     450     449     449     451     449     452     449     453
     450     454     450     455     450     456     458     457
     457     459     457     460     457     461     458     462
     458     463     458     464     466     465     465     467
     465     468     465     469     466     470     466     471
     466     472     474     473     473     475     473     476
     473     477     474     478     474     479     474     480
     482     481     481     483     481     484     481     485
     482     486     482     487     482     488     490     489
     489     491     489     492     489     493     490     494
     490     495     490     496     498     497     497     499
     497     500     497     501     498     502     498     503
     498     504     506     505     505     507     505     508
     505     509     506     510     506     511     506     512
     514     513     513     515     513     516     513     517
     514     518     514     519     514     520     522     521
     521     523     521     524     521     525     522     526
     522     527     522     528     530     529     529     531
     529     532     529     533     530     534     530     535
     530     536     538     537     537     539     537     540
     537     541     538     542     538     543     538     544
     546     545     545     547     545     548     545     549
     546     550     546     551     546     552     554     553
     553     555     553     556     553     557     554     558
     554     559     554     560     562     561     561     563
     561     564     561     565     562     566     562     567
     562     568     570     569     569     571     569     572
     569     573     570     574     570     575     570     576
     578     577     577     579     577     580     577     581
     578     582     578     583     578     584     586     585
     585     587     585     588     585     589     586     590
     586     591     586     592     594     593     593     595
     593     596     593     597     594     598     594     599
     594     600     602     601     601     603     601     604
     601     605     602     606     602     607     602     608
     610     609     609     611     609     612     609     613
     610     614     610     615     610     616     618     617
     617     619     617     620     617     621     618     622
     618     623     618     624     626     625     625     627
     625     628     625     629     626     630     626     631
     626     632     634     633     633     635     633     636
     633     637     634     638     634     639     634     640
     642     641     641     643     641     644     641     645
     642     646     642     647     642     648     650     649
     649     651     649     652     649     653     650     654
     650     655     650     656     658     657     657     659
     657     660     657     661     658     662     658     663
     658     664     666     665     665     667     665     668
     665     669     666     670     666     671     666     672
     674     673     673     675     673     676     673     677
     674     678     674     679     674     680     682     681
     681     683     681     684     681     685     682     686
     682     687     682     688     690     689     689     691
     689     692     689     693     690     694     690     695
     690     696     698     697     697     699     697     700
     697     701     698     702     698     703     698     704
     706     705     705     707     705     708     705     709
     706     710     706     711     706     712     714     713
     713     715     713     716     713     717     714     718
     714     719     714     720     722     721     721     723
     721     724     721     725     722     726     722     727
     722     728     730     729     729     731     729     732
     729     733     730     734     730     735     730     736
     738     737     737     739     737     740     737     741
     738     742     738     743     738     744     746     745
     745     747     745     748     745     749     746     750
     746     751     746     752     754     753     753     755
     753     756     753     757     754     758     754     759
     754     760     762     761     761     763     761     764
     761     765     762     766     762     767     762     768
     770     769     769     771     769     772     769     773
     770     774     770     775     770     776     778     777
     777     779     777     780     777     781     778     782
     778     783     778     784     786     785     785     787
     785     788     785     789     786     790     786     791
     786     792     794     793     793     795     793     796
     793     797     794     798     794     799     794     800
     802     801     801     803     801     804     801     805
     802     806     802     807     802     808     810     809
     809     811     809     812     809     813     810     814
     810     815     810     816     818     817     817     819
     817     820     817     821     818     822     818     823
     818     824     826     825     825     827     825     828
     825     829     826     830     826     831     826     832
     834     833     833     835     833     836     833     837
     834     838     834     839     834     840     842     841
     841     843     841     844     841     845     842     846
     842     847     842     848     850     849     849     851
     849     852     849     853     850     854     850     855
     850     856     858     857     857     859     857     860
     857     861     858     862     858     863     858     864
     866     865     865     867     865     868     865     869
     866     870     866     871     866     872     874     873
     873     875     873     876     873     877     874     878
     874     879     874     880     882     881     881     883
     881     884     881     885     882     886     882     887
     882     888     890     889     889     891     889     892
     889     893     890     894     890     895     890     896
     898     897     897     899     897     900     897     901
     898     902     898     903     898     904     906     905
     905     907     905     908     905     909     906     910
     906     911     906     912     914     913     913     915
     913     916     913     917     914     918     914     919
     914     920     922     921     921     923     921     924
     921     925     922     926     922     927     922     928
     930     929     929     931     929     932     929     933
     930     934     930     935     930     936     938     937
     937     939     937     940     937     941     938     942
     938     943     938     944     946     945     945     947
     945     948     945     949     946     950     946     951
     946     952     954     953     953     955     953     956
     953     957     954     958     954     959     954     960
     962     961     961     963     961     964     961     965
     962     966     962     967     962     968     970     969
     969     971     969     972     969     973     970     974
     970     975     970     976     978     977     977     979
     977     980     977     981     978     982     978     983
     978     984     986     985     985     987     985     988
     985     989     986     990     986     991     986     992
     994     993     993     995     993     996     993     997
     994     998     994     999     994    1000    1002    1001
    1001    1003    1001    1004    1001    1005    1002    1006
    1002    1007    1002    1008    1010    1009    1009    1011
    1009    1012    1009    1013    1010    1014    1010    1015
    1010    1016    1018    1017    1017    1019    1017    1020
    1017    1021    1018    1022    1018    1023    1018    1024
    1026    1025    1025    1027    1025    1028    1025    1029
    1026    1030    1026    1031    1026    1032    1034    1033
    1033    1035    1033    1036    1033    1037    1034    1038
    1034    1039    1034    1040    1042    1041    1041    1043
    1041    1044    1041    1045    1042    1046    1042    1047
    1042    1048    1050    1049    1049    1051    1049    1052
    1049    1053    1050    1054    1050    1055    1050    1056
    1058    1057    1057    1059    1057    1060    1057    1061
    1058    1062    1058    1063    1058    1064    1066    1065
    1065    1067    1065    1068    1065    1069    1066    1070
    1066    1071    1066    1072    1074    1073    1073    1075
    1073    1076    1073    1077    1074    1078    1074    1079
    1074    1080    1082    1081    1081    1083    1081    1084
    1081    1085    1082    1086    1082    1087    1082    1088
    1090    1089    1089    1091    1089    1092    1089    1093
    1090    1094    1090    1095    1090    1096    1098    1097
    1097    1099    1097    1100    1097    1101    1098    1102
    1098    1103    1098    1104    1106    1105    1105    1107
    1105    1108    1105    1109    1106    1110    1106    1111
    1106    1112    1114    1113    1113    1115    1113    1116
    1113    1117    1114    1118    1114    1119    1114    1120
    1122    1121    1121    1123    1121    1124    1121    1125
    1122    1126    1122    1127    1122    1128    1130    1129
    1129    1131    1129    1132    1129    1133    1130    1134
    1130    1135    1130    1136    1138    1137    1137    1139
    1137    1140    1137    1141    1138    1142    1138    1143
    1138    1144    1146    1145    1145    1147    1145    1148
    1145    1149    1146    1150    1146    1151    1146    1152
    1154    1153    1153    1155    1153    1156    1153    1157
    1154    1158    1154    1159    1154    1160    1162    1161
    1161    1163    1161    1164    1161    1165    1162    1166
    1162    1167    1162    1168    1170    1169    1169    1171
    1169    1172    1169    1173    1170    1174    1170    1175
    1170    1176    1178    1177    1177    1179    1177    1180
    1177    1181    1178    1182    1178    1183    1178    1184
    1186    1185    1185    1187    1185    1188    1185    1189
    1186    1190    1186    1191    1186    1192    1194    1193
    1193    1195    1193    1196    1193    1197    1194    1198
    1194    1199    1194    1200    1202    1201    1201    1203
    1201    1204    1201    1205    1202    1206    1202    1207
    1202    1208    1210    1209    1209    1211    1209    1212
    1209    1213    1210    1214    1210    1215    1210    1216
    1218    1217    1217    1219    1217    1220    1217    1221
    1218    1222    1218    1223    1218    1224    1226    1225
    1225    1227    1225    1228    1225    1229    1226    1230
    1226    1231    1226    1232    1234    1233    1233    1235
    1233    1236    1233    1237    1234    1238    1234    1239
    1234    1240    1242    1241    1241    1243    1241    1244
    1241    1245    1242    1246    1242    1247    1242    1248
    1250    1249    1249    1251    1249    1252    1249    1253
    1250    1254    1250    1255    1250    1256    1258    1257
    1257    1259    1257    1260    1257    1261    1258    1262
    1258    1263    1258    1264    1266    1265    1265    1267
    1265    1268    1265    1269    1266    1270    1266    1271
    1266    1272    1274    1273    1273    1275    1273    1276
    1273    1277    1274    1278    1274    1279    1274    1280
    1282    1281    1281    1283    1281    1284    1281    1285
    1282    1286    1282    1287    1282    1288    1290    1289
    1289    1291    1289    1292    1289    1293    1290    1294
    1290    1295    1290    1296    1298    1297    1297    1299
    1297    1300    1297    1301    1298    1302    1298    1303
    1298    1304    1306    1305    1305    1307    1305    1308
    1305    1309    1306    1310    1306    1311    1306    1312
    1314    1313    1313    1315    1313    1316    1313    1317
    1314    1318    1314    1319    1314    1320    1322    1321
    1321    1323    1321    1324    1321    1325    1322    1326
    1322    1327    1322    1328    1330    1329    1329    1331
    1329    1332    1329    1333    1330    1334    1330    1335
    1330    1336    1338    1337    1337    1339    1337    1340
    1337    1341    1338    1342    1338    1343    1338    1344
    1346    1345    1345    1347    1345    1348    1345    1349
    1346    1350    1346    1351    1346    1352    1354    1353
    1353    1355    1353    1356    1353    1357    1354    1358
    1354    1359    1354    1360    1362    1361    1361    1363
    1361    1364    1361    1365    1362    1366    1362    1367
    1362    1368    1370    1369    1369    1371    1369    1372
    1369    1373    1370    1374    1370    1375    1370    1376
    1378    1377    1377    1379    1377    1380    1377    1381
    1378    1382    1378    1383    1378    1384    1386    1385
    1385    1387    1385    1388    1385    1389    1386    1390
    1386    1391    1386    1392    1394    1393    1393    1395
    1393    1396    1393    1397    1394    1398    1394    1399
    1394    1400    1402    1401    1401    1403    1401    1404
    1401    1405    1402    1406    1402    1407    1402    1408
    1410    1409    1409    1411    1409    1412    1409    1413
    1410    1414    1410    1415    1410    1416    1418    1417
    1417    1419    1417    1420    1417    1421    1418    1422
    1418    1423    1418    1424    1426    1425    1425    1427
    1425    1428    1425    1429    1426    1430    1426    1431
    1426    1432    1434    1433    1433    1435    1433    1436
    1433    1437    1434    1438    1434    1439    1434    1440
    1442    1441    1441    1443    1441    1444    1441    1445
    1442    1446    1442    1447    1442    1448    1450    1449
    1449    1451    1449    1452    1449    1453    1450    1454
    1450    1455    1450    1456    1458    1457    1457    1459
    1457    1460    1457    1461    1458    1462    1458    1463
    1458    1464    1466    1465    1465    1467    1465    1468
    1465    1469    1466    1470    1466    1471    1466    1472
    1474    1473    1473    1475    1473    1476    1473    1477
    1474    1478    1474    1479    1474    1480    1482    1481
    1481    1483    1481    1484    1481    1485    1482    1486
    1482    1487    1482    1488    1490    1489    1489    1491
    1489    1492    1489    1493    1490    1494    1490    1495
    1490    1496    1498    1497    1497    1499    1497    1500
    1497    1501    1498    1502    1498    1503    1498    1504
    1506    1505    1505    1507    1505    1508    1505    1509
    1506    1510    1506    1511    1506    1512    1514    1513
    1513    1515    1513    1516    1513    1517    1514    1518
    1514    1519    1514    1520    1522    1521    1521    1523
    1521    1524    1521    1525    1522    1526    1522    1527
    1522    1528    1530    1529    1529    1531    1529    1532
    1529    1533    1530    1534    1530    1535    1530    1536
    1538    1537    1537    1539    1537    1540    1537    1541
    1538    1542    1538    1543    1538    1544    1546    1545
    1545    1547    1545    1548    1545    1549    1546    1550
    1546    1551    1546    1552    1554    1553    1553    1555
    1553    1556    1553    1557    1554    1558    1554    1559
    1554    1560    1562    1561    1561    1563    1561    1564
    1561    1565    1562    1566    1562    1567    1562    1568
    1570    1569    1569    1571    1569    1572    1569    1573
    1570    1574    1570    1575    1570    1576    1578    1577
    1577    1579    1577    1580    1577    1581    1578    1582
    1578    1583    1578    1584    1586    1585    1585    1587
    1585    1588    1585    1589    1586    1590    1586    1591
    1586    1592    1594    1593    1593    1595    1593    1596
    1593    1597    1594    1598    1594    1599    1594    1600
    1602    1601    1601    1603    1601    1604    1601    1605
    1602    1606    1602    1607    1602    1608    1610    1609
    1609    1611    1609    1612    1609    1613    1610    1614
    1610    1615    1610    1616    1618    1617    1617    1619
    1617    1620    1617    1621    1618    1622    1618    1623
    1618    1624    1626    1625    1625    1627    1625    1628
    1625    1629    1626    1630    1626    1631    1626    1632
    1634    1633    1633    1635    1633    1636    1633    1637
    1634    1638    1634    1639    1634    1640    1642    1641
    1641    1643    1641    1644    1641    1645    1642    1646
    1642    1647    1642    1648    1650    1649    1649    1651
    1649    1652    1649    1653    1650    1654    1650    1655
    1650    1656    1658    1657    1657    1659    1657    1660
    1657    1661    1658    1662    1658    1663    1658    1664
    1666    1665    1665    1667    1665    1668    1665    1669
    1666    1670    1666    1671    1666    1672    1674    1673
    1673    1675    1673    1676    1673    1677    1674    1678
    1674    1679    1674    1680    1682    1681    1681    1683
    1681    1684    1681    1685    1682    1686    1682    1687
    1682    1688    1690    1689    1689    1691    1689    1692
    1689    1693    1690    1694    1690    1695    1690    1696
    1698    1697    1697    1699    1697    1700    1697    1701
    1698    1702    1698    1703    1698    1704    1706    1705
    1705    1707    1705    1708    1705    1709    1706    1710
    1706    1711    1706    1712    1714    1713    1713    1715
    1713    1716    1713    1717    1714    1718    1714    1719
    1714    1720    1722    1721    1721    1723    1721    1724
    1721    1725    1722    1726    1722    1727    1722    1728
    1730    1729    1729    1731    1729    1732    1729    1733
    1730    1734    1730    1735    1730    1736    1738    1737
    1737    1739    1737    1740    1737    1741    1738    1742
    1738    1743    1738    1744    1746    1745    1745    1747
    1745    1748    1745    1749    1746    1750    1746    1751
    1746    1752    1754    1753    1753    1755    1753    1756
    1753    1757    1754    1758    1754    1759    1754    1760
    1762    1761    1761    1763    1761    1764    1761    1765
    1762    1766    1762    1767    1762    1768    1770    1769
    1769    1771    1769    1772    1769    1773    1770    1774
    1770    1775    1770    1776    1778    1777    1777    1779
    1777    1780    1777    1781    1778    1782    1778    1783
    1778    1784    1786    1785    1785    1787    1785    1788
    1785    1789    1786    1790    1786    1791    1786    1792
    1794    1793    1793    1795    1793    1796    1793    1797
    1794    1798    1794    1799    1794    1800    1802    1801
    1801    1803    1801    1804    1801    1805    1802    1806
    1802    1807    1802    1808    1810    1809    1809    1811
    1809    1812    1809    1813    1810    1814    1810    1815
    1810    1816    1818    1817    1817    1819    1817    1820
    1817    1821    1818    1822    1818    1823    1818    1824
    1826    1825    1825    1827    1825    1828    1825    1829
    1826    1830    1826    1831    1826    1832    1834    1833
    1833    1835    1833    1836    1833    1837    1834    1838
    1834    1839    1834    1840    1842    1841    1841    1843
    1841    1844    1841    1845    1842    1846    1842    1847
    1842    1848    1850    1849    1849    1851    1849    1852
    1849    1853    1850    1854    1850    1855    1850    1856
    1858    1857    1857    1859    1857    1860    1857    1861
    1858    1862    1858    1863    1858    1864    1866    1865
    1865    1867    1865    1868    1865    1869    1866    1870
    1866    1871    1866    1872    1874    1873    1873    1875
    1873    1876    1873    1877    1874    1878    1874    1879
    1874    1880    1882    1881    1881    1883    1881    1884
    1881    1885    1882    1886    1882    1887    1882    1888
    1890    1889    1889    1891    1889    1892    1889    1893
    1890    1894    1890    1895    1890    1896    1898    1897
    1897    1899    1897    1900    1897    1901    1898    1902
    1898    1903    1898    1904    1906    1905    1905    1907
    1905    1908    1905    1909    1906    1910    1906    1911
    1906    1912    1914    1913    1913    1915    1913    1916
    1913    1917    1914    1918    1914    1919    1914    1920
    1922    1921    1921    1923    1921    1924    1921    1925
    1922    1926    1922    1927    1922    1928    1930    1929
    1929    1931    1929    1932    1929    1933    1930    1934
    1930    1935    1930    1936    1938    1937    1937    1939
    1937    1940    1937    1941    1938    1942    1938    1943
    1938    1944    1946    1945    1945    1947    1945    1948
    1945    1949    1946    1950    1946    1951    1946    1952
    1954    1953    1953    1955    1953    1956    1953    1957
    1954    1958    1954    1959    1954    1960    1962    1961
    1961    1963    1961    1964    1961    1965    1962    1966
    1962    1967    1962    1968    1970    1969    1969    1971
    1969    1972    1969    1973    1970    1974    1970    1975
    1970    1976    1978    1977    1977    1979    1977    1980
    1977    1981    1978    1982    1978    1983    1978    1984
    1986    1985    1985    1987    1985    1988    1985    1989
    1986    1990    1986    1991    1986    1992    1994    1993
    1993    1995    1993    1996    1993    1997    1994    1998
    1994    1999    1994    2000    2002    2001    2001    2003
    2001    2004    2001    2005    2002    2006    2002    2007
    2002    2008    2010    2009    2009    2011    2009    2012
    2009    2013    2010    2014    2010    2015    2010    2016
    2018    2017    2017    2019    2017    2020    2017    2021
    2018    2022    2018    2023    2018    2024    2026    2025
    2025    2027    2025    2028    2025    2029    2026    2030
    2026    2031    2026    2032    2034    2033    2033    2035
    2033    2036    2033    2037    2034    2038    2034    2039
    2034    2040    2042    2041    2041    2043    2041    2044
    2041    2045    2042    2046    2042    2047    2042    2048
    2050    2049    2049    2051    2049    2052    2049    2053
    2050    2054    2050    2055    2050    2056    2058    2057
    2057    2059    2057    2060    2057    2061    2058    2062
    2058    2063    2058    2064    2066    2065    2065    2067
    2065    2068    2065    2069    2066    2070    2066    2071
    2066    2072    2074    2073    2073    2075    2073    2076
    2073    2077    2074    2078    2074    2079    2074    2080
    2082    2081    2081    2083    2081    2084    2081    2085
    2082    2086    2082    2087    2082    2088    2090    2089
    2089    2091    2089    2092    2089    2093    2090    2094
    2090    2095    2090    2096    2098    2097    2097    2099
    2097    2100    2097    2101    2098    2102    2098    2103
    2098    2104    2106    2105    2105    2107    2105    2108
    2105    2109    2106    2110    2106    2111    2106    2112
    2114    2113    2113    2115    2113    2116    2113    2117
    2114    2118    2114    2119    2114    2120    2122    2121
    2121    2123    2121    2124    2121    2125    2122    2126
    2122    2127    2122    2128    2130    2129    2129    2131
    2129    2132    2129    2133    2130    2134    2130    2135
    2130    2136    2138    2137    2137    2139    2137    2140
    2137    2141    2138    2142    2138    2143    2138    2144
    2146    2145    2145    2147    2145    2148    2145    2149
    2146    2150    2146    2151    2146    2152    2154    2153
    2153    2155    2153    2156    2153    2157    2154    2158
    2154    2159    2154    2160    2162    2161    2161    2163
    2161    2164    2161    2165    2162    2166    2162    2167
    2162    2168    2170    2169    2169    2171    2169    2172
    2169    2173    2170    2174    2170    2175    2170    2176
    2178    2177    2177    2179    2177    2180    2177    2181
    2178    2182    2178    2183    2178    2184    2186    2185
    2185    2187    2185    2188    2185    2189    2186    2190
    2186    2191    2186    2192    2194    2193    2193    2195
    2193    2196    2193    2197    2194    2198    2194    2199
    2194    2200    2202    2201    2201    2203    2201    2204
    2201    2205    2202    2206    2202    2207    2202    2208
    2210    2209    2209    2211    2209    2212    2209    2213
    2210    2214    2210    2215    2210    2216    2218    2217
    2217    2219    2217    2220    2217    2221    2218    2222
    2218    2223    2218    2224    2226    2225    2225    2227
    2225    2228    2225    2229    2226    2230    2226    2231
    2226    2232    2234    2233    2233    2235    2233    2236
    2233    2237    2234    2238    2234    2239    2234    2240
    2242    2241    2241    2243    2241    2244    2241    2245
    2242    2246    2242    2247    2242    2248    2250    2249
    2249    2251    2249    2252    2249    2253    2250    2254
    2250    2255    2250    2256    2258    2257    2257    2259
    2257    2260    2257    2261    2258    2262    2258    2263
    2258    2264    2266    2265    2265    2267    2265    2268
    2265    2269    2266    2270    2266    2271    2266    2272
    2274    2273    2273    2275    2273    2276    2273    2277
    2274    2278    2274    2279    2274    2280    2282    2281
    2281    2283    2281    2284    2281    2285    2282    2286
    2282    2287    2282    2288    2290    2289    2289    2291
    2289    2292    2289    2293    2290    2294    2290    2295
    2290    2296    2298    2297    2297    2299    2297    2300
    2297    2301    2298    2302    2298    2303    2298    2304
    2306    2305    2305    2307    2305    2308    2305    2309
    2306    2310    2306    2311    2306    2312    2314    2313
    2313    2315    2313    2316    2313    2317    2314    2318
    2314    2319    2314    2320    2322    2321    2321    2323
    2321    2324    2321    2325    2322    2326    2322    2327
    2322    2328    2330    2329    2329    2331    2329    2332
    2329    2333    2330    2334    2330    2335    2330    2336
    2338    2337    2337    2339    2337    2340    2337    2341
    2338    2342    2338    2343    2338    2344    2346    2345
    2345    2347    2345    2348    2345    2349    2346    2350
    2346    2351    2346    2352    2354    2353    2353    2355
    2353    2356    2353    2357    2354    2358    2354    2359
    2354    2360    2362    2361    2361    2363    2361    2364
    2361    2365    2362    2366    2362    2367    2362    2368
    2370    2369    2369    2371    2369    2372    2369    2373
    2370    2374    2370    2375    2370    2376    2378    2377
    2377    2379    2377    2380    2377    2381    2378    2382
    2378    2383    2378    2384    2386    2385    2385    2387
    2385    2388    2385    2389    2386    2390    2386    2391
    2386    2392    2394    2393    2393    2395    2393    2396
    2393    2397    2394    2398    2394    2399    2394    2400
    2402    2401    2401    2403    2401    2404    2401    2405
    2402    2406    2402    2407    2402    2408    2410    2409
    2409    2411    2409    2412    2409    2413    2410    2414
    2410    2415    2410    2416    2418    2417    2417    2419
    2417    2420    2417    2421    2418    2422    2418    2423
    2418    2424    2426    2425    2425    2427    2425    2428
    2425    2429    2426    2430    2426    2431    2426    2432
    2434    2433    2433    2435    2433    2436    2433    2437
    2434    2438    2434    2439    2434    2440    2442    2441
    2441    2443    2441    2444    2441    2445    2442    2446
    2442    2447    2442    2448    2450    2449    2449    2451
    2449    2452    2449    2453    2450    2454    2450    2455
    2450    2456    2458    2457    2457    2459    2457    2460
    2457    2461    2458    2462    2458    2463    2458    2464
    2466    2465    2465    2467    2465    2468    2465    2469
    2466    2470    2466    2471    2466    2472    2474    2473
    2473    2475    2473    2476    2473    2477    2474    2478
    2474    2479    2474    2480    2482    2481    2481    2483
    2481    2484    2481    2485    2482    2486    2482    2487
    2482    2488    2490    2489    2489    2491    2489    2492
    2489    2493    2490    2494    2490    2495    2490    2496
    2498    2497    2497    2499    2497    2500    2497    2501
    2498    2502    2498    2503    2498    2504    2506    2505
    2505    2507    2505    2508    2505    2509    2506    2510
    2506    2511    2506    2512    2514    2513    2513    2515
    2513    2516    2513    2517    2514    2518    2514    2519
    2514    2520    2522    2521    2521    2523    2521    2524
    2521    2525    2522    2526    2522    2527    2522    2528
    2530    2529    2529    2531    2529    2532    2529    2533
    2530    2534    2530    2535    2530    2536    2538    2537
    2537    2539    2537    2540    2537    2541    2538    2542
    2538    2543    2538    2544    2546    2545    2545    2547
    2545    2548    2545    2549    2546    2550    2546    2551
    2546    2552    2554    2553    2553    2555    2553    2556
    2553    2557    2554    2558    2554    2559    2554    2560
    2562    2561    2561    2563    2561    2564    2561    2565
    2562    2566    2562    2567    2562    2568    2570    2569
    2569    2571    2569    2572    2569    2573    2570    2574
    2570    2575    2570    2576    2578    2577    2577    2579
    2577    2580    2577    2581    2578    2582    2578    2583
    2578    2584    2586    2585    2585    2587    2585    2588
    2585    2589    2586    2590    2586    2591    2586    2592
    2594    2593    2593    2595    2593    2596    2593    2597
    2594    2598    2594    2599    2594    2600    2602    2601
    2601    2603    2601    2604    2601    2605    2602    2606
    2602    2607    2602    2608    2610    2609    2609    2611
    2609    2612    2609    2613    2610    2614    2610    2615
    2610    2616    2618    2617    2617    2619    2617    2620
    2617    2621    2618    2622    2618    2623    2618    2624
    2626    2625    2625    2627    2625    2628    2625    2629
    2626    2630    2626    2631    2626    2632    2634    2633
    2633    2635    2633    2636    2633    2637    2634    2638
    2634    2639    2634    2640    2642    2641    2641    2643
    2641    2644    2641    2645    2642    2646    2642    2647
    2642    2648    2650    2649    2649    2651    2649    2652
    2649    2653    2650    2654    2650    2655    2650    2656
    2658    2657    2657    2659    2657    2660    2657    2661
    2658    2662    2658    2663    2658    2664    2666    2665
    2665    2667    2665    2668    2665    2669    2666    2670
    2666    2671    2666    2672    2674    2673    2673    2675
    2673    2676    2673    2677    2674    2678    2674    2679
    2674    2680    2682    2681    2681    2683    2681    2684
    2681    2685    2682    2686    2682    2687    2682    2688
    2690    2689    2689    2691    2689    2692    2689    2693
    2690    2694    2690    2695    2690    2696    2698    2697
    2697    2699    2697    2700    2697    2701    2698    2702
    2698    2703    2698    2704    2706    2705    2705    2707
    2705    2708    2705    2709    2706    2710    2706    2711
    2706    2712    2714    2713    2713    2715    2713    2716
    2713    2717    2714    2718    2714    2719    2714    2720
    2722    2721    2721    2723    2721    2724    2721    2725
    2722    2726    2722    2727    2722    2728    2730    2729
    2729    2731    2729    2732    2729    2733    2730    2734
    2730    2735    2730    2736    2738    2737    2737    2739
    2737    2740    2737    2741    2738    2742    2738    2743
    2738    2744    2746    2745    2745    2747    2745    2748
    2745    2749    2746    2750    2746    2751    2746    2752
    2754    2753    2753    2755    2753    2756    2753    2757
    2754    2758    2754    2759    2754    2760    2762    2761
    2761    2763    2761    2764    2761    2765    2762    2766
    2762    2767    2762    2768    2770    2769    2769    2771
    2769    2772    2769    2773    2770    2774    2770    2775
    2770    2776    2778    2777    2777    2779    2777    2780
    2777    2781    2778    2782    2778    2783    2778    2784
    2786    2785    2785    2787    2785    2788    2785    2789
    2786    2790    2786    2791    2786    2792    2794    2793
    2793    2795    2793    2796    2793    2797    2794    2798
    2794    2799    2794    2800    2802    2801    2801    2803
    2801    2804    2801    2805    2802    2806    2802    2807
    2802    2808    2810    2809    2809    2811    2809    2812
    2809    2813    2810    2814    2810    2815    2810    2816
    2818    2817    2817    2819    2817    2820    2817    2821
    2818    2822    2818    2823    2818    2824    2826    2825
    2825    2827    2825    2828    2825    2829    2826    2830
    2826    2831    2826    2832    2834    2833    2833    2835
    2833    2836    2833    2837    2834    2838    2834    2839
    2834    2840    2842    2841    2841    2843    2841    2844
    2841    2845    2842    2846    2842    2847    2842    2848
    2850    2849    2849    2851    2849    2852    2849    2853
    2850    2854    2850    2855    2850    2856    2858    2857
    2857    2859    2857    2860    2857    2861    2858    2862
    2858    2863    2858    2864    2866    2865    2865    2867
    2865    2868    2865    2869    2866    2870    2866    2871
    2866    2872    2874    2873    2873    2875    2873    2876
    2873    2877    2874    2878    2874    2879    2874    2880
    2882    2881    2881    2883    2881    2884    2881    2885
    2882    2886    2882    2887    2882    2888    2890    2889
    2889    2891    2889    2892    2889    2893    2890    2894
    2890    2895    2890    2896    2898    2897    2897    2899
    2897    2900    2897    2901    2898    2902    2898    2903
    2898    2904    2906    2905    2905    2907    2905    2908
    2905    2909    2906    2910    2906    2911    2906    2912
    2914    2913    2913    2915    2913    2916    2913    2917
    2914    2918    2914    2919    2914    2920    2922    2921
    2921    2923    2921    2924    2921    2925    2922    2926
    2922    2927    2922    2928    2930    2929    2929    2931
    2929    2932    2929    2933    2930    2934    2930    2935
    2930    2936    2938    2937    2937    2939    2937    2940
    2937    2941    2938    2942    2938    2943    2938    2944
    2946    2945    2945    2947    2945    2948    2945    2949
    2946    2950    2946    2951    2946    2952    2954    2953
    2953    2955    2953    2956    2953    2957    2954    2958
    2954    2959    2954    2960    2962    2961    2961    2963
    2961    2964    2961    2965    2962    2966    2962    2967
    2962    2968    2970    2969    2969    2971    2969    2972
    2969    2973    2970    2974    2970    2975    2970    2976
    2978    2977    2977    2979    2977    2980    2977    2981
    2978    2982    2978    2983    2978    2984    2986    2985
    2985    2987    2985    2988    2985    2989    2986    2990
    2986    2991    2986    2992    2994    2993    2993    2995
    2993    2996    2993    2997    2994    2998    2994    2999
    2994    3000    3002    3001    3001    3003    3001    3004
    3001    3005    3002    3006    3002    3007    3002    3008
    3010    3009    3009    3011    3009    3012    3009    3013
    3010    3014    3010    3015    3010    3016    3018    3017
    3017    3019    3017    3020    3017    3021    3018    3022
    3018    3023    3018    3024    3026    3025    3025    3027
    3025    3028    3025    3029    3026    3030    3026    3031
    3026    3032    3034    3033    3033    3035    3033    3036
    3033    3037    3034    3038    3034    3039    3034    3040
    3042    3041    3041    3043    3041    3044    3041    3045
    3042    3046    3042    3047    3042    3048    3050    3049
    3049    3051    3049    3052    3049    3053    3050    3054
    3050    3055    3050    3056    3058    3057    3057    3059
    3057    3060    3057    3061    3058    3062    3058    3063
    3058    3064    3066    3065    3065    3067    3065    3068
    3065    3069    3066    3070    3066    3071    3066    3072
    3074    3073    3073    3075    3073    3076    3073    3077
    3074    3078    3074    3079    3074    3080    3082    3081
    3081    3083    3081    3084    3081    3085    3082    3086
    3082    3087    3082    3088    3090    3089    3089    3091
    3089    3092    3089    3093    3090    3094    3090    3095
    3090    3096    3098    3097    3097    3099    3097    3100
    3097    3101    3098    3102    3098    3103    3098    3104
    3106    3105    3105    3107    3105    3108    3105    3109
    3106    3110    3106    3111    3106    3112    3114    3113
    3113    3115    3113    3116    3113    3117    3114    3118
    3114    3119    3114    3120    3122    3121    3121    3123
    3121    3124    3121    3125    3122    3126    3122    3127
    3122    3128    3130    3129    3129    3131    3129    3132
    3129    3133    3130    3134    3130    3135    3130    3136
    3138    3137    3137    3139    3137    3140    3137    3141
    3138    3142    3138    3143    3138    3144    3146    3145
    3145    3147    3145    3148    3145    3149    3146    3150
    3146    3151    3146    3152    3154    3153    3153    3155
    3153    3156    3153    3157    3154    3158    3154    3159
    3154    3160    3162    3161    3161    3163    3161    3164
    3161    3165    3162    3166    3162    3167    3162    3168
    3170    3169    3169    3171    3169    3172    3169    3173
    3170    3174    3170    3175    3170    3176    3178    3177
    3177    3179    3177    3180    3177    3181    3178    3182
    3178    3183    3178    3184    3186    3185    3185    3187
    3185    3188    3185    3189    3186    3190    3186    3191
    3186    3192    3194    3193    3193    3195    3193    3196
    3193    3197    3194    3198    3194    3199    3194    3200

    4800 !NTHETA: angles
       2       1       3       2       1       4       2       1       5
       4       1       3       5       1       3       5       1       4
       1       2       6       1       2       7       1       2       8
       7       2       6       8       2       6       8       2       7
      10       9      11      10       9      12      10       9      13
      12       9      11      13       9      11      13       9      12
       9      10      14       9      10      15       9      10      16
      15      10      14      16      10      14      16      10      15
      18      17      19      18      17      20      18      17      21
      20      17      19      21      17      19      21      17      20
      17      18      22      17      18      23      17      18      24
      23      18      22      24      18      22      24      18      23
      26      25      27      26      25      28      26      25      29
      28      25      27      29      25      27      29      25      28
      25      26      30      25      26      31      25      26      32
      31      26      30      32      26      30      32      26      31
      34      33      35      34      33      36      34      33      37
      36      33      35      37      33      35      37      33      36
      33      34      38      33      34      39      33      34      40
      39      34      38      40      34      38      40      34      39
      42      41      43      42      41      44      42      41      45
      44      41      43      45      41      43      45      41      44
      41      42      46      41      42      47      41      42      48
      47      42      46      48      42      46      48      42      47
      50      49      51      50      49      52      50      49      53
      52      49      51      53      49      51      53      49      52
      49      50      54      49      50      55      49      50      56
      55      50      54      56      50      54      56      50      55
      58      57      59      58      57      60      58      57      61
      60      57      59      61      57      59      61      57      60
      57      58      62      57      58      63      57      58      64
      63      58      62      64      58      62      64      58      63
      66      65      67      66      65      68      66      65      69
      68      65      67      69      65      67      69      65      68
      65      66      70      65      66      71      65      66      72
      71      66      70      72      66      70      72      66      71
      74      73      75      74      73      76      74      73      77
      76      73      75      77      73      75      77      73      76
      73      74      78      73      74      79      73      74      80
      79      74      78      80      74      78      80      74      79
      82      81      83      82      81      84      82      81      85
      84      81      83      85      81      83      85      81      84
      81      82      86      81      82      87      81      82      88
      87      82      86      88      82      86      88      82      87
      90      89      91      90      89      92      90      89      93
      92      89      91      93      89      91      93      89      92
      89      90      94      89      90      95      89      90      96
      95      90      94      96      90      94      96      90      95
      98      97      99      98      97     100      98      97     101
     100      97      99     101      97      99     101      97     100
      97      98     102      97      98     103      97      98     104
     103      98     102     104      98     102     104      98     103
     106     105     107     106     105     108     106     105     109
     108     105     107     109     105     107     109     105     108
     105     106     110     105     106     111     105     106     112
     111     106     110     112     106     110     112     106     111
     114     113     115     114     113     116     114     113     117
     116     113     115     117     113     115     117     113     116
     113     114     118     113     114     119     113     114     120
     119     114     118     120     114     118     120     114     119
     122     121     123     122     121     124     122     121     125
     124     121     123     125     121     123     125     121     124
     121     122     126     121     122     127     121     122     128
     127     122     126     128     122     126     128     122     127
     130     129     131     130     129     132     130     129     133
     132     129     131     133     129     131     133     129     132
     129     130     134     129     130     135     129     130     136
     135     130     134     136     130     134     136     130     135
     138     137     139     138     137     140     138     137     141
     140     137     139     141     137     139     141     137     140
     137     138     142     137     138     143     137     138     144
     143     138     142     144     138     142     144     138     143
     146     145     147     146     145     148     146     145     149
     148     145     147     149     145     147     149     145     148
     145     146     150     145     146     151     145     146     152
     151     146     150     152     146     150     152     146     151
     154     153     155     154     153     156     154     153     157
     156     153     155     157     153     155     157     153     156
     153     154     158     153     154     159     153     154     160
     159     154     158     160     154     158     160     154     159
     162     161     163     162     161     164     162     161     165
     164     161     163     165     161     163     165     161     164
     161     162     166     161     162     167     161     162     168
     167     162     166     168     162     166     168     162     167
     170     169     171     170     169     172     170     169     173
     172     169     171     173     169     171     173     169     172
     169     170     174     169     170     175     169     170     176
     175     170     174     176     170     174     176     170     175
     178     177     179     178     177     180     178     177     181
     180     177     179     181     177     179     181     177     180
     177     178     182     177     178     183     177     178     184
     183     178     182     184     178     182     184     178     183
     186     185     187     186     185     188     186     185     189
     188     185     187     189     185     187     189     185     188
     185     186     190     185     186     191     185     186     192
     191     186     190     192     186     190     192     186     191
     194     193     195     194     193     196     194     193     197
     196     193     195     197     193     195     197     193     196
     193     194     198     193     194     199     193     194     200
     199     194     198     200     194     198     200     194     199
     202     201     203     202     201     204     202     201     205
     204     201     203     205     201     203     205     201     204
     201     202     206     201     202     207     201     202     208
     207     202     206     208     202     206     208     202     207
     210     209     211     210     209     212     210     209     213
     212     209     211     213     209     211     213     209     212
     209     210     214     209     210     215     209     210     216
     215     210     214     216     210     214     216     210     215
     218     217     219     218     217     220     218     217     221
     220     217     219     221     217     219     221     217     220
     217     218     222     217     218     223     217     218     224
     223     218     222     224     218     222     224     218     223
     226     225     227     226     225     228     226     225     229
     228     225     227     229     225     227     229     225     228
     225     226     230     225     226     231     225     226     232
     231     226     230     232     226     230     232     226     231
     234     233     235     234     233     236     234     233     237
     236     233     235     237     233     235     237     233     236
     233     234     238     233     234     239     233     234     240
     239     234     238     240     234     238     240     234     239
     242     241     243     242     241     244     242     241     245
     244     241     243     245     241     243     245     241     244
     241     242     246     241     242     247     241     242     248
     247     242     246     248     242     246     248     242     247
     250     249     251     250     249     252     250     249     253
     252     249     251     253     249     251     253     249     252
     249     250     254     249     250     255     249     250     256
     255     250     254     256     250     254     256     250     255
     258     257     259     258     257     260     258     257     261
     260     257     259     261     257     259     261     257     260
     257     258     262     257     258     263     257     258     264
     263     258     262     264     258     262     264     258     263
     266     265     267     266     265     268     266     265     269
     268     265     267     269     265     267     269     265     268
     265     266     270     265     266     271     265     266     272
     271     266     270     272     266     270     272     266     271
     274     273     275     274     273     276     274     273     277
     276     273     275     277     273     275     277     273     276
     273     274     278     273     274     279     273     274     280
     279     274     278     280     274     278     280     274     279
     282     281     283     282     281     284     282     281     285
     284     281     283     285     281     283     285     281     284
     281     282     286     281     282     287     281     282     288
     287     282     286     288     282     286     288     282     287
     290     289     291     290     289     292     290     289     293
     292     289     291     293     289     291     293     289     292
     289     290     294     289     290     295     289     290     296
     295     290     294     296     290     294     296     290     295
     298     297     299     298     297     300     298     297     301
     300     297     299     301     297     299     301     297     300
     297     298     302     297     298     303     297     298     304
     303     298     302     304     298     302     304     298     303
     306     305     307     306     305     308     306     305     309
     308     305     307     309     305     307     309     305     308
     305     306     310     305     306     311     305     306     312
     311     306     310     312     306     310     312     306     311
     314     313     315     314     313     316     314     313     317
     316     313     315     317     313     315     317     313     316
     313     314     318     313     314     319     313     314     320
     319     314     318     320     314     318     320     314     319
     322     321     323     322     321     324     322     321     325
     324     321     323     325     321     323     325     321     324
     321     322     326     321     322     327     321     322     328
     327     322     326     328     322     326     328     322     327
     330     329     331     330     329     332     330     329     333
     332     329     331     333     329     331     333     329     332
     329     330     334     329     330     335     329     330     336
     335     330     334     336     330     334     336     330     335
     338     337     339     338     337     340     338     337     341
     340     337     339     341     337     339     341     337     340
     337     338     342     337     338     343     337     338     344
     343     338     342     344     338     342     344     338     343
     346     345     347     346     345     348     346     345     349
     348     345     347     349     345     347     349     345     348
     345     346     350     345     346     351     345     346     352
     351     346     350     352     346     350     352     346     351
     354     353     355     354     353     356     354     353     357
     356     353     355     357     353     355     357     353     356
     353     354     358     353     354     359     353     354     360
     359     354     358     360     354     358     360     354     359
     362     361     363     362     361     364     362     361     365
     364     361     363     365     361     363     365     361     364
     361     362     366     361     362     367     361     362     368
     367     362     366     368     362     366     368     362     367
     370     369     371     370     369     372     370     369     373
     372     369     371     373     369     371     373     369     372
     369     370     374     369     370     375     369     370     376
     375     370     374     376     370     374     376     370     375
     378     377     379     378     377     380     378     377     381
     380     377     379     381     377     379     381     377     380
     377     378     382     377     378     383     377     378     384
     383     378     382     384     378     382     384     378     383
     386     385     387     386     385     388     386     385     389
     388     385     387     389     385     387     389     385     388
     385     386     390     385     386     391     385     386     392
     391     386     390     392     386     390     392     386     391
     394     393     395     394     393     396     394     393     397
     396     393     395     397     393     395     397     393     396
     393     394     398     393     394     399     393     394     400
     399     394     398     400     394     398     400     394     399
     402     401     403     402     401     404     402     401     405
     404     401     403     405     401     403     405     401     404
     401     402     406     401     402     407     401     402     408
     407     402     406     408     402     406     408     402     407
     410     409     411     410     409     412     410     409     413
     412     409     411     413     409     411     413     409     412
     409     410     414     409     410     415     409     410     416
     415     410     414     416     410     414     416     410     415
     418     417     419     418     417     420     418     417     421
     420     417     419     421     417     419     421     417     420
     417     418     422     417     418     423     417     418     424
     423     418     422     424     418     422     424     418     423
     426     425     427     426     425     428     426     425     429
     428     425     427     429     425     427     429     425     428
     425     426     430     425     426     431     425     426     432
     431     426     430     432     426     430     432     426     431
     434     433     435     434     433     436     434     433     437
     436     433     435     437     433     435     437     433     436
     433     434     438     433     434     439     433     434     440
     439     434     438     440     434     438     440     434     439
     442     441     443     442     441     444     442     441     445
     444     441     443     445     441     443     445     441     444
     441     442     446     441     442     447     441     442     448
     447     442     446     448     442     446     448     442     447
     450     449     451     450     449     452     450     449     453
     452     449     451     453     449     451     453     449     452
     449     450     454     449     450     455     449     450     456
     455     450     454     456     450     454     456     450     455
     458     457     459     458     457     460     458     457     461
     460     457     459     461     457     459     461     457     460
     457     458     462     457     458     463     457     458     464
     463     458     462     464     458     462     464     458     463
     466     465     467     466     465     468     466     465     469
     468     465     467     469     465     467     469     465     468
     465     466     470     465     466     471     465     466     472
     471     466     470     472     466     470     472     466     471
     474     473     475     474     473     476     474     473     477
     476     473     475     477     473     475     477     473     476
     473     474     478     473     474     479     473     474     480
     479     474     478     480     474     478     480     474     479
     482     481     483     482     481     484     482     481     485
     484     481     483     485     481     483     485     481     484
     481     482     486     481     482     487     481     482     488
     487     482     486     488     482     486     488     482     487
     490     489     491     490     489     492     490     489     493
     492     489     491     493     489     491     493     489     492
     489     490     494     489     490     495     489     490     496
     495     490     494     496     490     494     496     490     495
     498     497     499     498     497     500     498     497     501
     500     497     499     501     497     499     501     497     500
     497     498     502     497     498     503     497     498     504
     503     498     502     504     498     502     504     498     503
     506     505     507     506     505     508     506     505     509
     508     505     507     509     505     507     509     505     508
     505     506     510     505     506     511     505     506     512
     511     506     510     512     506     510     512     506     511
     514     513     515     514     513     516     514     513     517
     516     513     515     517     513     515     517     513     516
     513     514     518     513     514     519     513     514     520
     519     514     518     520     514     518     520     514     519
     522     521     523     522     521     524     522     521     525
     524     521     523     525     521     523     525     521     524
     521     522     526     521     522     527     521     522     528
     527     522     526     528     522     526     528     522     527
     530     529     531     530     529     532     530     529     533
     532     529     531     533     529     531     533     529     532
     529     530     534     529     530     535     529     530     536
     535     530     534     536     530     534     536     530     535
     538     537     539     538     537     540     538     537     541
     540     537     539     541     537     539     541     537     540
     537     538     542     537     538     543     537     538     544
     543     538     542     544     538     542     544     538     543
     546     545     547     546     545     548     546     545     549
     548     545     547     549     545     547     549     545     548
     545     546     550     545     546     551     545     546     552
     551     546     550     552     546     550     552     546     551
     554     553     555     554     553     556     554     553     557
     556     553     555     557     553     555     557     553     556
     553     554     558     553     554     559     553     554     560
     559     554     558     560     554     558     560     554     559
     562     561     563     562     561     564     562     561     565
     564     561     563     565     561     563     565     561     564
     561     562     566     561     562     567     561     562     568
     567     562     566     568     562     566     568     562     567
     570     569     571     570     569     572     570     569     573
     572     569     571     573     569     571     573     569     572
     569     570     574     569     570     575     569     570     576
     575     570     574     576     570     574     576     570     575
     578     577     579     578     577     580     578     577     581
     580     577     579     581     577     579     581     577     580
     577     578     582     577     578     583     577     578     584
     583     578     582     584     578     582     584     578     583
     586     585     587     586     585     588     586     585     589
     588     585     587     589     585     587     589     585     588
     585     586     590     585     586     591     585     586     592
     591     586     590     592     586     590     592     586     591
     594     593     595     594     593     596     594     593     597
     596     593     595     597     593     595     597     593     596
     593     594     598     593     594     599     593     594     600
     599     594     598     600     594     598     600     594     599
     602     601     603     602     601     604     602     601     605
     604     601     603     605     601     603     605     601     604
     601     602     606     601     602     607     601     602     608
     607     602     606     608     602     606     608     602     607
     610     609     611     610     609     612     610     609     613
     612     609     611     613     609     611     613     609     612
     609     610     614     609     610     615     609     610     616
     615     610     614     616     610     614     616     610     615
     618     617     619     618     617     620     618     617     621
     620     617     619     621     617     619     621     617     620
     617     618     622     617     618     623     617     618     624
     623     618     622     624     618     622     624     618     623
     626     625     627     626     625     628     626     625     629
     628     625     627     629     625     627     629     625     628
     625     626     630     625     626     631     625     626     632
     631     626     630     632     626     630     632     626     631
     634     633     635     634     633     636     634     633     637
     636     633     635     637     633     635     637     633     636
     633     634     638     633     634     639     633     634     640
     639     634     638     640     634     638     640     634     639
     642     641     643     642     641     644     642     641     645
     644     641     643     645     641     643     645     641     644
     641     642     646     641     642     647     641     642     648
     647     642     646     648     642     646     648     642     647
     650     649     651     650     649     652     650     649     653
     652     649     651     653     649     651     653     649     652
     649     650     654     649     650     655     649     650     656
     655     650     654     656     650     654     656     650     655
     658     657     659     658     657     660     658     657     661
     660     657     659     661     657     659     661     657     660
     657     658     662     657     658     663     657     658     664
     663     658     662     664     658     662     664     658     663
     666     665     667     666     665     668     666     665     669
     668     665     667     669     665     667     669     665     668
     665     666     670     665     666     671     665     666     672
     671     666     670     672     666     670     672     666     671
     674     673     675     674     673     676     674     673     677
     676     673     675     677     673     675     677     673     676
     673     674     678     673     674     679     673     674     680
     679     674     678     680     674     678     680     674     679
     682     681     683     682     681     684     682     681     685
     684     681     683     685     681     683     685     681     684
     681     682     686     681     682     687     681     682     688
     687     682     686     688     682     686     688     682     687
     690     689     691     690     689     692     690     689     693
     692     689     691     693     689     691     693     689     692
     689     690     694     689     690     695     689     690     696
     695     690     694     696     690     694     696     690     695
     698     697     699     698     697     700     698     697     701
     700     697     699     701     697     699     701     697     700
     697     698     702     697     698     703     697     698     704
     703     698     702     704     698     702     704     698     703
     706     705     707     706     705     708     706     705     709
     708     705     707     709     705     707     709     705     708
     705     706     710     705     706     711     705     706     712
     711     706     710     712     706     710     712     706     711
     714     713     715     714     713     716     714     713     717
     716     713     715     717     713     715     717     713     716
     713     714     718     713     714     719     713     714     720
     719     714     718     720     714     718     720     714     719
     722     721     723     722     721     724     722     721     725
     724     721     723     725     721     723     725     721     724
     721     722     726     721     722     727     721     722     728
     727     722     726     728     722     726     728     722     727
     730     729     731     730     729     732     730     729     733
     732     729     731     733     729     731     733     729     732
     729     730     734     729     730     735     729     730     736
     735     730     734     736     730     734     736     730     735
     738     737     739     738     737     740     738     737     741
     740     737     739     741     737     739     741     737     740
     737     738     742     737     738     743     737     738     744
     743     738     742     744     738     742     744     738     743
     746     745     747     746     745     748     746     745     749
     748     745     747     749     745     747     749     745     748
     745     746     750     745     746     751     745     746     752
     751     746     750     752     746     750     752     746     751
     754     753     755     754     753     756     754     753     757
     756     753     755     757     753     755     757     753     756
     753     754     758     753     754     759     753     754     760
     759     754     758     760     754     758     760     754     759
     762     761     763     762     761     764     762     761     765
     764     761     763     765     761     763     765     761     764
     761     762     766     761     762     767     761     762     768
     767     762     766     768     762     766     768     762     767
     770     769     771     770     769     772     770     769     773
     772     769     771     773     769     771     773     769     772
     769     770     774     769     770     775     769     770     776
     775     770     774     776     770     774     776     770     775
     778     777     779     778     777     780     778     777     781
     780     777     779     781     777     779     781     777     780
     777     778     782     777     778     783     777     778     784
     783     778     782     784     778     782     784     778     783
     786     785     787     786     785     788     786     785     789
     788     785     787     789     785     787     789     785     788
     785     786     790     785     786     791     785     786     792
     791     786     790     792     786     790     792     786     791
     794     793     795     794     793     796     794     793     797
     796     793     795     797     793     795     797     793     796
     793     794     798     793     794     799     793     794     800
     799     794     798     800     794     798     800     794     799
     802     801     803     802     801     804     802     801     805
     804     801     803     805     801     803     805     801     804
     801     802     806     801     802     807     801     802     808
     807     802     806     808     802     806     808     802     807
     810     809     811     810     809     812     810     809     813
     812     809     811     813     809     811     813     809     812
     809     810     814     809     810     815     809     810     816
     815     810     814     816     810     814     816     810     815
     818     817     819     818     817     820     818     817     821
     820     817     819     821     817     819     821     817     820
     817     818     822     817     818     823     817     818     824
     823     818     822     824     818     822     824     818     823
     826     825     827     826     825     828     826     825     829
     828     825     827     829     825     827     829     825     828
     825     826     830     825     826     831     825     826     832
     831     826     830     832     826     830     832     826     831
     834     833     835     834     833     836     834     833     837
     836     833     835     837     833     835     837     833     836
     833     834     838     833     834     839     833     834     840
     839     834     838     840     834     838     840     834     839
     842     841     843     842     841     844     842     841     845
     844     841     843     845     841     843     845     841     844
     841     842     846     841     842     847     841     842     848
     847     842     846     848     842     846     848     842     847
     850     849     851     850     849     852     850     849     853
     852     849     851     853     849     851     853     849     852
     849     850     854     849     850     855     849     850     856
     855     850     854     856     850     854     856     850     855
     858     857     859     858     857     860     858     857     861
     860     857     859     861     857     859     861     857     860
     857     858     862     857     858     863     857     858     864
     863     858     862     864     858     862     864     858     863
     866     865     867     866     865     868     866     865     869
     868     865     867     869     865     867     869     865     868
     865     866     870     865     866     871     865     866     872
     871     866     870     872     866     870     872     866     871
     874     873     875     874     873     876     874     873     877
     876     873     875     877     873     875     877     873     876
     873     874     878     873     874     879     873     874     880
     879     874     878     880     874     878     880     874     879
     882     881     883     882     881     884     882     881     885
     884     881     883     885     881     883     885     881     884
     881     882     886     881     882     887     881     882     888
     887     882     886     888     882     886     888     882     887
     890     889     891     890     889     892     890     889     893
     892     889     891     893     889     891     893     889     892
     889     890     894     889     890     895     889     890     896
     895     890     894     896     890     894     896     890     895
     898     897     899     898     897     900     898     897     901
     900     897     899     901     897     899     901     897     900
     897     898     902     897     898     903     897     898     904
     903     898     902     904     898     902     904     898     903
     906     905     907     906     905     908     906     905     909
     908     905     907     909     905     907     909     905     908
     905     906     910     905     906     911     905     906     912
     911     906     910     912     906     910     912     906     911
     914     913     915     914     913     916     914     913     917
     916     913     915     917     913     915     917     913     916
     913     914     918     913     914     919     913     914     920
     919     914     918     920     914     918     920     914     919
     922     921     923     922     921     924     922     921     925
     924     921     923     925     921     923     925     921     924
     921     922     926     921     922     927     921     922     928
     927     922     926     928     922     926     928     922     927
     930     929     931     930     929     932     930     929     933
     932     929     931     933     929     931     933     929     932
     929     930     934     929     930     935     929     930     936
     935     930     934     936     930     934     936     930     935
     938     937     939     938     937     940     938     937     941
     940     937     939     941     937     939     941     937     940
     937     938     942     937     938     943     937     938     944
     943     938     942     944     938     942     944     938     943
     946     945     947     946     945     948     946     945     949
     948     945     947     949     945     947     949     945     948
     945     946     950     945     946     951     945     946     952
     951     946     950     952     946     950     952     946     951
     954     953     955     954     953     956     954     953     957
     956     953     955     957     953     955     957     953     956
     953     954     958     953     954     959     953     954     960
     959     954     958     960     954     958     960     954     959
     962     961     963     962     961     964     962     961     965
     964     961     963     965     961     963     965     961     964
     961     962     966     961     962     967     961     962     968
     967     962     966     968     962     966     968     962     967
     970     969     971     970     969     972     970     969     973
     972     969     971     973     969     971     973     969     972
     969     970     974     969     970     975     969     970     976
     975     970     974     976     970     974     976     970     975
     978     977     979     978     977     980     978     977     981
     980     977     979     981     977     979     981     977     980
     977     978     982     977     978     983     977     978     984
     983     978     982     984     978     982     984     978     983
     986     985     987     986     985     988     986     985     989
     988     985     987     989     985     987     989     985     988
     985     986     990     985     986     991     985     986     992
     991     986     990     992     986     990     992     986     991
     994     993     995     994     993     996     994     993     997
     996     993     995     997     993     995     997     993     996
     993     994     998     993     994     999     993     994    1000
     999     994     998    1000     994     998    1000     994     999
    1002    1001    1003    1002    1001    1004    1002    1001    1005
    1004    1001    1003    1005    1001    1003    1005    1001    1004
    1001    1002    1006    1001    1002    1007    1001    1002    1008
    1007    1002    1006    1008    1002    1006    1008    1002    1007
    1010    1009    1011    1010    1009    1012    1010    1009    1013
    1012    1009    1011    1013    1009    1011    1013    1009    1012
    1009    1010    1014    1009    1010    1015    1009    1010    1016
    1015    1010    1014    1016    1010    1014    1016    1010    1015
    1018    1017    1019    1018    1017    1020    1018    1017    1021
    1020    1017    1019    1021    1017    1019    1021    1017    1020
    1017    1018    1022    1017    1018    1023    1017    1018    1024
    1023    1018    1022    1024    1018    1022    1024    1018    1023
    1026    1025    1027    1026    1025    1028    1026    1025    1029
    1028    1025    1027    1029    1025    1027    1029    1025    1028
    1025    1026    1030    1025    1026    1031    1025    1026    1032
    1031    1026    1030    1032    1026    1030    1032    1026    1031
    1034    1033    1035    1034    1033    1036    1034    1033    1037
    1036    1033    1035    1037    1033    1035    1037    1033    1036
    1033    1034    1038    1033    1034    1039    1033    1034    1040
    1039    1034    1038    1040    1034    1038    1040    1034    1039
    1042    1041    1043    1042    1041    1044    1042    1041    1045
    1044    1041    1043    1045    1041    1043    1045    1041    1044
    1041    1042    1046    1041    1042    1047    1041    1042    1048
    1047    1042    1046    1048    1042    1046    1048    1042    1047
    1050    1049    1051    1050    1049    1052    1050    1049    1053
    1052    1049    1051    1053    1049    1051    1053    1049    1052
    1049    1050    1054    1049    1050    1055    1049    1050    1056
    1055    1050    1054    1056    1050    1054    1056    1050    1055
    1058    1057    1059    1058    1057    1060    1058    1057    1061
    1060    1057    1059    1061    1057    1059    1061    1057    1060
    1057    1058    1062    1057    1058    1063    1057    1058    1064
    1063    1058    1062    1064    1058    1062    1064    1058    1063
    1066    1065    1067    1066    1065    1068    1066    1065    1069
    1068    1065    1067    1069    1065    1067    1069    1065    1068
    1065    1066    1070    1065    1066    1071    1065    1066    1072
    1071    1066    1070    1072    1066    1070    1072    1066    1071
    1074    1073    1075    1074    1073    1076    1074    1073    1077
    1076    1073    1075    1077    1073    1075    1077    1073    1076
    1073    1074    1078    1073    1074    1079    1073    1074    1080
    1079    1074    1078    1080    1074    1078    1080    1074    1079
    1082    1081    1083    1082    1081    1084    1082    1081    1085
    1084    1081    1083    1085    1081    1083    1085    1081    1084
    1081    1082    1086    1081    1082    1087    1081    1082    1088
    1087    1082    1086    1088    1082    1086    1088    1082    1087
    1090    1089    1091    1090    1089    1092    1090    1089    1093
    1092    1089    1091    1093    1089    1091    1093    1089    1092
    1089    1090    1094    1089    1090    1095    1089    1090    1096
    1095    1090    1094    1096    1090    1094    1096    1090    1095
    1098    1097    1099    1098    1097    1100    1098    1097    1101
    1100    1097    1099    1101    1097    1099    1101    1097    1100
    1097    1098    1102    1097    1098    1103    1097    1098    1104
    1103    1098    1102    1104    1098    1102    1104    1098    1103
    1106    1105    1107    1106    1105    1108    1106    1105    1109
    1108    1105    1107    1109    1105    1107    1109    1105    1108
    1105    1106    1110    1105    1106    1111    1105    1106    1112
    1111    1106    1110    1112    1106    1110    1112    1106    1111
    1114    1113    1115    1114    1113    1116    1114    1113    1117
    1116    1113    1115    1117    1113    1115    1117    1113    1116
    1113    1114    1118    1113    1114    1119    1113    1114    1120
    1119    1114    1118    1120    1114    1118    1120    1114    1119
    1122    1121    1123    1122    1121    1124    1122    1121    1125
    1124    1121    1123    1125    1121    1123    1125    1121    1124
    1121    1122    1126    1121    1122    1127    1121    1122    1128
    1127    1122    1126    1128    1122    1126    1128    1122    1127
    1130    1129    1131    1130    1129    1132    1130    1129    1133
    1132    1129    1131    1133    1129    1131    1133    1129    1132
    1129    1130    1134    1129    1130    1135    1129    1130    1136
    1135    1130    1134    1136    1130    1134    1136    1130    1135
    1138    1137    1139    1138    1137    1140    1138    1137    1141
    1140    1137    1139    1141    1137    1139    1141    1137    1140
    1137    1138    1142    1137    1138    1143    1137    1138    1144
    1143    1138    1142    1144    1138    1142    1144    1138    1143
    1146    1145    1147    1146    1145    1148    1146    1145    1149
    1148    1145    1147    1149    1145    1147    1149    1145    1148
    1145    1146    1150    1145    1146    1151    1145    1146    1152
    1151    1146    1150    1152    1146    1150    1152    1146    1151
    1154    1153    1155    1154    1153    1156    1154    1153    1157
    1156    1153    1155    1157    1153    1155    1157    1153    1156
    1153    1154    1158    1153    1154    1159    1153    1154    1160
    1159    1154    1158    1160    1154    1158    1160    1154    1159
    1162    1161    1163    1162    1161    1164    1162    1161    1165
    1164    1161    1163    1165    1161    1163    1165    1161    1164
    1161    1162    1166    1161    1162    1167    1161    1162    1168
    1167    1162    1166    1168    1162    1166    1168    1162    1167
    1170    1169    1171    1170    1169    1172    1170    1169    1173
    1172    1169    1171    1173    1169    1171    1173    1169    1172
    1169    1170    1174    1169    1170    1175    1169    1170    1176
    1175    1170    1174    1176    1170    1174    1176    1170    1175
    1178    1177    1179    1178    1177    1180    1178    1177    1181
    1180    1177    1179    1181    1177    1179    1181    1177    1180
    1177    1178    1182    1177    1178    1183    1177    1178    1184
    1183    1178    1182    1184    1178    1182    1184    1178    1183
    1186    1185    1187    1186    1185    1188    1186    1185    1189
    1188    1185    1187    1189    1185    1187    1189    1185    1188
    1185    1186    1190    1185    1186    1191    1185    1186    1192
    1191    1186    1190    1192    1186    1190    1192    1186    1191
    1194    1193    1195    1194    1193    1196    1194    1193    1197
    1196    1193    1195    1197    1193    1195    1197    1193    1196
    1193    1194    1198    1193    1194    1199    1193    1194    1200
    1199    1194    1198    1200    1194    1198    1200    1194    1199
    1202    1201    1203    1202    1201    1204    1202    1201    1205
    1204    1201    1203    1205    1201    1203    1205    1201    1204
    1201    1202    1206    1201    1202    1207    1201    1202    1208
    1207    1202    1206    1208    1202    1206    1208    1202    1207
    1210    1209    1211    1210    1209    1212    1210    1209    1213
    1212    1209    1211    1213    1209    1211    1213    1209    1212
    1209    1210    1214    1209    1210    1215    1209    1210    1216
    1215    1210    1214    1216    1210    1214    1216    1210    1215
    1218    1217    1219    1218    1217    1220    1218    1217    1221
    1220    1217    1219    1221    1217    1219    1221    1217    1220
    1217    1218    1222    1217    1218    1223    1217    1218    1224
    1223    1218    1222    1224    1218    1222    1224    1218    1223
    1226    1225    1227    1226    1225    1228    1226    1225    1229
    1228    1225    1227    1229    1225    1227    1229    1225    1228
    1225    1226    1230    1225    1226    1231    1225    1226    1232
    1231    1226    1230    1232    1226    1230    1232    1226    1231
    1234    1233    1235    1234    1233    1236    1234    1233    1237
    1236    1233    1235    1237    1233    1235    1237    1233    1236
    1233    1234    1238    1233    1234    1239    1233    1234    1240
    1239    1234    1238    1240    1234    1238    1240    1234    1239
    1242    1241    1243    1242    1241    1244    1242    1241    1245
    1244    1241    1243    1245    1241    1243    1245    1241    1244
    1241    1242    1246    1241    1242    1247    1241    1242    1248
    1247    1242    1246    1248    1242    1246    1248    1242    1247
    1250    1249    1251    1250    1249    1252    1250    1249    1253
    1252    1249    1251    1253    1249    1251    1253    1249    1252
    1249    1250    1254    1249    1250    1255    1249    1250    1256
    1255    1250    1254    1256    1250    1254    1256    1250    1255
    1258    1257    1259    1258    1257    1260    1258    1257    1261
    1260    1257    1259    1261    1257    1259    1261    1257    1260
    1257    1258    1262    1257    1258    1263    1257    1258    1264
    1263    1258    1262    1264    1258    1262    1264    1258    1263
    1266    1265    1267    1266    1265    1268    1266    1265    1269
    1268    1265    1267    1269    1265    1267    1269    1265    1268
    1265    1266    1270    1265    1266    1271    1265    1266    1272
    1271    1266    1270    1272    1266    1270    1272    1266    1271
    1274    1273    1275    1274    1273    1276    1274    1273    1277
    1276    1273    1275    1277    1273    1275    1277    1273    1276
    1273    1274    1278    1273    1274    1279    1273    1274    1280
    1279    1274    1278    1280    1274    1278    1280    1274    1279
    1282    1281    1283    1282    1281    1284    1282    1281    1285
    1284    1281    1283    1285    1281    1283    1285    1281    1284
    1281    1282    1286    1281    1282    1287    1281    1282    1288
    1287    1282    1286    1288    1282    1286    1288    1282    1287
    1290    1289    1291    1290    1289    1292    1290    1289    1293
    1292    1289    1291    1293    1289    1291    1293    1289    1292
    1289    1290    1294    1289    1290    1295    1289    1290    1296
    1295    1290    1294    1296    1290    1294    1296    1290    1295
    1298    1297    1299    1298    1297    1300    1298    1297    1301
    1300    1297    1299    1301    1297    1299    1301    1297    1300
    1297    1298    1302    1297    1298    1303    1297    1298    1304
    1303    1298    1302    1304    1298    1302    1304    1298    1303
    1306    1305    1307    1306    1305    1308    1306    1305    1309
    1308    1305    1307    1309    1305    1307    1309    1305    1308
    1305    1306    1310    1305    1306    1311    1305    1306    1312
    1311    1306    1310    1312    1306    1310    1312    1306    1311
    1314    1313    1315    1314    1313    1316    1314    1313    1317
    1316    1313    1315    1317    1313    1315    1317    1313    1316
    1313    1314    1318    1313    1314    1319    1313    1314    1320
    1319    1314    1318    1320    1314    1318    1320    1314    1319
    1322    1321    1323    1322    1321    1324    1322    1321    1325
    1324    1321    1323    1325    1321    1323    1325    1321    1324
    1321    1322    1326    1321    1322    1327    1321    1322    1328
    1327    1322    1326    1328    1322    1326    1328    1322    1327
    1330    1329    1331    1330    1329    1332    1330    1329    1333
    1332    1329    1331    1333    1329    1331    1333    1329    1332
    1329    1330    1334    1329    1330    1335    1329    1330    1336
    1335    1330    1334    1336    1330    1334    1336    1330    1335
    1338    1337    1339    1338    1337    1340    1338    1337    1341
    1340    1337    1339    1341    1337    1339    1341    1337    1340
    1337    1338    1342    1337    1338    1343    1337    1338    1344
    1343    1338    1342    1344    1338    1342    1344    1338    1343
    1346    1345    1347    1346    1345    1348    1346    1345    1349
    1348    1345    1347    1349    1345    1347    1349    1345    1348
    1345    1346    1350    1345    1346    1351    1345    1346    1352
    1351    1346    1350    1352    1346    1350    1352    1346    1351
    1354    1353    1355    1354    1353    1356    1354    1353    1357
    1356    1353    1355    1357    1353    1355    1357    1353    1356
    1353    1354    1358    1353    1354    1359    1353    1354    1360
    1359    1354    1358    1360    1354    1358    1360    1354    1359
    1362    1361    1363    1362    1361    1364    1362    1361    1365
    1364    1361    1363    1365    1361    1363    1365    1361    1364
    1361    1362    1366    1361    1362    1367    1361    1362    1368
    1367    1362    1366    1368    1362    1366    1368    1362    1367
    1370    1369    1371    1370    1369    1372    1370    1369    1373
    1372    1369    1371    1373    1369    1371    1373    1369    1372
    1369    1370    1374    1369    1370    1375    1369    1370    1376
    1375    1370    1374    1376    1370    1374    1376    1370    1375
    1378    1377    1379    1378    1377    1380    1378    1377    1381
    1380    1377    1379    1381    1377    1379    1381    1377    1380
    1377    1378    1382    1377    1378    1383    1377    1378    1384
    1383    1378    1382    1384    1378    1382    1384    1378    1383
    1386    1385    1387    1386    1385    1388    1386    1385    1389
    1388    1385    1387    1389    1385    1387    1389    1385    1388
    1385    1386    1390    1385    1386    1391    1385    1386    1392
    1391    1386    1390    1392    1386    1390    1392    1386    1391
    1394    1393    1395    1394    1393    1396    1394    1393    1397
    1396    1393    1395    1397    1393    1395    1397    1393    1396
    1393    1394    1398    1393    1394    1399    1393    1394    1400
    1399    1394    1398    1400    1394    1398    1400    1394    1399
    1402    1401    1403    1402    1401    1404    1402    1401    1405
    1404    1401    1403    1405    1401    1403    1405    1401    1404
    1401    1402    1406    1401    1402    1407    1401    1402    1408
    1407    1402    1406    1408    1402    1406    1408    1402    1407
    1410    1409    1411    1410    1409    1412    1410    1409    1413
    1412    1409    1411    1413    1409    1411    1413    1409    1412
    1409    1410    1414    1409    1410    1415    1409    1410    1416
    1415    1410    1414    1416    1410    1414    1416    1410    1415
    1418    1417    1419    1418    1417    1420    1418    1417    1421
    1420    1417    1419    1421    1417    1419    1421    1417    1420
    1417    1418    1422    1417    1418    1423    1417    1418    1424
    1423    1418    1422    1424    1418    1422    1424    1418    1423
    1426    1425    1427    1426    1425    1428    1426    1425    1429
    1428    1425    1427    1429    1425    1427    1429    1425    1428
    1425    1426    1430    1425    1426    1431    1425    1426    1432
    1431    1426    1430    1432    1426    1430    1432    1426    1431
    1434    1433    1435    1434    1433    1436    1434    1433    1437
    1436    1433    1435    1437    1433    1435    1437    1433    1436
    1433    1434    1438    1433    1434    1439    1433    1434    1440
    1439    1434    1438    1440    1434    1438    1440    1434    1439
    1442    1441    1443    1442    1441    1444    1442    1441    1445
    1444    1441    1443    1445    1441    1443    1445    1441    1444
    1441    1442    1446    1441    1442    1447    1441    1442    1448
    1447    1442    1446    1448    1442    1446    1448    1442    1447
    1450    1449    1451    1450    1449    1452    1450    1449    1453
    1452    1449    1451    1453    1449    1451    1453    1449    1452
    1449    1450    1454    1449    1450    1455    1449    1450    1456
    1455    1450    1454    1456    1450    1454    1456    1450    1455
    1458    1457    1459    1458    1457    1460    1458    1457    1461
    1460    1457    1459    1461    1457    1459    1461    1457    1460
    1457    1458    1462    1457    1458    1463    1457    1458    1464
    1463    1458    1462    1464    1458    1462    1464    1458    1463
    1466    1465    1467    1466    1465    1468    1466    1465    1469
    1468    1465    1467    1469    1465    1467    1469    1465    1468
    1465    1466    1470    1465    1466    1471    1465    1466    1472
    1471    1466    1470    1472    1466    1470    1472    1466    1471
    1474    1473    1475    1474    1473    1476    1474    1473    1477
    1476    1473    1475    1477    1473    1475    1477    1473    1476
    1473    1474    1478    1473    1474    1479    1473    1474    1480
    1479    1474    1478    1480    1474    1478    1480    1474    1479
    1482    1481    1483    1482    1481    1484    1482    1481    1485
    1484    1481    1483    1485    1481    1483    1485    1481    1484
    1481    1482    1486    1481    1482    1487    1481    1482    1488
    1487    1482    1486    1488    1482    1486    1488    1482    1487
    1490    1489    1491    1490    1489    1492    1490    1489    1493
    1492    1489    1491    1493    1489    1491    1493    1489    1492
    1489    1490    1494    1489    1490    1495    1489    1490    1496
    1495    1490    1494    1496    1490    1494    1496    1490    1495
    1498    1497    1499    1498    1497    1500    1498    1497    1501
    1500    1497    1499    1501    1497    1499    1501    1497    1500
    1497    1498    1502    1497    1498    1503    1497    1498    1504
    1503    1498    1502    1504    1498    1502    1504    1498    1503
    1506    1505    1507    1506    1505    1508    1506    1505    1509
    1508    1505    1507    1509    1505    1507    1509    1505    1508
    1505    1506    1510    1505    1506    1511    1505    1506    1512
    1511    1506    1510    1512    1506    1510    1512    1506    1511
    1514    1513    1515    1514    1513    1516    1514    1513    1517
    1516    1513    1515    1517    1513    1515    1517    1513    1516
    1513    1514    1518    1513    1514    1519    1513    1514    1520
    1519    1514    1518    1520    1514    1518    1520    1514    1519
    1522    1521    1523    1522    1521    1524    1522    1521    1525
    1524    1521    1523    1525    1521    1523    1525    1521    1524
    1521    1522    1526    1521    1522    1527    1521    1522    1528
    1527    1522    1526    1528    1522    1526    1528    1522    1527
    1530    1529    1531    1530    1529    1532    1530    1529    1533
    1532    1529    1531    1533    1529    1531    1533    1529    1532
    1529    1530    1534    1529    1530    1535    1529    1530    1536
    1535    1530    1534    1536    1530    1534    1536    1530    1535
    1538    1537    1539    1538    1537    1540    1538    1537    1541
    1540    1537    1539    1541    1537    1539    1541    1537    1540
    1537    1538    1542    1537    1538    1543    1537    1538    1544
    1543    1538    1542    1544    1538    1542    1544    1538    1543
    1546    1545    1547    1546    1545    1548    1546    1545    1549
    1548    1545    1547    1549    1545    1547    1549    1545    1548
    1545    1546    1550    1545    1546    1551    1545    1546    1552
    1551    1546    1550    1552    1546    1550    1552    1546    1551
    1554    1553    1555    1554    1553    1556    1554    1553    1557
    1556    1553    1555    1557    1553    1555    1557    1553    1556
    1553    1554    1558    1553    1554    1559    1553    1554    1560
    1559    1554    1558    1560    1554    1558    1560    1554    1559
    1562    1561    1563    1562    1561    1564    1562    1561    1565
    1564    1561    1563    1565    1561    1563    1565    1561    1564
    1561    1562    1566    1561    1562    1567    1561    1562    1568
    1567    1562    1566    1568    1562    1566    1568    1562    1567
    1570    1569    1571    1570    1569    1572    1570    1569    1573
    1572    1569    1571    1573    1569    1571    1573    1569    1572
    1569    1570    1574    1569    1570    1575    1569    1570    1576
    1575    1570    1574    1576    1570    1574    1576    1570    1575
    1578    1577    1579    1578    1577    1580    1578    1577    1581
    1580    1577    1579    1581    1577    1579    1581    1577    1580
    1577    1578    1582    1577    1578    1583    1577    1578    1584
    1583    1578    1582    1584    1578    1582    1584    1578    1583
    1586    1585    1587    1586    1585    1588    1586    1585    1589
    1588    1585    1587    1589    1585    1587    1589    1585    1588
    1585    1586    1590    1585    1586    1591    1585    1586    1592
    1591    1586    1590    1592    1586    1590    1592    1586    1591
    1594    1593    1595    1594    1593    1596    1594    1593    1597
    1596    1593    1595    1597    1593    1595    1597    1593    1596
    1593    1594    1598    1593    1594    1599    1593    1594    1600
    1599    1594    1598    1600    1594    1598    1600    1594    1599
    1602    1601    1603    1602    1601    1604    1602    1601    1605
    1604    1601    1603    1605    1601    1603    1605    1601    1604
    1601    1602    1606    1601    1602    1607    1601    1602    1608
    1607    1602    1606    1608    1602    1606    1608    1602    1607
    1610    1609    1611    1610    1609    1612    1610    1609    1613
    1612    1609    1611    1613    1609    1611    1613    1609    1612
    1609    1610    1614    1609    1610    1615    1609    1610    1616
    1615    1610    1614    1616    1610    1614    1616    1610    1615
    1618    1617    1619    1618    1617    1620    1618    1617    1621
    1620    1617    1619    1621    1617    1619    1621    1617    1620
    1617    1618    1622    1617    1618    1623    1617    1618    1624
    1623    1618    1622    1624    1618    1622    1624    1618    1623
    1626    1625    1627    1626    1625    1628    1626    1625    1629
    1628    1625    1627    1629    1625    1627    1629    1625    1628
    1625    1626    1630    1625    1626    1631    1625    1626    1632
    1631    1626    1630    1632    1626    1630    1632    1626    1631
    1634    1633    1635    1634    1633    1636    1634    1633    1637
    1636    1633    1635    1637    1633    1635    1637    1633    1636
    1633    1634    1638    1633    1634    1639    1633    1634    1640
    1639    1634    1638    1640    1634    1638    1640    1634    1639
    1642    1641    1643    1642    1641    1644    1642    1641    1645
    1644    1641    1643    1645    1641    1643    1645    1641    1644
    1641    1642    1646    1641    1642    1647    1641    1642    1648
    1647    1642    1646    1648    1642    1646    1648    1642    1647
    1650    1649    1651    1650    1649    1652    1650    1649    1653
    1652    1649    1651    1653    1649    1651    1653    1649    1652
    1649    1650    1654    1649    1650    1655    1649    1650    1656
    1655    1650    1654    1656    1650    1654    1656    1650    1655
    1658    1657    1659    1658    1657    1660    1658    1657    1661
    1660    1657    1659    1661    1657    1659    1661    1657    1660
    1657    1658    1662    1657    1658    1663    1657    1658    1664
    1663    1658    1662    1664    1658    1662    1664    1658    1663
    1666    1665    1667    1666    1665    1668    1666    1665    1669
    1668    1665    1667    1669    1665    1667    1669    1665    1668
    1665    1666    1670    1665    1666    1671    1665    1666    1672
    1671    1666    1670    1672    1666    1670    1672    1666    1671
    1674    1673    1675    1674    1673    1676    1674    1673    1677
    1676    1673    1675    1677    1673    1675    1677    1673    1676
    1673    1674    1678    1673    1674    1679    1673    1674    1680
    1679    1674    1678    1680    1674    1678    1680    1674    1679
    1682    1681    1683    1682    1681    1684    1682    1681    1685
    1684    1681    1683    1685    1681    1683    1685    1681    1684
    1681    1682    1686    1681    1682    1687    1681    1682    1688
    1687    1682    1686    1688    1682    1686    1688    1682    1687
    1690    1689    1691    1690    1689    1692    1690    1689    1693
    1692    1689    1691    1693    1689    1691    1693    1689    1692
    1689    1690    1694    1689    1690    1695    1689    1690    1696
    1695    1690    1694    1696    1690    1694    1696    1690    1695
    1698    1697    1699    1698    1697    1700    1698    1697    1701
    1700    1697    1699    1701    1697    1699    1701    1697    1700
    1697    1698    1702    1697    1698    1703    1697    1698    1704
    1703    1698    1702    1704    1698    1702    1704    1698    1703
    1706    1705    1707    1706    1705    1708    1706    1705    1709
    1708    1705    1707    1709    1705    1707    1709    1705    1708
    1705    1706    1710    1705    1706    1711    1705    1706    1712
    1711    1706    1710    1712    1706    1710    1712    1706    1711
    1714    1713    1715    1714    1713    1716    1714    1713    1717
    1716    1713    1715    1717    1713    1715    1717    1713    1716
    1713    1714    1718    1713    1714    1719    1713    1714    1720
    1719    1714    1718    1720    1714    1718    1720    1714    1719
    1722    1721    1723    1722    1721    1724    1722    1721    1725
    1724    1721    1723    1725    1721    1723    1725    1721    1724
    1721    1722    1726    1721    1722    1727    1721    1722    1728
    1727    1722    1726    1728    1722    1726    1728    1722    1727
    1730    1729    1731    1730    1729    1732    1730    1729    1733
    1732    1729    1731    1733    1729    1731    1733    1729    1732
    1729    1730    1734    1729    1730    1735    1729    1730    1736
    1735    1730    1734    1736    1730    1734    1736    1730    1735
    1738    1737    1739    1738    1737    1740    1738    1737    1741
    1740    1737    1739    1741    1737    1739    1741    1737    1740
    1737    1738    1742    1737    1738    1743    1737    1738    1744
    1743    1738    1742    1744    1738    1742    1744    1738    1743
    1746    1745    1747    1746    1745    1748    1746    1745    1749
    1748    1745    1747    1749    1745    1747    1749    1745    1748
    1745    1746    1750    1745    1746    1751    1745    1746    1752
    1751    1746    1750    1752    1746    1750    1752    1746    1751
    1754    1753    1755    1754    1753    1756    1754    1753    1757
    1756    1753    1755    1757    1753    1755    1757    1753    1756
    1753    1754    1758    1753    1754    1759    1753    1754    1760
    1759    1754    1758    1760    1754    1758    1760    1754    1759
    1762    1761    1763    1762    1761    1764    1762    1761    1765
    1764    1761    1763    1765    1761    1763    1765    1761    1764
    1761    1762    1766    1761    1762    1767    1761    1762    1768
    1767    1762    1766    1768    1762    1766    1768    1762    1767
    1770    1769    1771    1770    1769    1772    1770    1769    1773
    1772    1769    1771    1773    1769    1771    1773    1769    1772
    1769    1770    1774    1769    1770    1775    1769    1770    1776
    1775    1770    1774    1776    1770    1774    1776    1770    1775
    1778    1777    1779    1778    1777    1780    1778    1777    1781
    1780    1777    1779    1781    1777    1779    1781    1777    1780
    1777    1778    1782    1777    1778    1783    1777    1778    1784
    1783    1778    1782    1784    1778    1782    1784    1778    1783
    1786    1785    1787    1786    1785    1788    1786    1785    1789
    1788    1785    1787    1789    1785    1787    1789    1785    1788
    1785    1786    1790    1785    1786    1791    1785    1786    1792
    1791    1786    1790    1792    1786    1790    1792    1786    1791
    1794    1793    1795    1794    1793    1796    1794    1793    1797
    1796    1793    1795    1797    1793    1795    1797    1793    1796
    1793    1794    1798    1793    1794    1799    1793    1794    1800
    1799    1794    1798    1800    1794    1798    1800    1794    1799
    1802    1801    1803    1802    1801    1804    1802    1801    1805
    1804    1801    1803    1805    1801    1803    1805    1801    1804
    1801    1802    1806    1801    1802    1807    1801    1802    1808
    1807    1802    1806    1808    1802    1806    1808    1802    1807
    1810    1809    1811    1810    1809    1812    1810    1809    1813
    1812    1809    1811    1813    1809    1811    1813    1809    1812
    1809    1810    1814    1809    1810    1815    1809    1810    1816
    1815    1810    1814    1816    1810    1814    1816    1810    1815
    1818    1817    1819    1818    1817    1820    1818    1817    1821
    1820    1817    1819    1821    1817    1819    1821    1817    1820
    1817    1818    1822    1817    1818    1823    1817    1818    1824
    1823    1818    1822    1824    1818    1822    1824    1818    1823
    1826    1825    1827    1826    1825    1828    1826    1825    1829
    1828    1825    1827    1829    1825    1827    1829    1825    1828
    1825    1826    1830    1825    1826    1831    1825    1826    1832
    1831    1826    1830    1832    1826    1830    1832    1826    1831
    1834    1833    1835    1834    1833    1836    1834    1833    1837
    1836    1833    1835    1837    1833    1835    1837    1833    1836
    1833    1834    1838    1833    1834    1839    1833    1834    1840
    1839    1834    1838    1840    1834    1838    1840    1834    1839
    1842    1841    1843    1842    1841    1844    1842    1841    1845
    1844    1841    1843    1845    1841    1843    1845    1841    1844
    1841    1842    1846    1841    1842    1847    1841    1842    1848
    1847    1842    1846    1848    1842    1846    1848    1842    1847
    1850    1849    1851    1850    1849    1852    1850    1849    1853
    1852    1849    1851    1853    1849    1851    1853    1849    1852
    1849    1850    1854    1849    1850    1855    1849    1850    1856
    1855    1850    1854    1856    1850    1854    1856    1850    1855
    1858    1857    1859    1858    1857    1860    1858    1857    1861
    1860    1857    1859    1861    1857    1859    1861    1857    1860
    1857    1858    1862    1857    1858    1863    1857    1858    1864
    1863    1858    1862    1864    1858    1862    1864    1858    1863
    1866    1865    1867    1866    1865    1868    1866    1865    1869
    1868    1865    1867    1869    1865    1867    1869    1865    1868
    1865    1866    1870    1865    1866    1871    1865    1866    1872
    1871    1866    1870    1872    1866    1870    1872    1866    1871
    1874    1873    1875    1874    1873    1876    1874    1873    1877
    1876    1873    1875    1877    1873    1875    1877    1873    1876
    1873    1874    1878    1873    1874    1879    1873    1874    1880
    1879    1874    1878    1880    1874    1878    1880    1874    1879
    1882    1881    1883    1882    1881    1884    1882    1881    1885
    1884    1881    1883    1885    1881    1883    1885    1881    1884
    1881    1882    1886    1881    1882    1887    1881    1882    1888
    1887    1882    1886    1888    1882    1886    1888    1882    1887
    1890    1889    1891    1890    1889    1892    1890    1889    1893
    1892    1889    1891    1893    1889    1891    1893    1889    1892
    1889    1890    1894    1889    1890    1895    1889    1890    1896
    1895    1890    1894    1896    1890    1894    1896    1890    1895
    1898    1897    1899    1898    1897    1900    1898    1897    1901
    1900    1897    1899    1901    1897    1899    1901    1897    1900
    1897    1898    1902    1897    1898    1903    1897    1898    1904
    1903    1898    1902    1904    1898    1902    1904    1898    1903
    1906    1905    1907    1906    1905    1908    1906    1905    1909
    1908    1905    1907    1909    1905    1907    1909    1905    1908
    1905    1906    1910    1905    1906    1911    1905    1906    1912
    1911    1906    1910    1912    1906    1910    1912    1906    1911
    1914    1913    1915    1914    1913    1916    1914    1913    1917
    1916    1913    1915    1917    1913    1915    1917    1913    1916
    1913    1914    1918    1913    1914    1919    1913    1914    1920
    1919    1914    1918    1920    1914    1918    1920    1914    1919
    1922    1921    1923    1922    1921    1924    1922    1921    1925
    1924    1921    1923    1925    1921    1923    1925    1921    1924
    1921    1922    1926    1921    1922    1927    1921    1922    1928
    1927    1922    1926    1928    1922    1926    1928    1922    1927
    1930    1929    1931    1930    1929    1932    1930    1929    1933
    1932    1929    1931    1933    1929    1931    1933    1929    1932
    1929    1930    1934    1929    1930    1935    1929    1930    1936
    1935    1930    1934    1936    1930    1934    1936    1930    1935
    1938    1937    1939    1938    1937    1940    1938    1937    1941
    1940    1937    1939    1941    1937    1939    1941    1937    1940
    1937    1938    1942    1937    1938    1943    1937    1938    1944
    1943    1938    1942    1944    1938    1942    1944    1938    1943
    1946    1945    1947    1946    1945    1948    1946    1945    1949
    1948    1945    1947    1949    1945    1947    1949    1945    1948
    1945    1946    1950    1945    1946    1951    1945    1946    1952
    1951    1946    1950    1952    1946    1950    1952    1946    1951
    1954    1953    1955    1954    1953    1956    1954    1953    1957
    1956    1953    1955    1957    1953    1955    1957    1953    1956
    1953    1954    1958    1953    1954    1959    1953    1954    1960
    1959    1954    1958    1960    1954    1958    1960    1954    1959
    1962    1961    1963    1962    1961    1964    1962    1961    1965
    1964    1961    1963    1965    1961    1963    1965    1961    1964
    1961    1962    1966    1961    1962    1967    1961    1962    1968
    1967    1962    1966    1968    1962    1966    1968    1962    1967
    1970    1969    1971    1970    1969    1972    1970    1969    1973
    1972    1969    1971    1973    1969    1971    1973    1969    1972
    1969    1970    1974    1969    1970    1975    1969    1970    1976
    1975    1970    1974    1976    1970    1974    1976    1970    1975
    1978    1977    1979    1978    1977    1980    1978    1977    1981
    1980    1977    1979    1981    1977    1979    1981    1977    1980
    1977    1978    1982    1977    1978    1983    1977    1978    1984
    1983    1978    1982    1984    1978    1982    1984    1978    1983
    1986    1985    1987    1986    1985    1988    1986    1985    1989
    1988    1985    1987    1989    1985    1987    1989    1985    1988
    1985    1986    1990    1985    1986    1991    1985    1986    1992
    1991    1986    1990    1992    1986    1990    1992    1986    1991
    1994    1993    1995    1994    1993    1996    1994    1993    1997
    1996    1993    1995    1997    1993    1995    1997    1993    1996
    1993    1994    1998    1993    1994    1999    1993    1994    2000
    1999    1994    1998    2000    1994    1998    2000    1994    1999
    2002    2001    2003    2002    2001    2004    2002    2001    2005
    2004    2001    2003    2005    2001    2003    2005    2001    2004
    2001    2002    2006    2001    2002    2007    2001    2002    2008
    2007    2002    2006    2008    2002    2006    2008    2002    2007
    2010    2009    2011    2010    2009    2012    2010    2009    2013
    2012    2009    2011    2013    2009    2011    2013    2009    2012
    2009    2010    2014    2009    2010    2015    2009    2010    2016
    2015    2010    2014    2016    2010    2014    2016    2010    2015
    2018    2017    2019    2018    2017    2020    2018    2017    2021
    2020    2017    2019    2021    2017    2019    2021    2017    2020
    2017    2018    2022    2017    2018    2023    2017    2018    2024
    2023    2018    2022    2024    2018    2022    2024    2018    2023
    2026    2025    2027    2026    2025    2028    2026    2025    2029
    2028    2025    2027    2029    2025    2027    2029    2025    2028
    2025    2026    2030    2025    2026    2031    2025    2026    2032
    2031    2026    2030    2032    2026    2030    2032    2026    2031
    2034    2033    2035    2034    2033    2036    2034    2033    2037
    2036    2033    2035    2037    2033    2035    2037    2033    2036
    2033    2034    2038    2033    2034    2039    2033    2034    2040
    2039    2034    2038    2040    2034    2038    2040    2034    2039
    2042    2041    2043    2042    2041    2044    2042    2041    2045
    2044    2041    2043    2045    2041    2043    2045    2041    2044
    2041    2042    2046    2041    2042    2047    2041    2042    2048
    2047    2042    2046    2048    2042    2046    2048    2042    2047
    2050    2049    2051    2050    2049    2052    2050    2049    2053
    2052    2049    2051    2053    2049    2051    2053    2049    2052
    2049    2050    2054    2049    2050    2055    2049    2050    2056
    2055    2050    2054    2056    2050    2054    2056    2050    2055
    2058    2057    2059    2058    2057    2060    2058    2057    2061
    2060    2057    2059    2061    2057    2059    2061    2057    2060
    2057    2058    2062    2057    2058    2063    2057    2058    2064
    2063    2058    2062    2064    2058    2062    2064    2058    2063
    2066    2065    2067    2066    2065    2068    2066    2065    2069
    2068    2065    2067    2069    2065    2067    2069    2065    2068
    2065    2066    2070    2065    2066    2071    2065    2066    2072
    2071    2066    2070    2072    2066    2070    2072    2066    2071
    2074    2073    2075    2074    2073    2076    2074    2073    2077
    2076    2073    2075    2077    2073    2075    2077    2073    2076
    2073    2074    2078    2073    2074    2079    2073    2074    2080
    2079    2074    2078    2080    2074    2078    2080    2074    2079
    2082    2081    2083    2082    2081    2084    2082    2081    2085
    2084    2081    2083    2085    2081    2083    2085    2081    2084
    2081    2082    2086    2081    2082    2087    2081    2082    2088
    2087    2082    2086    2088    2082    2086    2088    2082    2087
    2090    2089    2091    2090    2089    2092    2090    2089    2093
    2092    2089    2091    2093    2089    2091    2093    2089    2092
    2089    2090    2094    2089    2090    2095    2089    2090    2096
    2095    2090    2094    2096    2090    2094    2096    2090    2095
    2098    2097    2099    2098    2097    2100    2098    2097    2101
    2100    2097    2099    2101    2097    2099    2101    2097    2100
    2097    2098    2102    2097    2098    2103    2097    2098    2104
    2103    2098    2102    2104    2098    2102    2104    2098    2103
    2106    2105    2107    2106    2105    2108    2106    2105    2109
    2108    2105    2107    2109    2105    2107    2109    2105    2108
    2105    2106    2110    2105    2106    2111    2105    2106    2112
    2111    2106    2110    2112    2106    2110    2112    2106    2111
    2114    2113    2115    2114    2113    2116    2114    2113    2117
    2116    2113    2115    2117    2113    2115    2117    2113    2116
    2113    2114    2118    2113    2114    2119    2113    2114    2120
    2119    2114    2118    2120    2114    2118    2120    2114    2119
    2122    2121    2123    2122    2121    2124    2122    2121    2125
    2124    2121    2123    2125    2121    2123    2125    2121    2124
    2121    2122    2126    2121    2122    2127    2121    2122    2128
    2127    2122    2126    2128    2122    2126    2128    2122    2127
    2130    2129    2131    2130    2129    2132    2130    2129    2133
    2132    2129    2131    2133    2129    2131    2133    2129    2132
    2129    2130    2134    2129    2130    2135    2129    2130    2136
    2135    2130    2134    2136    2130    2134    2136    2130    2135
    2138    2137    2139    2138    2137    2140    2138    2137    2141
    2140    2137    2139    2141    2137    2139    2141    2137    2140
    2137    2138    2142    2137    2138    2143    2137    2138    2144
    2143    2138    2142    2144    2138    2142    2144    2138    2143
    2146    2145    2147    2146    2145    2148    2146    2145    2149
    2148    2145    2147    2149    2145    2147    2149    2145    2148
    2145    2146    2150    2145    2146    2151    2145    2146    2152
    2151    2146    2150    2152    2146    2150    2152    2146    2151
    2154    2153    2155    2154    2153    2156    2154    2153    2157
    2156    2153    2155    2157    2153    2155    2157    2153    2156
    2153    2154    2158    2153    2154    2159    2153    2154    2160
    2159    2154    2158    2160    2154    2158    2160    2154    2159
    2162    2161    2163    2162    2161    2164    2162    2161    2165
    2164    2161    2163    2165    2161    2163    2165    2161    2164
    2161    2162    2166    2161    2162    2167    2161    2162    2168
    2167    2162    2166    2168    2162    2166    2168    2162    2167
    2170    2169    2171    2170    2169    2172    2170    2169    2173
    2172    2169    2171    2173    2169    2171    2173    2169    2172
    2169    2170    2174    2169    2170    2175    2169    2170    2176
    2175    2170    2174    2176    2170    2174    2176    2170    2175
    2178    2177    2179    2178    2177    2180    2178    2177    2181
    2180    2177    2179    2181    2177    2179    2181    2177    2180
    2177    2178    2182    2177    2178    2183    2177    2178    2184
    2183    2178    2182    2184    2178    2182    2184    2178    2183
    2186    2185    2187    2186    2185    2188    2186    2185    2189
    2188    2185    2187    2189    2185    2187    2189    2185    2188
    2185    2186    2190    2185    2186    2191    2185    2186    2192
    2191    2186    2190    2192    2186    2190    2192    2186    2191
    2194    2193    2195    2194    2193    2196    2194    2193    2197
    2196    2193    2195    2197    2193    2195    2197    2193    2196
    2193    2194    2198    2193    2194    2199    2193    2194    2200
    2199    2194    2198    2200    2194    2198    2200    2194    2199
    2202    2201    2203    2202    2201    2204    2202    2201    2205
    2204    2201    2203    2205    2201    2203    2205    2201    2204
    2201    2202    2206    2201    2202    2207    2201    2202    2208
    2207    2202    2206    2208    2202    2206    2208    2202    2207
    2210    2209    2211    2210    2209    2212    2210    2209    2213
    2212    2209    2211    2213    2209    2211    2213    2209    2212
    2209    2210    2214    2209    2210    2215    2209    2210    2216
    2215    2210    2214    2216    2210    2214    2216    2210    2215
    2218    2217    2219    2218    2217    2220    2218    2217    2221
    2220    2217    2219    2221    2217    2219    2221    2217    2220
    2217    2218    2222    2217    2218    2223    2217    2218    2224
    2223    2218    2222    2224    2218    2222    2224    2218    2223
    2226    2225    2227    2226    2225    2228    2226    2225    2229
    2228    2225    2227    2229    2225    2227    2229    2225    2228
    2225    2226    2230    2225    2226    2231    2225    2226    2232
    2231    2226    2230    2232    2226    2230    2232    2226    2231
    2234    2233    2235    2234    2233    2236    2234    2233    2237
    2236    2233    2235    2237    2233    2235    2237    2233    2236
    2233    2234    2238    2233    2234    2239    2233    2234    2240
    2239    2234    2238    2240    2234    2238    2240    2234    2239
    2242    2241    2243    2242    2241    2244    2242    2241    2245
    2244    2241    2243    2245    2241    2243    2245    2241    2244
    2241    2242    2246    2241    2242    2247    2241    2242    2248
    2247    2242    2246    2248    2242    2246    2248    2242    2247
    2250    2249    2251    2250    2249    2252    2250    2249    2253
    2252    2249    2251    2253    2249    2251    2253    2249    2252
    2249    2250    2254    2249    2250    2255    2249    2250    2256
    2255    2250    2254    2256    2250    2254    2256    2250    2255
    2258    2257    2259    2258    2257    2260    2258    2257    2261
    2260    2257    2259    2261    2257    2259    2261    2257    2260
    2257    2258    2262    2257    2258    2263    2257    2258    2264
    2263    2258    2262    2264    2258    2262    2264    2258    2263
    2266    2265    2267    2266    2265    2268    2266    2265    2269
    2268    2265    2267    2269    2265    2267    2269    2265    2268
    2265    2266    2270    2265    2266    2271    2265    2266    2272
    2271    2266    2270    2272    2266    2270    2272    2266    2271
    2274    2273    2275    2274    2273    2276    2274    2273    2277
    2276    2273    2275    2277    2273    2275    2277    2273    2276
    2273    2274    2278    2273    2274    2279    2273    2274    2280
    2279    2274    2278    2280    2274    2278    2280    2274    2279
    2282    2281    2283    2282    2281    2284    2282    2281    2285
    2284    2281    2283    2285    2281    2283    2285    2281    2284
    2281    2282    2286    2281    2282    2287    2281    2282    2288
    2287    2282    2286    2288    2282    2286    2288    2282    2287
    2290    2289    2291    2290    2289    2292    2290    2289    2293
    2292    2289    2291    2293    2289    2291    2293    2289    2292
    2289    2290    2294    2289    2290    2295    2289    2290    2296
    2295    2290    2294    2296    2290    2294    2296    2290    2295
    2298    2297    2299    2298    2297    2300    2298    2297    2301
    2300    2297    2299    2301    2297    2299    2301    2297    2300
    2297    2298    2302    2297    2298    2303    2297    2298    2304
    2303    2298    2302    2304    2298    2302    2304    2298    2303
    2306    2305    2307    2306    2305    2308    2306    2305    2309
    2308    2305    2307    2309    2305    2307    2309    2305    2308
    2305    2306    2310    2305    2306    2311    2305    2306    2312
    2311    2306    2310    2312    2306    2310    2312    2306    2311
    2314    2313    2315    2314    2313    2316    2314    2313    2317
    2316    2313    2315    2317    2313    2315    2317    2313    2316
    2313    2314    2318    2313    2314    2319    2313    2314    2320
    2319    2314    2318    2320    2314    2318    2320    2314    2319
    2322    2321    2323    2322    2321    2324    2322    2321    2325
    2324    2321    2323    2325    2321    2323    2325    2321    2324
    2321    2322    2326    2321    2322    2327    2321    2322    2328
    2327    2322    2326    2328    2322    2326    2328    2322    2327
    2330    2329    2331    2330    2329    2332    2330    2329    2333
    2332    2329    2331    2333    2329    2331    2333    2329    2332
    2329    2330    2334    2329    2330    2335    2329    2330    2336
    2335    2330    2334    2336    2330    2334    2336    2330    2335
    2338    2337    2339    2338    2337    2340    2338    2337    2341
    2340    2337    2339    2341    2337    2339    2341    2337    2340
    2337    2338    2342    2337    2338    2343    2337    2338    2344
    2343    2338    2342    2344    2338    2342    2344    2338    2343
    2346    2345    2347    2346    2345    2348    2346    2345    2349
    2348    2345    2347    2349    2345    2347    2349    2345    2348
    2345    2346    2350    2345    2346    2351    2345    2346    2352
    2351    2346    2350    2352    2346    2350    2352    2346    2351
    2354    2353    2355    2354    2353    2356    2354    2353    2357
    2356    2353    2355    2357    2353    2355    2357    2353    2356
    2353    2354    2358    2353    2354    2359    2353    2354    2360
    2359    2354    2358    2360    2354    2358    2360    2354    2359
    2362    2361    2363    2362    2361    2364    2362    2361    2365
    2364    2361    2363    2365    2361    2363    2365    2361    2364
    2361    2362    2366    2361    2362    2367    2361    2362    2368
    2367    2362    2366    2368    2362    2366    2368    2362    2367
    2370    2369    2371    2370    2369    2372    2370    2369    2373
    2372    2369    2371    2373    2369    2371    2373    2369    2372
    2369    2370    2374    2369    2370    2375    2369    2370    2376
    2375    2370    2374    2376    2370    2374    2376    2370    2375
    2378    2377    2379    2378    2377    2380    2378    2377    2381
    2380    2377    2379    2381    2377    2379    2381    2377    2380
    2377    2378    2382    2377    2378    2383    2377    2378    2384
    2383    2378    2382    2384    2378    2382    2384    2378    2383
    2386    2385    2387    2386    2385    2388    2386    2385    2389
    2388    2385    2387    2389    2385    2387    2389    2385    2388
    2385    2386    2390    2385    2386    2391    2385    2386    2392
    2391    2386    2390    2392    2386    2390    2392    2386    2391
    2394    2393    2395    2394    2393    2396    2394    2393    2397
    2396    2393    2395    2397    2393    2395    2397    2393    2396
    2393    2394    2398    2393    2394    2399    2393    2394    2400
    2399    2394    2398    2400    2394    2398    2400    2394    2399
    2402    2401    2403    2402    2401    2404    2402    2401    2405
    2404    2401    2403    2405    2401    2403    2405    2401    2404
    2401    2402    2406    2401    2402    2407    2401    2402    2408
    2407    2402    2406    2408    2402    2406    2408    2402    2407
    2410    2409    2411    2410    2409    2412    2410    2409    2413
    2412    2409    2411    2413    2409    2411    2413    2409    2412
    2409    2410    2414    2409    2410    2415    2409    2410    2416
    2415    2410    2414    2416    2410    2414    2416    2410    2415
    2418    2417    2419    2418    2417    2420    2418    2417    2421
    2420    2417    2419    2421    2417    2419    2421    2417    2420
    2417    2418    2422    2417    2418    2423    2417    2418    2424
    2423    2418    2422    2424    2418    2422    2424    2418    2423
    2426    2425    2427    2426    2425    2428    2426    2425    2429
    2428    2425    2427    2429    2425    2427    2429    2425    2428
    2425    2426    2430    2425    2426    2431    2425    2426    2432
    2431    2426    2430    2432    2426    2430    2432    2426    2431
    2434    2433    2435    2434    2433    2436    2434    2433    2437
    2436    2433    2435    2437    2433    2435    2437    2433    2436
    2433    2434    2438    2433    2434    2439    2433    2434    2440
    2439    2434    2438    2440    2434    2438    2440    2434    2439
    2442    2441    2443    2442    2441    2444    2442    2441    2445
    2444    2441    2443    2445    2441    2443    2445    2441    2444
    2441    2442    2446    2441    2442    2447    2441    2442    2448
    2447    2442    2446    2448    2442    2446    2448    2442    2447
    2450    2449    2451    2450    2449    2452    2450    2449    2453
    2452    2449    2451    2453    2449    2451    2453    2449    2452
    2449    2450    2454    2449    2450    2455    2449    2450    2456
    2455    2450    2454    2456    2450    2454    2456    2450    2455
    2458    2457    2459    2458    2457    2460    2458    2457    2461
    2460    2457    2459    2461    2457    2459    2461    2457    2460
    2457    2458    2462    2457    2458    2463    2457    2458    2464
    2463    2458    2462    2464    2458    2462    2464    2458    2463
    2466    2465    2467    2466    2465    2468    2466    2465    2469
    2468    2465    2467    2469    2465    2467    2469    2465    2468
    2465    2466    2470    2465    2466    2471    2465    2466    2472
    2471    2466    2470    2472    2466    2470    2472    2466    2471
    2474    2473    2475    2474    2473    2476    2474    2473    2477
    2476    2473    2475    2477    2473    2475    2477    2473    2476
    2473    2474    2478    2473    2474    2479    2473    2474    2480
    2479    2474    2478    2480    2474    2478    2480    2474    2479
    2482    2481    2483    2482    2481    2484    2482    2481    2485
    2484    2481    2483    2485    2481    2483    2485    2481    2484
    2481    2482    2486    2481    2482    2487    2481    2482    2488
    2487    2482    2486    2488    2482    2486    2488    2482    2487
    2490    2489    2491    2490    2489    2492    2490    2489    2493
    2492    2489    2491    2493    2489    2491    2493    2489    2492
    2489    2490    2494    2489    2490    2495    2489    2490    2496
    2495    2490    2494    2496    2490    2494    2496    2490    2495
    2498    2497    2499    2498    2497    2500    2498    2497    2501
    2500    2497    2499    2501    2497    2499    2501    2497    2500
    2497    2498    2502    2497    2498    2503    2497    2498    2504
    2503    2498    2502    2504    2498    2502    2504    2498    2503
    2506    2505    2507    2506    2505    2508    2506    2505    2509
    2508    2505    2507    2509    2505    2507    2509    2505    2508
    2505    2506    2510    2505    2506    2511    2505    2506    2512
    2511    2506    2510    2512    2506    2510    2512    2506    2511
    2514    2513    2515    2514    2513    2516    2514    2513    2517
    2516    2513    2515    2517    2513    2515    2517    2513    2516
    2513    2514    2518    2513    2514    2519    2513    2514    2520
    2519    2514    2518    2520    2514    2518    2520    2514    2519
    2522    2521    2523    2522    2521    2524    2522    2521    2525
    2524    2521    2523    2525    2521    2523    2525    2521    2524
    2521    2522    2526    2521    2522    2527    2521    2522    2528
    2527    2522    2526    2528    2522    2526    2528    2522    2527
    2530    2529    2531    2530    2529    2532    2530    2529    2533
    2532    2529    2531    2533    2529    2531    2533    2529    2532
    2529    2530    2534    2529    2530    2535    2529    2530    2536
    2535    2530    2534    2536    2530    2534    2536    2530    2535
    2538    2537    2539    2538    2537    2540    2538    2537    2541
    2540    2537    2539    2541    2537    2539    2541    2537    2540
    2537    2538    2542    2537    2538    2543    2537    2538    2544
    2543    2538    2542    2544    2538    2542    2544    2538    2543
    2546    2545    2547    2546    2545    2548    2546    2545    2549
    2548    2545    2547    2549    2545    2547    2549    2545    2548
    2545    2546    2550    2545    2546    2551    2545    2546    2552
    2551    2546    2550    2552    2546    2550    2552    2546    2551
    2554    2553    2555    2554    2553    2556    2554    2553    2557
    2556    2553    2555    2557    2553    2555    2557    2553    2556
    2553    2554    2558    2553    2554    2559    2553    2554    2560
    2559    2554    2558    2560    2554    2558    2560    2554    2559
    2562    2561    2563    2562    2561    2564    2562    2561    2565
    2564    2561    2563    2565    2561    2563    2565    2561    2564
    2561    2562    2566    2561    2562    2567    2561    2562    2568
    2567    2562    2566    2568    2562    2566    2568    2562    2567
    2570    2569    2571    2570    2569    2572    2570    2569    2573
    2572    2569    2571    2573    2569    2571    2573    2569    2572
    2569    2570    2574    2569    2570    2575    2569    2570    2576
    2575    2570    2574    2576    2570    2574    2576    2570    2575
    2578    2577    2579    2578    2577    2580    2578    2577    2581
    2580    2577    2579    2581    2577    2579    2581    2577    2580
    2577    2578    2582    2577    2578    2583    2577    2578    2584
    2583    2578    2582    2584    2578    2582    2584    2578    2583
    2586    2585    2587    2586    2585    2588    2586    2585    2589
    2588    2585    2587    2589    2585    2587    2589    2585    2588
    2585    2586    2590    2585    2586    2591    2585    2586    2592
    2591    2586    2590    2592    2586    2590    2592    2586    2591
    2594    2593    2595    2594    2593    2596    2594    2593    2597
    2596    2593    2595    2597    2593    2595    2597    2593    2596
    2593    2594    2598    2593    2594    2599    2593    2594    2600
    2599    2594    2598    2600    2594    2598    2600    2594    2599
    2602    2601    2603    2602    2601    2604    2602    2601    2605
    2604    2601    2603    2605    2601    2603    2605    2601    2604
    2601    2602    2606    2601    2602    2607    2601    2602    2608
    2607    2602    2606    2608    2602    2606    2608    2602    2607
    2610    2609    2611    2610    2609    2612    2610    2609    2613
    2612    2609    2611    2613    2609    2611    2613    2609    2612
    2609    2610    2614    2609    2610    2615    2609    2610    2616
    2615    2610    2614    2616    2610    2614    2616    2610    2615
    2618    2617    2619    2618    2617    2620    2618    2617    2621
    2620    2617    2619    2621    2617    2619    2621    2617    2620
    2617    2618    2622    2617    2618    2623    2617    2618    2624
    2623    2618    2622    2624    2618    2622    2624    2618    2623
    2626    2625    2627    2626    2625    2628    2626    2625    2629
    2628    2625    2627    2629    2625    2627    2629    2625    2628
    2625    2626    2630    2625    2626    2631    2625    2626    2632
    2631    2626    2630    2632    2626    2630    2632    2626    2631
    2634    2633    2635    2634    2633    2636    2634    2633    2637
    2636    2633    2635    2637    2633    2635    2637    2633    2636
    2633    2634    2638    2633    2634    2639    2633    2634    2640
    2639    2634    2638    2640    2634    2638    2640    2634    2639
    2642    2641    2643    2642    2641    2644    2642    2641    2645
    2644    2641    2643    2645    2641    2643    2645    2641    2644
    2641    2642    2646    2641    2642    2647    2641    2642    2648
    2647    2642    2646    2648    2642    2646    2648    2642    2647
    2650    2649    2651    2650    2649    2652    2650    2649    2653
    2652    2649    2651    2653    2649    2651    2653    2649    2652
    2649    2650    2654    2649    2650    2655    2649    2650    2656
    2655    2650    2654    2656    2650    2654    2656    2650    2655
    2658    2657    2659    2658    2657    2660    2658    2657    2661
    2660    2657    2659    2661    2657    2659    2661    2657    2660
    2657    2658    2662    2657    2658    2663    2657    2658    2664
    2663    2658    2662    2664    2658    2662    2664    2658    2663
    2666    2665    2667    2666    2665    2668    2666    2665    2669
    2668    2665    2667    2669    2665    2667    2669    2665    2668
    2665    2666    2670    2665    2666    2671    2665    2666    2672
    2671    2666    2670    2672    2666    2670    2672    2666    2671
    2674    2673    2675    2674    2673    2676    2674    2673    2677
    2676    2673    2675    2677    2673    2675    2677    2673    2676
    2673    2674    2678    2673    2674    2679    2673    2674    2680
    2679    2674    2678    2680    2674    2678    2680    2674    2679
    2682    2681    2683    2682    2681    2684    2682    2681    2685
    2684    2681    2683    2685    2681    2683    2685    2681    2684
    2681    2682    2686    2681    2682    2687    2681    2682    2688
    2687    2682    2686    2688    2682    2686    2688    2682    2687
    2690    2689    2691    2690    2689    2692    2690    2689    2693
    2692    2689    2691    2693    2689    2691    2693    2689    2692
    2689    2690    2694    2689    2690    2695    2689    2690    2696
    2695    2690    2694    2696    2690    2694    2696    2690    2695
    2698    2697    2699    2698    2697    2700    2698    2697    2701
    2700    2697    2699    2701    2697    2699    2701    2697    2700
    2697    2698    2702    2697    2698    2703    2697    2698    2704
    2703    2698    2702    2704    2698    2702    2704    2698    2703
    2706    2705    2707    2706    2705    2708    2706    2705    2709
    2708    2705    2707    2709    2705    2707    2709    2705    2708
    2705    2706    2710    2705    2706    2711    2705    2706    2712
    2711    2706    2710    2712    2706    2710    2712    2706    2711
    2714    2713    2715    2714    2713    2716    2714    2713    2717
    2716    2713    2715    2717    2713    2715    2717    2713    2716
    2713    2714    2718    2713    2714    2719    2713    2714    2720
    2719    2714    2718    2720    2714    2718    2720    2714    2719
    2722    2721    2723    2722    2721    2724    2722    2721    2725
    2724    2721    2723    2725    2721    2723    2725    2721    2724
    2721    2722    2726    2721    2722    2727    2721    2722    2728
    2727    2722    2726    2728    2722    2726    2728    2722    2727
    2730    2729    2731    2730    2729    2732    2730    2729    2733
    2732    2729    2731    2733    2729    2731    2733    2729    2732
    2729    2730    2734    2729    2730    2735    2729    2730    2736
    2735    2730    2734    2736    2730    2734    2736    2730    2735
    2738    2737    2739    2738    2737    2740    2738    2737    2741
    2740    2737    2739    2741    2737    2739    2741    2737    2740
    2737    2738    2742    2737    2738    2743    2737    2738    2744
    2743    2738    2742    2744    2738    2742    2744    2738    2743
    2746    2745    2747    2746    2745    2748    2746    2745    2749
    2748    2745    2747    2749    2745    2747    2749    2745    2748
    2745    2746    2750    2745    2746    2751    2745    2746    2752
    2751    2746    2750    2752    2746    2750    2752    2746    2751
    2754    2753    2755    2754    2753    2756    2754    2753    2757
    2756    2753    2755    2757    2753    2755    2757    2753    2756
    2753    2754    2758    2753    2754    2759    2753    2754    2760
    2759    2754    2758    2760    2754    2758    2760    2754    2759
    2762    2761    2763    2762    2761    2764    2762    2761    2765
    2764    2761    2763    2765    2761    2763    2765    2761    2764
    2761    2762    2766    2761    2762    2767    2761    2762    2768
    2767    2762    2766    2768    2762    2766    2768    2762    2767
    2770    2769    2771    2770    2769    2772    2770    2769    2773
    2772    2769    2771    2773    2769    2771    2773    2769    2772
    2769    2770    2774    2769    2770    2775    2769    2770    2776
    2775    2770    2774    2776    2770    2774    2776    2770    2775
    2778    2777    2779    2778    2777    2780    2778    2777    2781
    2780    2777    2779    2781    2777    2779    2781    2777    2780
    2777    2778    2782    2777    2778    2783    2777    2778    2784
    2783    2778    2782    2784    2778    2782    2784    2778    2783
    2786    2785    2787    2786    2785    2788    2786    2785    2789
    2788    2785    2787    2789    2785    2787    2789    2785    2788
    2785    2786    2790    2785    2786    2791    2785    2786    2792
    2791    2786    2790    2792    2786    2790    2792    2786    2791
    2794    2793    2795    2794    2793    2796    2794    2793    2797
    2796    2793    2795    2797    2793    2795    2797    2793    2796
    2793    2794    2798    2793    2794    2799    2793    2794    2800
    2799    2794    2798    2800    2794    2798    2800    2794    2799
    2802    2801    2803    2802    2801    2804    2802    2801    2805
    2804    2801    2803    2805    2801    2803    2805    2801    2804
    2801    2802    2806    2801    2802    2807    2801    2802    2808
    2807    2802    2806    2808    2802    2806    2808    2802    2807
    2810    2809    2811    2810    2809    2812    2810    2809    2813
    2812    2809    2811    2813    2809    2811    2813    2809    2812
    2809    2810    2814    2809    2810    2815    2809    2810    2816
    2815    2810    2814    2816    2810    2814    2816    2810    2815
    2818    2817    2819    2818    2817    2820    2818    2817    2821
    2820    2817    2819    2821    2817    2819    2821    2817    2820
    2817    2818    2822    2817    2818    2823    2817    2818    2824
    2823    2818    2822    2824    2818    2822    2824    2818    2823
    2826    2825    2827    2826    2825    2828    2826    2825    2829
    2828    2825    2827    2829    2825    2827    2829    2825    2828
    2825    2826    2830    2825    2826    2831    2825    2826    2832
    2831    2826    2830    2832    2826    2830    2832    2826    2831
    2834    2833    2835    2834    2833    2836    2834    2833    2837
    2836    2833    2835    2837    2833    2835    2837    2833    2836
    2833    2834    2838    2833    2834    2839    2833    2834    2840
    2839    2834    2838    2840    2834    2838    2840    2834    2839
    2842    2841    2843    2842    2841    2844    2842    2841    2845
    2844    2841    2843    2845    2841    2843    2845    2841    2844
    2841    2842    2846    2841    2842    2847    2841    2842    2848
    2847    2842    2846    2848    2842    2846    2848    2842    2847
    2850    2849    2851    2850    2849    2852    2850    2849    2853
    2852    2849    2851    2853    2849    2851    2853    2849    2852
    2849    2850    2854    2849    2850    2855    2849    2850    2856
    2855    2850    2854    2856    2850    2854    2856    2850    2855
    2858    2857    2859    2858    2857    2860    2858    2857    2861
    2860    2857    2859    2861    2857    2859    2861    2857    2860
    2857    2858    2862    2857    2858    2863    2857    2858    2864
    2863    2858    2862    2864    2858    2862    2864    2858    2863
    2866    2865    2867    2866    2865    2868    2866    2865    2869
    2868    2865    2867    2869    2865    2867    2869    2865    2868
    2865    2866    2870    2865    2866    2871    2865    2866    2872
    2871    2866    2870    2872    2866    2870    2872    2866    2871
    2874    2873    2875    2874    2873    2876    2874    2873    2877
    2876    2873    2875    2877    2873    2875    2877    2873    2876
    2873    2874    2878    2873    2874    2879    2873    2874    2880
    2879    2874    2878    2880    2874    2878    2880    2874    2879
    2882    2881    2883    2882    2881    2884    2882    2881    2885
    2884    2881    2883    2885    2881    2883    2885    2881    2884
    2881    2882    2886    2881    2882    2887    2881    2882    2888
    2887    2882    2886    2888    2882    2886    2888    2882    2887
    2890    2889    2891    2890    2889    2892    2890    2889    2893
    2892    2889    2891    2893    2889    2891    2893    2889    2892
    2889    2890    2894    2889    2890    2895    2889    2890    2896
    2895    2890    2894    2896    2890    2894    2896    2890    2895
    2898    2897    2899    2898    2897    2900    2898    2897    2901
    2900    2897    2899    2901    2897    2899    2901    2897    2900
    2897    2898    2902    2897    2898    2903    2897    2898    2904
    2903    2898    2902    2904    2898    2902    2904    2898    2903
    2906    2905    2907    2906    2905    2908    2906    2905    2909
    2908    2905    2907    2909    2905    2907    2909    2905    2908
    2905    2906    2910    2905    2906    2911    2905    2906    2912
    2911    2906    2910    2912    2906    2910    2912    2906    2911
    2914    2913    2915    2914    2913    2916    2914    2913    2917
    2916    2913    2915    2917    2913    2915    2917    2913    2916
    2913    2914    2918    2913    2914    2919    2913    2914    2920
    2919    2914    2918    2920    2914    2918    2920    2914    2919
    2922    2921    2923    2922    2921    2924    2922    2921    2925
    2924    2921    2923    2925    2921    2923    2925    2921    2924
    2921    2922    2926    2921    2922    2927    2921    2922    2928
    2927    2922    2926    2928    2922    2926    2928    2922    2927
    2930    2929    2931    2930    2929    2932    2930    2929    2933
    2932    2929    2931    2933    2929    2931    2933    2929    2932
    2929    2930    2934    2929    2930    2935    2929    2930    2936
    2935    2930    2934    2936    2930    2934    2936    2930    2935
    2938    2937    2939    2938    2937    2940    2938    2937    2941
    2940    2937    2939    2941    2937    2939    2941    2937    2940
    2937    2938    2942    2937    2938    2943    2937    2938    2944
    2943    2938    2942    2944    2938    2942    2944    2938    2943
    2946    2945    2947    2946    2945    2948    2946    2945    2949
    2948    2945    2947    2949    2945    2947    2949    2945    2948
    2945    2946    2950    2945    2946    2951    2945    2946    2952
    2951    2946    2950    2952    2946    2950    2952    2946    2951
    2954    2953    2955    2954    2953    2956    2954    2953    2957
    2956    2953    2955    2957    2953    2955    2957    2953    2956
    2953    2954    2958    2953    2954    2959    2953    2954    2960
    2959    2954    2958    2960    2954    2958    2960    2954    2959
    2962    2961    2963    2962    2961    2964    2962    2961    2965
    2964    2961    2963    2965    2961    2963    2965    2961    2964
    2961    2962    2966    2961    2962    2967    2961    2962    2968
    2967    2962    2966    2968    2962    2966    2968    2962    2967
    2970    2969    2971    2970    2969    2972    2970    2969    2973
    2972    2969    2971    2973    2969    2971    2973    2969    2972
    2969    2970    2974    2969    2970    2975    2969    2970    2976
    2975    2970    2974    2976    2970    2974    2976    2970    2975
    2978    2977    2979    2978    2977    2980    2978    2977    2981
    2980    2977    2979    2981    2977    2979    2981    2977    2980
    2977    2978    2982    2977    2978    2983    2977    2978    2984
    2983    2978    2982    2984    2978    2982    2984    2978    2983
    2986    2985    2987    2986    2985    2988    2986    2985    2989
    2988    2985    2987    2989    2985    2987    2989    2985    2988
    2985    2986    2990    2985    2986    2991    2985    2986    2992
    2991    2986    2990    2992    2986    2990    2992    2986    2991
    2994    2993    2995    2994    2993    2996    2994    2993    2997
    2996    2993    2995    2997    2993    2995    2997    2993    2996
    2993    2994    2998    2993    2994    2999    2993    2994    3000
    2999    2994    2998    3000    2994    2998    3000    2994    2999
    3002    3001    3003    3002    3001    3004    3002    3001    3005
    3004    3001    3003    3005    3001    3003    3005    3001    3004
    3001    3002    3006    3001    3002    3007    3001    3002    3008
    3007    3002    3006    3008    3002    3006    3008    3002    3007
    3010    3009    3011    3010    3009    3012    3010    3009    3013
    3012    3009    3011    3013    3009    3011    3013    3009    3012
    3009    3010    3014    3009    3010    3015    3009    3010    3016
    3015    3010    3014    3016    3010    3014    3016    3010    3015
    3018    3017    3019    3018    3017    3020    3018    3017    3021
    3020    3017    3019    3021    3017    3019    3021    3017    3020
    3017    3018    3022    3017    3018    3023    3017    3018    3024
    3023    3018    3022    3024    3018    3022    3024    3018    3023
    3026    3025    3027    3026    3025    3028    3026    3025    3029
    3028    3025    3027    3029    3025    3027    3029    3025    3028
    3025    3026    3030    3025    3026    3031    3025    3026    3032
    3031    3026    3030    3032    3026    3030    3032    3026    3031
    3034    3033    3035    3034    3033    3036    3034    3033    3037
    3036    3033    3035    3037    3033    3035    3037    3033    3036
    3033    3034    3038    3033    3034    3039    3033    3034    3040
    3039    3034    3038    3040    3034    3038    3040    3034    3039
    3042    3041    3043    3042    3041    3044    3042    3041    3045
    3044    3041    3043    3045    3041    3043    3045    3041    3044
    3041    3042    3046    3041    3042    3047    3041    3042    3048
    3047    3042    3046    3048    3042    3046    3048    3042    3047
    3050    3049    3051    3050    3049    3052    3050    3049    3053
    3052    3049    3051    3053    3049    3051    3053    3049    3052
    3049    3050    3054    3049    3050    3055    3049    3050    3056
    3055    3050    3054    3056    3050    3054    3056    3050    3055
    3058    3057    3059    3058    3057    3060    3058    3057    3061
    3060    3057    3059    3061    3057    3059    3061    3057    3060
    3057    3058    3062    3057    3058    3063    3057    3058    3064
    3063    3058    3062    3064    3058    3062    3064    3058    3063
    3066    3065    3067    3066    3065    3068    3066    3065    3069
    3068    3065    3067    3069    3065    3067    3069    3065    3068
    3065    3066    3070    3065    3066    3071    3065    3066    3072
    3071    3066    3070    3072    3066    3070    3072    3066    3071
    3074    3073    3075    3074    3073    3076    3074    3073    3077
    3076    3073    3075    3077    3073    3075    3077    3073    3076
    3073    3074    3078    3073    3074    3079    3073    3074    3080
    3079    3074    3078    3080    3074    3078    3080    3074    3079
    3082    3081    3083    3082    3081    3084    3082    3081    3085
    3084    3081    3083    3085    3081    3083    3085    3081    3084
    3081    3082    3086    3081    3082    3087    3081    3082    3088
    3087    3082    3086    3088    3082    3086    3088    3082    3087
    3090    3089    3091    3090    3089    3092    3090    3089    3093
    3092    3089    3091    3093    3089    3091    3093    3089    3092
    3089    3090    3094    3089    3090    3095    3089    3090    3096
    3095    3090    3094    3096    3090    3094    3096    3090    3095
    3098    3097    3099    3098    3097    3100    3098    3097    3101
    3100    3097    3099    3101    3097    3099    3101    3097    3100
    3097    3098    3102    3097    3098    3103    3097    3098    3104
    3103    3098    3102    3104    3098    3102    3104    3098    3103
    3106    3105    3107    3106    3105    3108    3106    3105    3109
    3108    3105    3107    3109    3105    3107    3109    3105    3108
    3105    3106    3110    3105    3106    3111    3105    3106    3112
    3111    3106    3110    3112    3106    3110    3112    3106    3111
    3114    3113    3115    3114    3113    3116    3114    3113    3117
    3116    3113    3115    3117    3113    3115    3117    3113    3116
    3113    3114    3118    3113    3114    3119    3113    3114    3120
    3119    3114    3118    3120    3114    3118    3120    3114    3119
    3122    3121    3123    3122    3121    3124    3122    3121    3125
    3124    3121    3123    3125    3121    3123    3125    3121    3124
    3121    3122    3126    3121    3122    3127    3121    3122    3128
    3127    3122    3126    3128    3122    3126    3128    3122    3127
    3130    3129    3131    3130    3129    3132    3130    3129    3133
    3132    3129    3131    3133    3129    3131    3133    3129    3132
    3129    3130    3134    3129    3130    3135    3129    3130    3136
    3135    3130    3134    3136    3130    3134    3136    3130    3135
    3138    3137    3139    3138    3137    3140    3138    3137    3141
    3140    3137    3139    3141    3137    3139    3141    3137    3140
    3137    3138    3142    3137    3138    3143    3137    3138    3144
    3143    3138    3142    3144    3138    3142    3144    3138    3143
    3146    3145    3147    3146    3145    3148    3146    3145    3149
    3148    3145    3147    3149    3145    3147    3149    3145    3148
    3145    3146    3150    3145    3146    3151    3145    3146    3152
    3151    3146    3150    3152    3146    3150    3152    3146    3151
    3154    3153    3155    3154    3153    3156    3154    3153    3157
    3156    3153    3155    3157    3153    3155    3157    3153    3156
    3153    3154    3158    3153    3154    3159    3153    3154    3160
    3159    3154    3158    3160    3154    3158    3160    3154    3159
    3162    3161    3163    3162    3161    3164    3162    3161    3165
    3164    3161    3163    3165    3161    3163    3165    3161    3164
    3161    3162    3166    3161    3162    3167    3161    3162    3168
    3167    3162    3166    3168    3162    3166    3168    3162    3167
    3170    3169    3171    3170    3169    3172    3170    3169    3173
    3172    3169    3171    3173    3169    3171    3173    3169    3172
    3169    3170    3174    3169    3170    3175    3169    3170    3176
    3175    3170    3174    3176    3170    3174    3176    3170    3175
    3178    3177    3179    3178    3177    3180    3178    3177    3181
    3180    3177    3179    3181    3177    3179    3181    3177    3180
    3177    3178    3182    3177    3178    3183    3177    3178    3184
    3183    3178    3182    3184    3178    3182    3184    3178    3183
    3186    3185    3187    3186    3185    3188    3186    3185    3189
    3188    3185    3187    3189    3185    3187    3189    3185    3188
    3185    3186    3190    3185    3186    3191    3185    3186    3192
    3191    3186    3190    3192    3186    3190    3192    3186    3191
    3194    3193    3195    3194    3193    3196    3194    3193    3197
    3196    3193    3195    3197    3193    3195    3197    3193    3196
    3193    3194    3198    3193    3194    3199    3193    3194    3200
    3199    3194    3198    3200    3194    3198    3200    3194    3199

    3600 !NPHI: dihedrals
       6       2       1       3       7       2       1       3
       8       2       1       3       6       2       1       4
       7       2       1       4       8       2       1       4
       6       2       1       5       7       2       1       5
       8       2       1       5      14      10       9      11
      15      10       9      11      16      10       9      11
      14      10       9      12      15      10       9      12
      16      10       9      12      14      10       9      13
      15      10       9      13      16      10       9      13
      22      18      17      19      23      18      17      19
      24      18      17      19      22      18      17      20
      23      18      17      20      24      18      17      20
      22      18      17      21      23      18      17      21
      24      18      17      21      30      26      25      27
      31      26      25      27      32      26      25      27
      30      26      25      28      31      26      25      28
      32      26      25      28      30      26      25      29
      31      26      25      29      32      26      25      29
      38      34      33      35      39      34      33      35
      40      34      33      35      38      34      33      36
      39      34      33      36      40      34      33      36
      38      34      33      37      39      34      33      37
      40      34      33      37      46      42      41      43
      47      42      41      43      48      42      41      43
      46      42      41      44      47      42      41      44
      48      42      41      44      46      42      41      45
      47      42      41      45      48      42      41      45
      54      50      49      51      55      50      49      51
      56      50      49      51      54      50      49      52
      55      50      49      52      56      50      49      52
      54      50      49      53      55      50      49      53
      56      50      49      53      62      58      57      59
      63      58      57      59      64      58      57      59
      62      58      57      60      63      58      57      60
      64      58      57      60      62      58      57      61
      63      58      57      61      64      58      57      61
      70      66      65      67      71      66      65      67
      72      66      65      67      70      66      65      68
      71      66      65      68      72      66      65      68
      70      66      65      69      71      66      65      69
      72      66      65      69      78      74      73      75
      79      74      73      75      80      74      73      75
      78      74      73      76      79      74      73      76
      80      74      73      76      78      74      73      77
      79      74      73      77      80      74      73      77
      86      82      81      83      87      82      81      83
      88      82      81      83      86      82      81      84
      87      82      81      84      88      82      81      84
      86      82      81      85      87      82      81      85
      88      82      81      85      94      90      89      91
      95      90      89      91      96      90      89      91
      94      90      89      92      95      90      89      92
      96      90      89      92      94      90      89      93
      95      90      89      93      96      90      89      93
     102      98      97      99     103      98      97      99
     104      98      97      99     102      98      97     100
     103      98      97     100     104      98      97     100
     102      98      97     101     103      98      97     101
     104      98      97     101     110     106     105     107
     111     106     105     107     112     106     105     107
     110     106     105     108     111     106     105     108
     112     106     105     108     110     106     105     109
     111     106     105     109     112     106     105     109
     118     114     113     115     119     114     113     115
     120     114     113     115     118     114     113     116
     119     114     113     116     120     114     113     116
     118     114     113     117     119     114     113     117
     120     114     113     117     126     122     121     123
     127     122     121     123     128     122     121     123
     126     122     121     124     127     122     121     124
     128     122     121     124     126     122     121     125
     127     122     121     125     128     122     121     125
     134     130     129     131     135     130     129     131
     136     130     129     131     134     130     129     132
     135     130     129     132     136     130     129     132
     134     130     129     133     135     130     129     133
     136     130     129     133     142     138     137     139
     143     138     137     139     144     138     137     139
     142     138     137     140     143     138     137     140
     144     138     137     140     142     138     137     141
     143     138     137     141     144     138     137     141
     150     146     145     147     151     146     145     147
     152     146     145     147     150     146     145     148
     151     146     145     148     152     146     145     148
     150     146     145     149     151     146     145     149
     152     146     145     149     158     154     153     155
     159     154     153     155     160     154     153     155
     158     154     153     156     159     154     153     156
     160     154     153     156     158     154     153     157
     159     154     153     157     160     154     153     157
     166     162     161     163     167     162     161     163
     168     162     161     163     166     162     161     164
     167     162     161     164     168     162     161     164
     166     162     161     165     167     162     161     165
     168     162     161     165     174     170     169     171
     175     170     169     171     176     170     169     171
     174     170     169     172     175     170     169     172
     176     170     169     172     174     170     169     173
     175     170     169     173     176     170     169     173
     182     178     177     179     183     178     177     179
     184     178     177     179     182     178     177     180
     183     178     177     180     184     178     177     180
     182     178     177     181     183     178     177     181
     184     178     177     181     190     186     185     187
     191     186     185     187     192     186     185     187
     190     186     185     188     191     186     185     188
     192     186     185     188     190     186     185     189
     191     186     185     189     192     186     185     189
     198     194     193     195     199     194     193     195
     200     194     193     195     198     194     193     196
     199     194     193     196     200     194     193     196
     198     194     193     197     199     194     193     197
     200     194     193     197     206     202     201     203
     207     202     201     203     208     202     201     203
     206     202     201     204     207     202     201     204
     208     202     201     204     206     202     201     205
     207     202     201     205     208     202     201     205
     214     210     209     211     215     210     209     211
     216     210     209     211     214     210     209     212
     215     210     209     212     216     210     209     212
     214     210     209     213     215     210     209     213
     216     210     209     213     222     218     217     219
     223     218     217     219     224     218     217     219
     222     218     217     220     223     218     217     220
     224     218     217     220     222     218     217     221
     223     218     217     221     224     218     217     221
     230     226     225     227     231     226     225     227
     232     226     225     227     230     226     225     228
     231     226     225     228     232     226     225     228
     230     226     225     229     231     226     225     229
     232     226     225     229     238     234     233     235
     239     234     233     235     240     234     233     235
     238     234     233     236     239     234     233     236
     240     234     233     236     238     234     233     237
     239     234     233     237     240     234     233     237
     246     242     241     243     247     242     241     243
     248     242     241     243     246     242     241     244
     247     242     241     244     248     242     241     244
     246     242     241     245     247     242     241     245
     248     242     241     245     254     250     249     251
     255     250     249     251     256     250     249     251
     254     250     249     252     255     250     249     252
     256     250     249     252     254     250     249     253
     255     250     249     253     256     250     249     253
     262     258     257     259     263     258     257     259
     264     258     257     259     262     258     257     260
     263     258     257     260     264     258     257     260
     262     258     257     261     263     258     257     261
     264     258     257     261     270     266     265     267
     271     266     265     267     272     266     265     267
     270     266     265     268     271     266     265     268
     272     266     265     268     270     266     265     269
     271     266     265     269     272     266     265     269
     278     274     273     275     279     274     273     275
     280     274     273     275     278     274     273     276
     279     274     273     276     280     274     273     276
     278     274     273     277     279     274     273     277
     280     274     273     277     286     282     281     283
     287     282     281     283     288     282     281     283
     286     282     281     284     287     282     281     284
     288     282     281     284     286     282     281     285
     287     282     281     285     288     282     281     285
     294     290     289     291     295     290     289     291
     296     290     289     291     294     290     289     292
     295     290     289     292     296     290     289     292
     294     290     289     293     295     290     289     293
     296     290     289     293     302     298     297     299
     303     298     297     299     304     298     297     299
     302     298     297     300     303     298     297     300
     304     298     297     300     302     298     297     301
     303     298     297     301     304     298     297     301
     310     306     305     307     311     306     305     307
     312     306     305     307     310     306     305     308
     311     306     305     308     312     306     305     308
     310     306     305     309     311     306     305     309
     312     306     305     309     318     314     313     315
     319     314     313     315     320     314     313     315
     318     314     313     316     319     314     313     316
     320     314     313     316     318     314     313     317
     319     314     313     317     320     314     313     317
     326     322     321     323     327     322     321     323
     328     322     321     323     326     322     321     324
     327     322     321     324     328     322     321     324
     326     322     321     325     327     322     321     325
     328     322     321     325     334     330     329     331
     335     330     329     331     336     330     329     331
     334     330     329     332     335     330     329     332
     336     330     329     332     334     330     329     333
     335     330     329     333     336     330     329     333
     342     338     337     339     343     338     337     339
     344     338     337     339     342     338     337     340
     343     338     337     340     344     338     337     340
     342     338     337     341     343     338     337     341
     344     338     337     341     350     346     345     347
     351     346     345     347     352     346     345     347
     350     346     345     348     351     346     345     348
     352     346     345     348     350     346     345     349
     351     346     345     349     352     346     345     349
     358     354     353     355     359     354     353     355
     360     354     353     355     358     354     353     356
     359     354     353     356     360     354     353     356
     358     354     353     357     359     354     353     357
     360     354     353     357     366     362     361     363
     367     362     361     363     368     362     361     363
     366     362     361     364     367     362     361     364
     368     362     361     364     366     362     361     365
     367     362     361     365     368     362     361     365
     374     370     369     371     375     370     369     371
     376     370     369     371     374     370     369     372
     375     370     369     372     376     370     369     372
     374     370     369     373     375     370     369     373
     376     370     369     373     382     378     377     379
     383     378     377     379     384     378     377     379
     382     378     377     380     383     378     377     380
     384     378     377     380     382     378     377     381
     383     378     377     381     384     378     377     381
     390     386     385     387     391     386     385     387
     392     386     385     387     390     386     385     388
     391     386     385     388     392     386     385     388
     390     386     385     389     391     386     385     389
     392     386     385     389     398     394     393     395
     399     394     393     395     400     394     393     395
     398     394     393     396     399     394     393     396
     400     394     393     396     398     394     393     397
     399     394     393     397     400     394     393     397
     406     402     401     403     407     402     401     403
     408     402     401     403     406     402     401     404
     407     402     401     404     408     402     401     404
     406     402     401     405     407     402     401     405
     408     402     401     405     414     410     409     411
     415     410     409     411     416     410     409     411
     414     410     409     412     415     410     409     412
     416     410     409     412     414     410     409     413
     415     410     409     413     416     410     409     413
     422     418     417     419     423     418     417     419
     424     418     417     419     422     418     417     420
     423     418     417     420     424     418     417     420
     422     418     417     421     423     418     417     421
     424     418     417     421     430     426     425     427
     431     426     425     427     432     426     425     427
     430     426     425     428     431     426     425     428
     432     426     425     428     430     426     425     429
     431     426     425     429     432     426     425     429
     438     434     433     435     439     434     433     435
     440     434     433     435     438     434     433     436
     439     434     433     436     440     434     433     436
     438     434     433     437     439     434     433     437
     440     434     433     437     446     442     441     443
     447     442     441     443     448     442     441     443
     446     442     441     444     447     442     441     444
     448     442     441     444     446     442     441     445
     447     442     441     445     448     442     441     445
     454     450     449     451     455     450     449     451
     456     450     449     451     454     450     449     452
     455     450     449     452     456     450     449     452
     454     450     449     453     455     450     449     453
     456     450     449     453     462     458     457     459
     463     458     457     459     464     458     457     459
     462     458     457     460     463     458     457     460
     464     458     457     460     462     458     457     461
     463     458     457     461     464     458     457     461
     470     466     465     467     471     466     465     467
     472     466     465     467     470     466     465     468
     471     466     465     468     472     466     465     468
     470     466     465     469     471     466     465     469
     472     466     465     469     478     474     473     475
     479     474     473     475     480     474     473     475
     478     474     473     476     479     474     473     476
     480     474     473     476     478     474     473     477
     479     474     473     477     480     474     473     477
     486     482     481     483     487     482     481     483
     488     482     481     483     486     482     481     484
     487     482     481     484     488     482     481     484
     486     482     481     485     487     482     481     485
     488     482     481     485     494     490     489     491
     495     490     489     491     496     490     489     491
     494     490     489     492     495     490     489     492
     496     490     489     492     494     490     489     493
     495     490     489     493     496     490     489     493
     502     498     497     499     503     498     497     499
     504     498     497     499     502     498     497     500
     503     498     497     500     504     498     497     500
     502     498     497     501     503     498     497     501
     504     498     497     501     510     506     505     507
     511     506     505     507     512     506     505     507
     510     506     505     508     511     506     505     508
     512     506     505     508     510     506     505     509
     511     506     505     509     512     506     505     509
     518     514     513     515     519     514     513     515
     520     514     513     515     518     514     513     516
     519     514     513     516     520     514     513     516
     518     514     513     517     519     514     513     517
     520     514     513     517     526     522     521     523
     527     522     521     523     528     522     521     523
     526     522     521     524     527     522     521     524
     528     522     521     524     526     522     521     525
     527     522     521     525     528     522     521     525
     534     530     529     531     535     530     529     531
     536     530     529     531     534     530     529     532
     535     530     529     532     536     530     529     532
     534     530     529     533     535     530     529     533
     536     530     529     533     542     538     537     539
     543     538     537     539     544     538     537     539
     542     538     537     540     543     538     537     540
     544     538     537     540     542     538     537     541
     543     538     537     541     544     538     537     541
     550     546     545     547     551     546     545     547
     552     546     545     547     550     546     545     548
     551     546     545     548     552     546     545     548
     550     546     545     549     551     546     545     549
     552     546     545     549     558     554     553     555
     559     554     553     555     560     554     553     555
     558     554     553     556     559     554     553     556
     560     554     553     556     558     554     553     557
     559     554     553     557     560     554     553     557
     566     562     561     563     567     562     561     563
     568     562     561     563     566     562     561     564
     567     562     561     564     568     562     561     564
     566     562     561     565     567     562     561     565
     568     562     561     565     574     570     569     571
     575     570     569     571     576     570     569     571
     574     570     569     572     575     570     569     572
     576     570     569     572     574     570     569     573
     575     570     569     573     576     570     569     573
     582     578     577     579     583     578     577     579
     584     578     577     579     582     578     577     580
     583     578     577     580     584     578     577     580
     582     578     577     581     583     578     577     581
     584     578     577     581     590     586     585     587
     591     586     585     587     592     586     585     587
     590     586     585     588     591     586     585     588
     592     586     585     588     590     586     585     589
     591     586     585     589     592     586     585     589
     598     594     593     595     599     594     593     595
     600     594     593     595     598     594     593     596
     599     594     593     596     600     594     593     596
     598     594     593     597     599     594     593     597
     600     594     593     597     606     602     601     603
     607     602     601     603     608     602     601     603
     606     602     601     604     607     602     601     604
     608     602     601     604     606     602     601     605
     607     602     601     605     608     602     601     605
     614     610     609     611     615     610     609     611
     616     610     609     611     614     610     609     612
     615     610     609     612     616     610     609     612
     614     610     609     613     615     610     609     613
     616     610     609     613     622     618     617     619
     623     618     617     619     624     618     617     619
     622     618     617     620     623     618     617     620
     624     618     617     620     622     618     617     621
     623     618     617     621     624     618     617     621
     630     626     625     627     631     626     625     627
     632     626     625     627     630     626     625     628
     631     626     625     628     632     626     625     628
     630     626     625     629     631     626     625     629
     632     626     625     629     638     634     633     635
     639     634     633     635     640     634     633     635
     638     634     633     636     639     634     633     636
     640     634     633     636     638     634     633     637
     639     634     633     637     640     634     633     637
     646     642     641     643     647     642     641     643
     648     642     641     643     646     642     641     644
     647     642     641     644     648     642     641     644
     646     642     641     645     647     642     641     645
     648     642     641     645     654     650     649     651
     655     650     649     651     656     650     649     651
     654     650     649     652     655     650     649     652
     656     650     649     652     654     650     649     653
     655     650     649     653     656     650     649     653
     662     658     657     659     663     658     657     659
     664     658     657     659     662     658     657     660
     663     658     657     660     664     658     657     660
     662     658     657     661     663     658     657     661
     664     658     657     661     670     666     665     667
     671     666     665     667     672     666     665     667
     670     666     665     668     671     666     665     668
     672     666     665     668     670     666     665     669
     671     666     665     669     672     666     665     669
     678     674     673     675     679     674     673     675
     680     674     673     675     678     674     673     676
     679     674     673     676     680     674     673     676
     678     674     673     677     679     674     673     677
     680     674     673     677     686     682     681     683
     687     682     681     683     688     682     681     683
     686     682     681     684     687     682     681     684
     688     682     681     684     686     682     681     685
     687     682     681     685     688     682     681     685
     694     690     689     691     695     690     689     691
     696     690     689     691     694     690     689     692
     695     690     689     692     696     690     689     692
     694     690     689     693     695     690     689     693
     696     690     689     693     702     698     697     699
     703     698     697     699     704     698     697     699
     702     698     697     700     703     698     697     700
     704     698     697     700     702     698     697     701
     703     698     697     701     704     698     697     701
     710     706     705     707     711     706     705     707
     712     706     705     707     710     706     705     708
     711     706     705     708     712     706     705     708
     710     706     705     709     711     706     705     709
     712     706     705     709     718     714     713     715
     719     714     713     715     720     714     713     715
     718     714     713     716     719     714     713     716
     720     714     713     716     718     714     713     717
     719     714     713     717     720     714     713     717
     726     722     721     723     727     722     721     723
     728     722     721     723     726     722     721     724
     727     722     721     724     728     722     721     724
     726     722     721     725     727     722     721     725
     728     722     721     725     734     730     729     731
     735     730     729     731     736     730     729     731
     734     730     729     732     735     730     729     732
     736     730     729     732     734     730     729     733
     735     730     729     733     736     730     729     733
     742     738     737     739     743     738     737     739
     744     738     737     739     742     738     737     740
     743     738     737     740     744     738     737     740
     742     738     737     741     743     738     737     741
     744     738     737     741     750     746     745     747
     751     746     745     747     752     746     745     747
     750     746     745     748     751     746     745     748
     752     746     745     748     750     746     745     749
     751     746     745     749     752     746     745     749
     758     754     753     755     759     754     753     755
     760     754     753     755     758     754     753     756
     759     754     753     756     760     754     753     756
     758     754     753     757     759     754     753     757
     760     754     753     757     766     762     761     763
     767     762     761     763     768     762     761     763
     766     762     761     764     767     762     761     764
     768     762     761     764     766     762     761     765
     767     762     761     765     768     762     761     765
     774     770     769     771     775     770     769     771
     776     770     769     771     774     770     769     772
     775     770     769     772     776     770     769     772
     774     770     769     773     775     770     769     773
     776     770     769     773     782     778     777     779
     783     778     777     779     784     778     777     779
     782     778     777     780     783     778     777     780
     784     778     777     780     782     778     777     781
     783     778     777     781     784     778     777     781
     790     786     785     787     791     786     785     787
     792     786     785     787     790     786     785     788
     791     786     785     788     792     786     785     788
     790     786     785     789     791     786     785     789
     792     786     785     789     798     794     793     795
     799     794     793     795     800     794     793     795
     798     794     793     796     799     794     793     796
     800     794     793     796     798     794     793     797
     799     794     793     797     800     794     793     797
     806     802     801     803     807     802     801     803
     808     802     801     803     806     802     801     804
     807     802     801     804     808     802     801     804
     806     802     801     805     807     802     801     805
     808     802     801     805     814     810     809     811
     815     810     809     811     816     810     809     811
     814     810     809     812     815     810     809     812
     816     810     809     812     814     810     809     813
     815     810     809     813     816     810     809     813
     822     818     817     819     823     818     817     819
     824     818     817     819     822     818     817     820
     823     818     817     820     824     818     817     820
     822     818     817     821     823     818     817     821
     824     818     817     821     830     826     825     827
     831     826     825     827     832     826     825     827
     830     826     825     828     831     826     825     828
     832     826     825     828     830     826     825     829
     831     826     825     829     832     826     825     829
     838     834     833     835     839     834     833     835
     840     834     833     835     838     834     833     836
     839     834     833     836     840     834     833     836
     838     834     833     837     839     834     833     837
     840     834     833     837     846     842     841     843
     847     842     841     843     848     842     841     843
     846     842     841     844     847     842     841     844
     848     842     841     844     846     842     841     845
     847     842     841     845     848     842     841     845
     854     850     849     851     855     850     849     851
     856     850     849     851     854     850     849     852
     855     850     849     852     856     850     849     852
     854     850     849     853     855     850     849     853
     856     850     849     853     862     858     857     859
     863     858     857     859     864     858     857     859
     862     858     857     860     863     858     857     860
     864     858     857     860     862     858     857     861
     863     858     857     861     864     858     857     861
     870     866     865     867     871     866     865     867
     872     866     865     867     870     866     865     868
     871     866     865     868     872     866     865     868
     870     866     865     869     871     866     865     869
     872     866     865     869     878     874     873     875
     879     874     873     875     880     874     873     875
     878     874     873     876     879     874     873     876
     880     874     873     876     878     874     873     877
     879     874     873     877     880     874     873     877
     886     882     881     883     887     882     881     883
     888     882     881     883     886     882     881     884
     887     882     881     884     888     882     881     884
     886     882     881     885     887     882     881     885
     888     882     881     885     894     890     889     891
     895     890     889     891     896     890     889     891
     894     890     889     892     895     890     889     892
     896     890     889     892     894     890     889     893
     895     890     889     893     896     890     889     893
     902     898     897     899     903     898     897     899
     904     898     897     899     902     898     897     900
     903     898     897     900     904     898     897     900
     902     898     897     901     903     898     897     901
     904     898     897     901     910     906     905     907
     911     906     905     907     912     906     905     907
     910     906     905     908     911     906     905     908
     912     906     905     908     910     906     905     909
     911     906     905     909     912     906     905     909
     918     914     913     915     919     914     913     915
     920     914     913     915     918     914     913     916
     919     914     913     916     920     914     913     916
     918     914     913     917     919     914     913     917
     920     914     913     917     926     922     921     923
     927     922     921     923     928     922     921     923
     926     922     921     924     927     922     921     924
     928     922     921     924     926     922     921     925
     927     922     921     925     928     922     921     925
     934     930     929     931     935     930     929     931
     936     930     929     931     934     930     929     932
     935     930     929     932     936     930     929     932
     934     930     929     933     935     930     929     933
     936     930     929     933     942     938     937     939
     943     938     937     939     944     938     937     939
     942     938     937     940     943     938     937     940
     944     938     937     940     942     938     937     941
     943     938     937     941     944     938     937     941
     950     946     945     947     951     946     945     947
     952     946     945     947     950     946     945     948
     951     946     945     948     952     946     945     948
     950     946     945     949     951     946     945     949
     952     946     945     949     958     954     953     955
     959     954     953     955     960     954     953     955
     958     954     953     956     959     954     953     956
     960     954     953     956     958     954     953     957
     959     954     953     957     960     954     953     957
     966     962     961     963     967     962     961     963
     968     962     961     963     966     962     961     964
     967     962     961     964     968     962     961     964
     966     962     961     965     967     962     961     965
     968     962     961     965     974     970     969     971
     975     970     969     971     976     970     969     971
     974     970     969     972     975     970     969     972
     976     970     969     972     974     970     969     973
     975     970     969     973     976     970     969     973
     982     978     977     979     983     978     977     979
     984     978     977     979     982     978     977     980
     983     978     977     980     984     978     977     980
     982     978     977     981     983     978     977     981
     984     978     977     981     990     986     985     987
     991     986     985     987     992     986     985     987
     990     986     985     988     991     986     985     988
     992     986     985     988     990     986     985     989
     991     986     985     989     992     986     985     989
     998     994     993     995     999     994     993     995
    1000     994     993     995     998     994     993     996
     999     994     993     996    1000     994     993     996
     998     994     993     997     999     994     993     997
    1000     994     993     997    1006    1002    1001    1003
    1007    1002    1001    1003    1008    1002    1001    1003
    1006    1002    1001    1004    1007    1002    1001    1004
    1008    1002    1001    1004    1006    1002    1001    1005
    1007    1002    1001    1005    1008    1002    1001    1005
    1014    1010    1009    1011    1015    1010    1009    1011
    1016    1010    1009    1011    1014    1010    1009    1012
    1015    1010    1009    1012    1016    1010    1009    1012
    1014    1010    1009    1013    1015    1010    1009    1013
    1016    1010    1009    1013    1022    1018    1017    1019
    1023    1018    1017    1019    1024    1018    1017    1019
    1022    1018    1017    1020    1023    1018    1017    1020
    1024    1018    1017    1020    1022    1018    1017    1021
    1023    1018    1017    1021    1024    1018    1017    1021
    1030    1026    1025    1027    1031    1026    1025    1027
    1032    1026    1025    1027    1030    1026    1025    1028
    1031    1026    1025    1028    1032    1026    1025    1028
    1030    1026    1025    1029    1031    1026    1025    1029
    1032    1026    1025    1029    1038    1034    1033    1035
    1039    1034    1033    1035    1040    1034    1033    1035
    1038    1034    1033    1036    1039    1034    1033    1036
    1040    1034    1033    1036    1038    1034    1033    1037
    1039    1034    1033    1037    1040    1034    1033    1037
    1046    1042    1041    1043    1047    1042    1041    1043
    1048    1042    1041    1043    1046    1042    1041    1044
    1047    1042    1041    1044    1048    1042    1041    1044
    1046    1042    1041    1045    1047    1042    1041    1045
    1048    1042    1041    1045    1054    1050    1049    1051
    1055    1050    1049    1051    1056    1050    1049    1051
    1054    1050    1049    1052    1055    1050    1049    1052
    1056    1050    1049    1052    1054    1050    1049    1053
    1055    1050    1049    1053    1056    1050    1049    1053
    1062    1058    1057    1059    1063    1058    1057    1059
    1064    1058    1057    1059    1062    1058    1057    1060
    1063    1058    1057    1060    1064    1058    1057    1060
    1062    1058    1057    1061    1063    1058    1057    1061
    1064    1058    1057    1061    1070    1066    1065    1067
    1071    1066    1065    1067    1072    1066    1065    1067
    1070    1066    1065    1068    1071    1066    1065    1068
    1072    1066    1065    1068    1070    1066    1065    1069
    1071    1066    1065    1069    1072    1066    1065    1069
    1078    1074    1073    1075    1079    1074    1073    1075
    1080    1074    1073    1075    1078    1074    1073    1076
    1079    1074    1073    1076    1080    1074    1073    1076
    1078    1074    1073    1077    1079    1074    1073    1077
    1080    1074    1073    1077    1086    1082    1081    1083
    1087    1082    1081    1083    1088    1082    1081    1083
    1086    1082    1081    1084    1087    1082    1081    1084
    1088    1082    1081    1084    1086    1082    1081    1085
    1087    1082    1081    1085    1088    1082    1081    1085
    1094    1090    1089    1091    1095    1090    1089    1091
    1096    1090    1089    1091    1094    1090    1089    1092
    1095    1090    1089    1092    1096    1090    1089    1092
    1094    1090    1089    1093    1095    1090    1089    1093
    1096    1090    1089    1093    1102    1098    1097    1099
    1103    1098    1097    1099    1104    1098    1097    1099
    1102    1098    1097    1100    1103    1098    1097    1100
    1104    1098    1097    1100    1102    1098    1097    1101
    1103    1098    1097    1101    1104    1098    1097    1101
    1110    1106    1105    1107    1111    1106    1105    1107
    1112    1106    1105    1107    1110    1106    1105    1108
    1111    1106    1105    1108    1112    1106    1105    1108
    1110    1106    1105    1109    1111    1106    1105    1109
    1112    1106    1105    1109    1118    1114    1113    1115
    1119    1114    1113    1115    1120    1114    1113    1115
    1118    1114    1113    1116    1119    1114    1113    1116
    1120    1114    1113    1116    1118    1114    1113    1117
    1119    1114    1113    1117    1120    1114    1113    1117
    1126    1122    1121    1123    1127    1122    1121    1123
    1128    1122    1121    1123    1126    1122    1121    1124
    1127    1122    1121    1124    1128    1122    1121    1124
    1126    1122    1121    1125    1127    1122    1121    1125
    1128    1122    1121    1125    1134    1130    1129    1131
    1135    1130    1129    1131    1136    1130    1129    1131
    1134    1130    1129    1132    1135    1130    1129    1132
    1136    1130    1129    1132    1134    1130    1129    1133
    1135    1130    1129    1133    1136    1130    1129    1133
    1142    1138    1137    1139    1143    1138    1137    1139
    1144    1138    1137    1139    1142    1138    1137    1140
    1143    1138    1137    1140    1144    1138    1137    1140
    1142    1138    1137    1141    1143    1138    1137    1141
    1144    1138    1137    1141    1150    1146    1145    1147
    1151    1146    1145    1147    1152    1146    1145    1147
    1150    1146    1145    1148    1151    1146    1145    1148
    1152    1146    1145    1148    1150    1146    1145    1149
    1151    1146    1145    1149    1152    1146    1145    1149
    1158    1154    1153    1155    1159    1154    1153    1155
    1160    1154    1153    1155    1158    1154    1153    1156
    1159    1154    1153    1156    1160    1154    1153    1156
    1158    1154    1153    1157    1159    1154    1153    1157
    1160    1154    1153    1157    1166    1162    1161    1163
    1167    1162    1161    1163    1168    1162    1161    1163
    1166    1162    1161    1164    1167    1162    1161    1164
    1168    1162    1161    1164    1166    1162    1161    1165
    1167    1162    1161    1165    1168    1162    1161    1165
    1174    1170    1169    1171    1175    1170    1169    1171
    1176    1170    1169    1171    1174    1170    1169    1172
    1175    1170    1169    1172    1176    1170    1169    1172
    1174    1170    1169    1173    1175    1170    1169    1173
    1176    1170    1169    1173    1182    1178    1177    1179
    1183    1178    1177    1179    1184    1178    1177    1179
    1182    1178    1177    1180    1183    1178    1177    1180
    1184    1178    1177    1180    1182    1178    1177    1181
    1183    1178    1177    1181    1184    1178    1177    1181
    1190    1186    1185    1187    1191    1186    1185    1187
    1192    1186    1185    1187    1190    1186    1185    1188
    1191    1186    1185    1188    1192    1186    1185    1188
    1190    1186    1185    1189    1191    1186    1185    1189
    1192    1186    1185    1189    1198    1194    1193    1195
    1199    1194    1193    1195    1200    1194    1193    1195
    1198    1194    1193    1196    1199    1194    1193    1196
    1200    1194    1193    1196    1198    1194    1193    1197
    1199    1194    1193    1197    1200    1194    1193    1197
    1206    1202    1201    1203    1207    1202    1201    1203
    1208    1202    1201    1203    1206    1202    1201    1204
    1207    1202    1201    1204    1208    1202    1201    1204
    1206    1202    1201    1205    1207    1202    1201    1205
    1208    1202    1201    1205    1214    1210    1209    1211
    1215    1210    1209    1211    1216    1210    1209    1211
    1214    1210    1209    1212    1215    1210    1209    1212
    1216    1210    1209    1212    1214    1210    1209    1213
    1215    1210    1209    1213    1216    1210    1209    1213
    1222    1218    1217    1219    1223    1218    1217    1219
    1224    1218    1217    1219    1222    1218    1217    1220
    1223    1218    1217    1220    1224    1218    1217    1220
    1222    1218    1217    1221    1223    1218    1217    1221
    1224    1218    1217    1221    1230    1226    1225    1227
    1231    1226    1225    1227    1232    1226    1225    1227
    1230    1226    1225    1228    1231    1226    1225    1228
    1232    1226    1225    1228    1230    1226    1225    1229
    1231    1226    1225    1229    1232    1226    1225    1229
    1238    1234    1233    1235    1239    1234    1233    1235
    1240    1234    1233    1235    1238    1234    1233    1236
    1239    1234    1233    1236    1240    1234    1233    1236
    1238    1234    1233    1237    1239    1234    1233    1237
    1240    1234    1233    1237    1246    1242    1241    1243
    1247    1242    1241    1243    1248    1242    1241    1243
    1246    1242    1241    1244    1247    1242    1241    1244
    1248    1242    1241    1244    1246    1242    1241    1245
    1247    1242    1241    1245    1248    1242    1241    1245
    1254    1250    1249    1251    1255    1250    1249    1251
    1256    1250    1249    1251    1254    1250    1249    1252
    1255    1250    1249    1252    1256    1250    1249    1252
    1254    1250    1249    1253    1255    1250    1249    1253
    1256    1250    1249    1253    1262    1258    1257    1259
    1263    1258    1257    1259    1264    1258    1257    1259
    1262    1258    1257    1260    1263    1258    1257    1260
    1264    1258    1257    1260    1262    1258    1257    1261
    1263    1258    1257    1261    1264    1258    1257    1261
    1270    1266    1265    1267    1271    1266    1265    1267
    1272    1266    1265    1267    1270    1266    1265    1268
    1271    1266    1265    1268    1272    1266    1265    1268
    1270    1266    1265    1269    1271    1266    1265    1269
    1272    1266    1265    1269    1278    1274    1273    1275
    1279    1274    1273    1275    1280    1274    1273    1275
    1278    1274    1273    1276    1279    1274    1273    1276
    1280    1274    1273    1276    1278    1274    1273    1277
    1279    1274    1273    1277    1280    1274    1273    1277
    1286    1282    1281    1283    1287    1282    1281    1283
    1288    1282    1281    1283    1286    1282    1281    1284
    1287    1282    1281    1284    1288    1282    1281    1284
    1286    1282    1281    1285    1287    1282    1281    1285
    1288    1282    1281    1285    1294    1290    1289    1291
    1295    1290    1289    1291    1296    1290    1289    1291
    1294    1290    1289    1292    1295    1290    1289    1292
    1296    1290    1289    1292    1294    1290    1289    1293
    1295    1290    1289    1293    1296    1290    1289    1293
    1302    1298    1297    1299    1303    1298    1297    1299
    1304    1298    1297    1299    1302    1298    1297    1300
    1303    1298    1297    1300    1304    1298    1297    1300
    1302    1298    1297    1301    1303    1298    1297    1301
    1304    1298    1297    1301    1310    1306    1305    1307
    1311    1306    1305    1307    1312    1306    1305    1307
    1310    1306    1305    1308    1311    1306    1305    1308
    1312    1306    1305    1308    1310    1306    1305    1309
    1311    1306    1305    1309    1312    1306    1305    1309
    1318    1314    1313    1315    1319    1314    1313    1315
    1320    1314    1313    1315    1318    1314    1313    1316
    1319    1314    1313    1316    1320    1314    1313    1316
    1318    1314    1313    1317    1319    1314    1313    1317
    1320    1314    1313    1317    1326    1322    1321    1323
    1327    1322    1321    1323    1328    1322    1321    1323
    1326    1322    1321    1324    1327    1322    1321    1324
    1328    1322    1321    1324    1326    1322    1321    1325
    1327    1322    1321    1325    1328    1322    1321    1325
    1334    1330    1329    1331    1335    1330    1329    1331
    1336    1330    1329    1331    1334    1330    1329    1332
    1335    1330    1329    1332    1336    1330    1329    1332
    1334    1330    1329    1333    1335    1330    1329    1333
    1336    1330    1329    1333    1342    1338    1337    1339
    1343    1338    1337    1339    1344    1338    1337    1339
    1342    1338    1337    1340    1343    1338    1337    1340
    1344    1338    1337    1340    1342    1338    1337    1341
    1343    1338    1337    1341    1344    1338    1337    1341
    1350    1346    1345    1347    1351    1346    1345    1347
    1352    1346    1345    1347    1350    1346    1345    1348
    1351    1346    1345    1348    1352    1346    1345    1348
    1350    1346    1345    1349    1351    1346    1345    1349
    1352    1346    1345    1349    1358    1354    1353    1355
    1359    1354    1353    1355    1360    1354    1353    1355
    1358    1354    1353    1356    1359    1354    1353    1356
    1360    1354    1353    1356    1358    1354    1353    1357
    1359    1354    1353    1357    1360    1354    1353    1357
    1366    1362    1361    1363    1367    1362    1361    1363
    1368    1362    1361    1363    1366    1362    1361    1364
    1367    1362    1361    1364    1368    1362    1361    1364
    1366    1362    1361    1365    1367    1362    1361    1365
    1368    1362    1361    1365    1374    1370    1369    1371
    1375    1370    1369    1371    1376    1370    1369    1371
    1374    1370    1369    1372    1375    1370    1369    1372
    1376    1370    1369    1372    1374    1370    1369    1373
    1375    1370    1369    1373    1376    1370    1369    1373
    1382    1378    1377    1379    1383    1378    1377    1379
    1384    1378    1377    1379    1382    1378    1377    1380
    1383    1378    1377    1380    1384    1378    1377    1380
    1382    1378    1377    1381    1383    1378    1377    1381
    1384    1378    1377    1381    1390    1386    1385    1387
    1391    1386    1385    1387    1392    1386    1385    1387
    1390    1386    1385    1388    1391    1386    1385    1388
    1392    1386    1385    1388    1390    1386    1385    1389
    1391    1386    1385    1389    1392    1386    1385    1389
    1398    1394    1393    1395    1399    1394    1393    1395
    1400    1394    1393    1395    1398    1394    1393    1396
    1399    1394    1393    1396    1400    1394    1393    1396
    1398    1394    1393    1397    1399    1394    1393    1397
    1400    1394    1393    1397    1406    1402    1401    1403
    1407    1402    1401    1403    1408    1402    1401    1403
    1406    1402    1401    1404    1407    1402    1401    1404
    1408    1402    1401    1404    1406    1402    1401    1405
    1407    1402    1401    1405    1408    1402    1401    1405
    1414    1410    1409    1411    1415    1410    1409    1411
    1416    1410    1409    1411    1414    1410    1409    1412
    1415    1410    1409    1412    1416    1410    1409    1412
    1414    1410    1409    1413    1415    1410    1409    1413
    1416    1410    1409    1413    1422    1418    1417    1419
    1423    1418    1417    1419    1424    1418    1417    1419
    1422    1418    1417    1420    1423    1418    1417    1420
    1424    1418    1417    1420    1422    1418    1417    1421
    1423    1418    1417    1421    1424    1418    1417    1421
    1430    1426    1425    1427    1431    1426    1425    1427
    1432    1426    1425    1427    1430    1426    1425    1428
    1431    1426    1425    1428    1432    1426    1425    1428
    1430    1426    1425    1429    1431    1426    1425    1429
    1432    1426    1425    1429    1438    1434    1433    1435
    1439    1434    1433    1435    1440    1434    1433    1435
    1438    1434    1433    1436    1439    1434    1433    1436
    1440    1434    1433    1436    1438    1434    1433    1437
    1439    1434    1433    1437    1440    1434    1433    1437
    1446    1442    1441    1443    1447    1442    1441    1443
    1448    1442    1441    1443    1446    1442    1441    1444
    1447    1442    1441    1444    1448    1442    1441    1444
    1446    1442    1441    1445    1447    1442    1441    1445
    1448    1442    1441    1445    1454    1450    1449    1451
    1455    1450    1449    1451    1456    1450    1449    1451
    1454    1450    1449    1452    1455    1450    1449    1452
    1456    1450    1449    1452    1454    1450    1449    1453
    1455    1450    1449    1453    1456    1450    1449    1453
    1462    1458    1457    1459    1463    1458    1457    1459
    1464    1458    1457    1459    1462    1458    1457    1460
    1463    1458    1457    1460    1464    1458    1457    1460
    1462    1458    1457    1461    1463    1458    1457    1461
    1464    1458    1457    1461    1470    1466    1465    1467
    1471    1466    1465    1467    1472    1466    1465    1467
    1470    1466    1465    1468    1471    1466    1465    1468
    1472    1466    1465    1468    1470    1466    1465    1469
    1471    1466    1465    1469    1472    1466    1465    1469
    1478    1474    1473    1475    1479    1474    1473    1475
    1480    1474    1473    1475    1478    1474    1473    1476
    1479    1474    1473    1476    1480    1474    1473    1476
    1478    1474    1473    1477    1479    1474    1473    1477
    1480    1474    1473    1477    1486    1482    1481    1483
    1487    1482    1481    1483    1488    1482    1481    1483
    1486    1482    1481    1484    1487    1482    1481    1484
    1488    1482    1481    1484    1486    1482    1481    1485
    1487    1482    1481    1485    1488    1482    1481    1485
    1494    1490    1489    1491    1495    1490    1489    1491
    1496    1490    1489    1491    1494    1490    1489    1492
    1495    1490    1489    1492    1496    1490    1489    1492
    1494    1490    1489    1493    1495    1490    1489    1493
    1496    1490    1489    1493    1502    1498    1497    1499
    1503    1498    1497    1499    1504    1498    1497    1499
    1502    1498    1497    1500    1503    1498    1497    1500
    1504    1498    1497    1500    1502    1498    1497    1501
    1503    1498    1497    1501    1504    1498    1497    1501
    1510    1506    1505    1507    1511    1506    1505    1507
    1512    1506    1505    1507    1510    1506    1505    1508
    1511    1506    1505    1508    1512    1506    1505    1508
    1510    1506    1505    1509    1511    1506    1505    1509
    1512    1506    1505    1509    1518    1514    1513    1515
    1519    1514    1513    1515    1520    1514    1513    1515
    1518    1514    1513    1516    1519    1514    1513    1516
    1520    1514    1513    1516    1518    1514    1513    1517
    1519    1514    1513    1517    1520    1514    1513    1517
    1526    1522    1521    1523    1527    1522    1521    1523
    1528    1522    1521    1523    1526    1522    1521    1524
    1527    1522    1521    1524    1528    1522    1521    1524
    1526    1522    1521    1525    1527    1522    1521    1525
    1528    1522    1521    1525    1534    1530    1529    1531
    1535    1530    1529    1531    1536    1530    1529    1531
    1534    1530    1529    1532    1535    1530    1529    1532
    1536    1530    1529    1532    1534    1530    1529    1533
    1535    1530    1529    1533    1536    1530    1529    1533
    1542    1538    1537    1539    1543    1538    1537    1539
    1544    1538    1537    1539    1542    1538    1537    1540
    1543    1538    1537    1540    1544    1538    1537    1540
    1542    1538    1537    1541    1543    1538    1537    1541
    1544    1538    1537    1541    1550    1546    1545    1547
    1551    1546    1545    1547    1552    1546    1545    1547
    1550    1546    1545    1548    1551    1546    1545    1548
    1552    1546    1545    1548    1550    1546    1545    1549
    1551    1546    1545    1549    1552    1546    1545    1549
    1558    1554    1553    1555    1559    1554    1553    1555
    1560    1554    1553    1555    1558    1554    1553    1556
    1559    1554    1553    1556    1560    1554    1553    1556
    1558    1554    1553    1557    1559    1554    1553    1557
    1560    1554    1553    1557    1566    1562    1561    1563
    1567    1562    1561    1563    1568    1562    1561    1563
    1566    1562    1561    1564    1567    1562    1561    1564
    1568    1562    1561    1564    1566    1562    1561    1565
    1567    1562    1561    1565    1568    1562    1561    1565
    1574    1570    1569    1571    1575    1570    1569    1571
    1576    1570    1569    1571    1574    1570    1569    1572
    1575    1570    1569    1572    1576    1570    1569    1572
    1574    1570    1569    1573    1575    1570    1569    1573
    1576    1570    1569    1573    1582    1578    1577    1579
    1583    1578    1577    1579    1584    1578    1577    1579
    1582    1578    1577    1580    1583    1578    1577    1580
    1584    1578    1577    1580    1582    1578    1577    1581
    1583    1578    1577    1581    1584    1578    1577    1581
    1590    1586    1585    1587    1591    1586    1585    1587
    1592    1586    1585    1587    1590    1586    1585    1588
    1591    1586    1585    1588    1592    1586    1585    1588
    1590    1586    1585    1589    1591    1586    1585    1589
    1592    1586    1585    1589    1598    1594    1593    1595
    1599    1594    1593    1595    1600    1594    1593    1595
    1598    1594    1593    1596    1599    1594    1593    1596
    1600    1594    1593    1596    1598    1594    1593    1597
    1599    1594    1593    1597    1600    1594    1593    1597
    1606    1602    1601    1603    1607    1602    1601    1603
    1608    1602    1601    1603    1606    1602    1601    1604
    1607    1602    1601    1604    1608    1602    1601    1604
    1606    1602    1601    1605    1607    1602    1601    1605
    1608    1602    1601    1605    1614    1610    1609    1611
    1615    1610    1609    1611    1616    1610    1609    1611
    1614    1610    1609    1612    1615    1610    1609    1612
    1616    1610    1609    1612    1614    1610    1609    1613
    1615    1610    1609    1613    1616    1610    1609    1613
    1622    1618    1617    1619    1623    1618    1617    1619
    1624    1618    1617    1619    1622    1618    1617    1620
    1623    1618    1617    1620    1624    1618    1617    1620
    1622    1618    1617    1621    1623    1618    1617    1621
    1624    1618    1617    1621    1630    1626    1625    1627
    1631    1626    1625    1627    1632    1626    1625    1627
    1630    1626    1625    1628    1631    1626    1625    1628
    1632    1626    1625    1628    1630    1626    1625    1629
    1631    1626    1625    1629    1632    1626    1625    1629
    1638    1634    1633    1635    1639    1634    1633    1635
    1640    1634    1633    1635    1638    1634    1633    1636
    1639    1634    1633    1636    1640    1634    1633    1636
    1638    1634    1633    1637    1639    1634    1633    1637
    1640    1634    1633    1637    1646    1642    1641    1643
    1647    1642    1641    1643    1648    1642    1641    1643
    1646    1642    1641    1644    1647    1642    1641    1644
    1648    1642    1641    1644    1646    1642    1641    1645
    1647    1642    1641    1645    1648    1642    1641    1645
    1654    1650    1649    1651    1655    1650    1649    1651
    1656    1650    1649    1651    1654    1650    1649    1652
    1655    1650    1649    1652    1656    1650    1649    1652
    1654    1650    1649    1653    1655    1650    1649    1653
    1656    1650    1649    1653    1662    1658    1657    1659
    1663    1658    1657    1659    1664    1658    1657    1659
    1662    1658    1657    1660    1663    1658    1657    1660
    1664    1658    1657    1660    1662    1658    1657    1661
    1663    1658    1657    1661    1664    1658    1657    1661
    1670    1666    1665    1667    1671    1666    1665    1667
    1672    1666    1665    1667    1670    1666    1665    1668
    1671    1666    1665    1668    1672    1666    1665    1668
    1670    1666    1665    1669    1671    1666    1665    1669
    1672    1666    1665    1669    1678    1674    1673    1675
    1679    1674    1673    1675    1680    1674    1673    1675
    1678    1674    1673    1676    1679    1674    1673    1676
    1680    1674    1673    1676    1678    1674    1673    1677
    1679    1674    1673    1677    1680    1674    1673    1677
    1686    1682    1681    1683    1687    1682    1681    1683
    1688    1682    1681    1683    1686    1682    1681    1684
    1687    1682    1681    1684    1688    1682    1681    1684
    1686    1682    1681    1685    1687    1682    1681    1685
    1688    1682    1681    1685    1694    1690    1689    1691
    1695    1690    1689    1691    1696    1690    1689    1691
    1694    1690    1689    1692    1695    1690    1689    1692
    1696    1690    1689    1692    1694    1690    1689    1693
    1695    1690    1689    1693    1696    1690    1689    1693
    1702    1698    1697    1699    1703    1698    1697    1699
    1704    1698    1697    1699    1702    1698    1697    1700
    1703    1698    1697    1700    1704    1698    1697    1700
    1702    1698    1697    1701    1703    1698    1697    1701
    1704    1698    1697    1701    1710    1706    1705    1707
    1711    1706    1705    1707    1712    1706    1705    1707
    1710    1706    1705    1708    1711    1706    1705    1708
    1712    1706    1705    1708    1710    1706    1705    1709
    1711    1706    1705    1709    1712    1706    1705    1709
    1718    1714    1713    1715    1719    1714    1713    1715
    1720    1714    1713    1715    1718    1714    1713    1716
    1719    1714    1713    1716    1720    1714    1713    1716
    1718    1714    1713    1717    1719    1714    1713    1717
    1720    1714    1713    1717    1726    1722    1721    1723
    1727    1722    1721    1723    1728    1722    1721    1723
    1726    1722    1721    1724    1727    1722    1721    1724
    1728    1722    1721    1724    1726    1722    1721    1725
    1727    1722    1721    1725    1728    1722    1721    1725
    1734    1730    1729    1731    1735    1730    1729    1731
    1736    1730    1729    1731    1734    1730    1729    1732
    1735    1730    1729    1732    1736    1730    1729    1732
    1734    1730    1729    1733    1735    1730    1729    1733
    1736    1730    1729    1733    1742    1738    1737    1739
    1743    1738    1737    1739    1744    1738    1737    1739
    1742    1738    1737    1740    1743    1738    1737    1740
    1744    1738    1737    1740    1742    1738    1737    1741
    1743    1738    1737    1741    1744    1738    1737    1741
    1750    1746    1745    1747    1751    1746    1745    1747
    1752    1746    1745    1747    1750    1746    1745    1748
    1751    1746    1745    1748    1752    1746    1745    1748
    1750    1746    1745    1749    1751    1746    1745    1749
    1752    1746    1745    1749    1758    1754    1753    1755
    1759    1754    1753    1755    1760    1754    1753    1755
    1758    1754    1753    1756    1759    1754    1753    1756
    1760    1754    1753    1756    1758    1754    1753    1757
    1759    1754    1753    1757    1760    1754    1753    1757
    1766    1762    1761    1763    1767    1762    1761    1763
    1768    1762    1761    1763    1766    1762    1761    1764
    1767    1762    1761    1764    1768    1762    1761    1764
    1766    1762    1761    1765    1767    1762    1761    1765
    1768    1762    1761    1765    1774    1770    1769    1771
    1775    1770    1769    1771    1776    1770    1769    1771
    1774    1770    1769    1772    1775    1770    1769    1772
    1776    1770    1769    1772    1774    1770    1769    1773
    1775    1770    1769    1773    1776    1770    1769    1773
    1782    1778    1777    1779    1783    1778    1777    1779
    1784    1778    1777    1779    1782    1778    1777    1780
    1783    1778    1777    1780    1784    1778    1777    1780
    1782    1778    1777    1781    1783    1778    1777    1781
    1784    1778    1777    1781    1790    1786    1785    1787
    1791    1786    1785    1787    1792    1786    1785    1787
    1790    1786    1785    1788    1791    1786    1785    1788
    1792    1786    1785    1788    1790    1786    1785    1789
    1791    1786    1785    1789    1792    1786    1785    1789
    1798    1794    1793    1795    1799    1794    1793    1795
    1800    1794    1793    1795    1798    1794    1793    1796
    1799    1794    1793    1796    1800    1794    1793    1796
    1798    1794    1793    1797    1799    1794    1793    1797
    1800    1794    1793    1797    1806    1802    1801    1803
    1807    1802    1801    1803    1808    1802    1801    1803
    1806    1802    1801    1804    1807    1802    1801    1804
    1808    1802    1801    1804    1806    1802    1801    1805
    1807    1802    1801    1805    1808    1802    1801    1805
    1814    1810    1809    1811    1815    1810    1809    1811
    1816    1810    1809    1811    1814    1810    1809    1812
    1815    1810    1809    1812    1816    1810    1809    1812
    1814    1810    1809    1813    1815    1810    1809    1813
    1816    1810    1809    1813    1822    1818    1817    1819
    1823    1818    1817    1819    1824    1818    1817    1819
    1822    1818    1817    1820    1823    1818    1817    1820
    1824    1818    1817    1820    1822    1818    1817    1821
    1823    1818    1817    1821    1824    1818    1817    1821
    1830    1826    1825    1827    1831    1826    1825    1827
    1832    1826    1825    1827    1830    1826    1825    1828
    1831    1826    1825    1828    1832    1826    1825    1828
    1830    1826    1825    1829    1831    1826    1825    1829
    1832    1826    1825    1829    1838    1834    1833    1835
    1839    1834    1833    1835    1840    1834    1833    1835
    1838    1834    1833    1836    1839    1834    1833    1836
    1840    1834    1833    1836    1838    1834    1833    1837
    1839    1834    1833    1837    1840    1834    1833    1837
    1846    1842    1841    1843    1847    1842    1841    1843
    1848    1842    1841    1843    1846    1842    1841    1844
    1847    1842    1841    1844    1848    1842    1841    1844
    1846    1842    1841    1845    1847    1842    1841    1845
    1848    1842    1841    1845    1854    1850    1849    1851
    1855    1850    1849    1851    1856    1850    1849    1851
    1854    1850    1849    1852    1855    1850    1849    1852
    1856    1850    1849    1852    1854    1850    1849    1853
    1855    1850    1849    1853    1856    1850    1849    1853
    1862    1858    1857    1859    1863    1858    1857    1859
    1864    1858    1857    1859    1862    1858    1857    1860
    1863    1858    1857    1860    1864    1858    1857    1860
    1862    1858    1857    1861    1863    1858    1857    1861
    1864    1858    1857    1861    1870    1866    1865    1867
    1871    1866    1865    1867    1872    1866    1865    1867
    1870    1866    1865    1868    1871    1866    1865    1868
    1872    1866    1865    1868    1870    1866    1865    1869
    1871    1866    1865    1869    1872    1866    1865    1869
    1878    1874    1873    1875    1879    1874    1873    1875
    1880    1874    1873    1875    1878    1874    1873    1876
    1879    1874    1873    1876    1880    1874    1873    1876
    1878    1874    1873    1877    1879    1874    1873    1877
    1880    1874    1873    1877    1886    1882    1881    1883
    1887    1882    1881    1883    1888    1882    1881    1883
    1886    1882    1881    1884    1887    1882    1881    1884
    1888    1882    1881    1884    1886    1882    1881    1885
    1887    1882    1881    1885    1888    1882    1881    1885
    1894    1890    1889    1891    1895    1890    1889    1891
    1896    1890    1889    1891    1894    1890    1889    1892
    1895    1890    1889    1892    1896    1890    1889    1892
    1894    1890    1889    1893    1895    1890    1889    1893
    1896    1890    1889    1893    1902    1898    1897    1899
    1903    1898    1897    1899    1904    1898    1897    1899
    1902    1898    1897    1900    1903    1898    1897    1900
    1904    1898    1897    1900    1902    1898    1897    1901
    1903    1898    1897    1901    1904    1898    1897    1901
    1910    1906    1905    1907    1911    1906    1905    1907
    1912    1906    1905    1907    1910    1906    1905    1908
    1911    1906    1905    1908    1912    1906    1905    1908
    1910    1906    1905    1909    1911    1906    1905    1909
    1912    1906    1905    1909    1918    1914    1913    1915
    1919    1914    1913    1915    1920    1914    1913    1915
    1918    1914    1913    1916    1919    1914    1913    1916
    1920    1914    1913    1916    1918    1914    1913    1917
    1919    1914    1913    1917    1920    1914    1913    1917
    1926    1922    1921    1923    1927    1922    1921    1923
    1928    1922    1921    1923    1926    1922    1921    1924
    1927    1922    1921    1924    1928    1922    1921    1924
    1926    1922    1921    1925    1927    1922    1921    1925
    1928    1922    1921    1925    1934    1930    1929    1931
    1935    1930    1929    1931    1936    1930    1929    1931
    1934    1930    1929    1932    1935    1930    1929    1932
    1936    1930    1929    1932    1934    1930    1929    1933
    1935    1930    1929    1933    1936    1930    1929    1933
    1942    1938    1937    1939    1943    1938    1937    1939
    1944    1938    1937    1939    1942    1938    1937    1940
    1943    1938    1937    1940    1944    1938    1937    1940
    1942    1938    1937    1941    1943    1938    1937    1941
    1944    1938    1937    1941    1950    1946    1945    1947
    1951    1946    1945    1947    1952    1946    1945    1947
    1950    1946    1945    1948    1951    1946    1945    1948
    1952    1946    1945    1948    1950    1946    1945    1949
    1951    1946    1945    1949    1952    1946    1945    1949
    1958    1954    1953    1955    1959    1954    1953    1955
    1960    1954    1953    1955    1958    1954    1953    1956
    1959    1954    1953    1956    1960    1954    1953    1956
    1958    1954    1953    1957    1959    1954    1953    1957
    1960    1954    1953    1957    1966    1962    1961    1963
    1967    1962    1961    1963    1968    1962    1961    1963
    1966    1962    1961    1964    1967    1962    1961    1964
    1968    1962    1961    1964    1966    1962    1961    1965
    1967    1962    1961    1965    1968    1962    1961    1965
    1974    1970    1969    1971    1975    1970    1969    1971
    1976    1970    1969    1971    1974    1970    1969    1972
    1975    1970    1969    1972    1976    1970    1969    1972
    1974    1970    1969    1973    1975    1970    1969    1973
    1976    1970    1969    1973    1982    1978    1977    1979
    1983    1978    1977    1979    1984    1978    1977    1979
    1982    1978    1977    1980    1983    1978    1977    1980
    1984    1978    1977    1980    1982    1978    1977    1981
    1983    1978    1977    1981    1984    1978    1977    1981
    1990    1986    1985    1987    1991    1986    1985    1987
    1992    1986    1985    1987    1990    1986    1985    1988
    1991    1986    1985    1988    1992    1986    1985    1988
    1990    1986    1985    1989    1991    1986    1985    1989
    1992    1986    1985    1989    1998    1994    1993    1995
    1999    1994    1993    1995    2000    1994    1993    1995
    1998    1994    1993    1996    1999    1994    1993    1996
    2000    1994    1993    1996    1998    1994    1993    1997
    1999    1994    1993    1997    2000    1994    1993    1997
    2006    2002    2001    2003    2007    2002    2001    2003
    2008    2002    2001    2003    2006    2002    2001    2004
    2007    2002    2001    2004    2008    2002    2001    2004
    2006    2002    2001    2005    2007    2002    2001    2005
    2008    2002    2001    2005    2014    2010    2009    2011
    2015    2010    2009    2011    2016    2010    2009    2011
    2014    2010    2009    2012    2015    2010    2009    2012
    2016    2010    2009    2012    2014    2010    2009    2013
    2015    2010    2009    2013    2016    2010    2009    2013
    2022    2018    2017    2019    2023    2018    2017    2019
    2024    2018    2017    2019    2022    2018    2017    2020
    2023    2018    2017    2020    2024    2018    2017    2020
    2022    2018    2017    2021    2023    2018    2017    2021
    2024    2018    2017    2021    2030    2026    2025    2027
    2031    2026    2025    2027    2032    2026    2025    2027
    2030    2026    2025    2028    2031    2026    2025    2028
    2032    2026    2025    2028    2030    2026    2025    2029
    2031    2026    2025    2029    2032    2026    2025    2029
    2038    2034    2033    2035    2039    2034    2033    2035
    2040    2034    2033    2035    2038    2034    2033    2036
    2039    2034    2033    2036    2040    2034    2033    2036
    2038    2034    2033    2037    2039    2034    2033    2037
    2040    2034    2033    2037    2046    2042    2041    2043
    2047    2042    2041    2043    2048    2042    2041    2043
    2046    2042    2041    2044    2047    2042    2041    2044
    2048    2042    2041    2044    2046    2042    2041    2045
    2047    2042    2041    2045    2048    2042    2041    2045
    2054    2050    2049    2051    2055    2050    2049    2051
    2056    2050    2049    2051    2054    2050    2049    2052
    2055    2050    2049    2052    2056    2050    2049    2052
    2054    2050    2049    2053    2055    2050    2049    2053
    2056    2050    2049    2053    2062    2058    2057    2059
    2063    2058    2057    2059    2064    2058    2057    2059
    2062    2058    2057    2060    2063    2058    2057    2060
    2064    2058    2057    2060    2062    2058    2057    2061
    2063    2058    2057    2061    2064    2058    2057    2061
    2070    2066    2065    2067    2071    2066    2065    2067
    2072    2066    2065    2067    2070    2066    2065    2068
    2071    2066    2065    2068    2072    2066    2065    2068
    2070    2066    2065    2069    2071    2066    2065    2069
    2072    2066    2065    2069    2078    2074    2073    2075
    2079    2074    2073    2075    2080    2074    2073    2075
    2078    2074    2073    2076    2079    2074    2073    2076
    2080    2074    2073    2076    2078    2074    2073    2077
    2079    2074    2073    2077    2080    2074    2073    2077
    2086    2082    2081    2083    2087    2082    2081    2083
    2088    2082    2081    2083    2086    2082    2081    2084
    2087    2082    2081    2084    2088    2082    2081    2084
    2086    2082    2081    2085    2087    2082    2081    2085
    2088    2082    2081    2085    2094    2090    2089    2091
    2095    2090    2089    2091    2096    2090    2089    2091
    2094    2090    2089    2092    2095    2090    2089    2092
    2096    2090    2089    2092    2094    2090    2089    2093
    2095    2090    2089    2093    2096    2090    2089    2093
    2102    2098    2097    2099    2103    2098    2097    2099
    2104    2098    2097    2099    2102    2098    2097    2100
    2103    2098    2097    2100    2104    2098    2097    2100
    2102    2098    2097    2101    2103    2098    2097    2101
    2104    2098    2097    2101    2110    2106    2105    2107
    2111    2106    2105    2107    2112    2106    2105    2107
    2110    2106    2105    2108    2111    2106    2105    2108
    2112    2106    2105    2108    2110    2106    2105    2109
    2111    2106    2105    2109    2112    2106    2105    2109
    2118    2114    2113    2115    2119    2114    2113    2115
    2120    2114    2113    2115    2118    2114    2113    2116
    2119    2114    2113    2116    2120    2114    2113    2116
    2118    2114    2113    2117    2119    2114    2113    2117
    2120    2114    2113    2117    2126    2122    2121    2123
    2127    2122    2121    2123    2128    2122    2121    2123
    2126    2122    2121    2124    2127    2122    2121    2124
    2128    2122    2121    2124    2126    2122    2121    2125
    2127    2122    2121    2125    2128    2122    2121    2125
    2134    2130    2129    2131    2135    2130    2129    2131
    2136    2130    2129    2131    2134    2130    2129    2132
    2135    2130    2129    2132    2136    2130    2129    2132
    2134    2130    2129    2133    2135    2130    2129    2133
    2136    2130    2129    2133    2142    2138    2137    2139
    2143    2138    2137    2139    2144    2138    2137    2139
    2142    2138    2137    2140    2143    2138    2137    2140
    2144    2138    2137    2140    2142    2138    2137    2141
    2143    2138    2137    2141    2144    2138    2137    2141
    2150    2146    2145    2147    2151    2146    2145    2147
    2152    2146    2145    2147    2150    2146    2145    2148
    2151    2146    2145    2148    2152    2146    2145    2148
    2150    2146    2145    2149    2151    2146    2145    2149
    2152    2146    2145    2149    2158    2154    2153    2155
    2159    2154    2153    2155    2160    2154    2153    2155
    2158    2154    2153    2156    2159    2154    2153    2156
    2160    2154    2153    2156    2158    2154    2153    2157
    2159    2154    2153    2157    2160    2154    2153    2157
    2166    2162    2161    2163    2167    2162    2161    2163
    2168    2162    2161    2163    2166    2162    2161    2164
    2167    2162    2161    2164    2168    2162    2161    2164
    2166    2162    2161    2165    2167    2162    2161    2165
    2168    2162    2161    2165    2174    2170    2169    2171
    2175    2170    2169    2171    2176    2170    2169    2171
    2174    2170    2169    2172    2175    2170    2169    2172
    2176    2170    2169    2172    2174    2170    2169    2173
    2175    2170    2169    2173    2176    2170    2169    2173
    2182    2178    2177    2179    2183    2178    2177    2179
    2184    2178    2177    2179    2182    2178    2177    2180
    2183    2178    2177    2180    2184    2178    2177    2180
    2182    2178    2177    2181    2183    2178    2177    2181
    2184    2178    2177    2181    2190    2186    2185    2187
    2191    2186    2185    2187    2192    2186    2185    2187
    2190    2186    2185    2188    2191    2186    2185    2188
    2192    2186    2185    2188    2190    2186    2185    2189
    2191    2186    2185    2189    2192    2186    2185    2189
    2198    2194    2193    2195    2199    2194    2193    2195
    2200    2194    2193    2195    2198    2194    2193    2196
    2199    2194    2193    2196    2200    2194    2193    2196
    2198    2194    2193    2197    2199    2194    2193    2197
    2200    2194    2193    2197    2206    2202    2201    2203
    2207    2202    2201    2203    2208    2202    2201    2203
    2206    2202    2201    2204    2207    2202    2201    2204
    2208    2202    2201    2204    2206    2202    2201    2205
    2207    2202    2201    2205    2208    2202    2201    2205
    2214    2210    2209    2211    2215    2210    2209    2211
    2216    2210    2209    2211    2214    2210    2209    2212
    2215    2210    2209    2212    2216    2210    2209    2212
    2214    2210    2209    2213    2215    2210    2209    2213
    2216    2210    2209    2213    2222    2218    2217    2219
    2223    2218    2217    2219    2224    2218    2217    2219
    2222    2218    2217    2220    2223    2218    2217    2220
    2224    2218    2217    2220    2222    2218    2217    2221
    2223    2218    2217    2221    2224    2218    2217    2221
    2230    2226    2225    2227    2231    2226    2225    2227
    2232    2226    2225    2227    2230    2226    2225    2228
    2231    2226    2225    2228    2232    2226    2225    2228
    2230    2226    2225    2229    2231    2226    2225    2229
    2232    2226    2225    2229    2238    2234    2233    2235
    2239    2234    2233    2235    2240    2234    2233    2235
    2238    2234    2233    2236    2239    2234    2233    2236
    2240    2234    2233    2236    2238    2234    2233    2237
    2239    2234    2233    2237    2240    2234    2233    2237
    2246    2242    2241    2243    2247    2242    2241    2243
    2248    2242    2241    2243    2246    2242    2241    2244
    2247    2242    2241    2244    2248    2242    2241    2244
    2246    2242    2241    2245    2247    2242    2241    2245
    2248    2242    2241    2245    2254    2250    2249    2251
    2255    2250    2249    2251    2256    2250    2249    2251
    2254    2250    2249    2252    2255    2250    2249    2252
    2256    2250    2249    2252    2254    2250    2249    2253
    2255    2250    2249    2253    2256    2250    2249    2253
    2262    2258    2257    2259    2263    2258    2257    2259
    2264    2258    2257    2259    2262    2258    2257    2260
    2263    2258    2257    2260    2264    2258    2257    2260
    2262    2258    2257    2261    2263    2258    2257    2261
    2264    2258    2257    2261    2270    2266    2265    2267
    2271    2266    2265    2267    2272    2266    2265    2267
    2270    2266    2265    2268    2271    2266    2265    2268
    2272    2266    2265    2268    2270    2266    2265    2269
    2271    2266    2265    2269    2272    2266    2265    2269
    2278    2274    2273    2275    2279    2274    2273    2275
    2280    2274    2273    2275    2278    2274    2273    2276
    2279    2274    2273    2276    2280    2274    2273    2276
    2278    2274    2273    2277    2279    2274    2273    2277
    2280    2274    2273    2277    2286    2282    2281    2283
    2287    2282    2281    2283    2288    2282    2281    2283
    2286    2282    2281    2284    2287    2282    2281    2284
    2288    2282    2281    2284    2286    2282    2281    2285
    2287    2282    2281    2285    2288    2282    2281    2285
    2294    2290    2289    2291    2295    2290    2289    2291
    2296    2290    2289    2291    2294    2290    2289    2292
    2295    2290    2289    2292    2296    2290    2289    2292
    2294    2290    2289    2293    2295    2290    2289    2293
    2296    2290    2289    2293    2302    2298    2297    2299
    2303    2298    2297    2299    2304    2298    2297    2299
    2302    2298    2297    2300    2303    2298    2297    2300
    2304    2298    2297    2300    2302    2298    2297    2301
    2303    2298    2297    2301    2304    2298    2297    2301
    2310    2306    2305    2307    2311    2306    2305    2307
    2312    2306    2305    2307    2310    2306    2305    2308
    2311    2306    2305    2308    2312    2306    2305    2308
    2310    2306    2305    2309    2311    2306    2305    2309
    2312    2306    2305    2309    2318    2314    2313    2315
    2319    2314    2313    2315    2320    2314    2313    2315
    2318    2314    2313    2316    2319    2314    2313    2316
    2320    2314    2313    2316    2318    2314    2313    2317
    2319    2314    2313    2317    2320    2314    2313    2317
    2326    2322    2321    2323    2327    2322    2321    2323
    2328    2322    2321    2323    2326    2322    2321    2324
    2327    2322    2321    2324    2328    2322    2321    2324
    2326    2322    2321    2325    2327    2322    2321    2325
    2328    2322    2321    2325    2334    2330    2329    2331
    2335    2330    2329    2331    2336    2330    2329    2331
    2334    2330    2329    2332    2335    2330    2329    2332
    2336    2330    2329    2332    2334    2330    2329    2333
    2335    2330    2329    2333    2336    2330    2329    2333
    2342    2338    2337    2339    2343    2338    2337    2339
    2344    2338    2337    2339    2342    2338    2337    2340
    2343    2338    2337    2340    2344    2338    2337    2340
    2342    2338    2337    2341    2343    2338    2337    2341
    2344    2338    2337    2341    2350    2346    2345    2347
    2351    2346    2345    2347    2352    2346    2345    2347
    2350    2346    2345    2348    2351    2346    2345    2348
    2352    2346    2345    2348    2350    2346    2345    2349
    2351    2346    2345    2349    2352    2346    2345    2349
    2358    2354    2353    2355    2359    2354    2353    2355
    2360    2354    2353    2355    2358    2354    2353    2356
    2359    2354    2353    2356    2360    2354    2353    2356
    2358    2354    2353    2357    2359    2354    2353    2357
    2360    2354    2353    2357    2366    2362    2361    2363
    2367    2362    2361    2363    2368    2362    2361    2363
    2366    2362    2361    2364    2367    2362    2361    2364
    2368    2362    2361    2364    2366    2362    2361    2365
    2367    2362    2361    2365    2368    2362    2361    2365
    2374    2370    2369    2371    2375    2370    2369    2371
    2376    2370    2369    2371    2374    2370    2369    2372
    2375    2370    2369    2372    2376    2370    2369    2372
    2374    2370    2369    2373    2375    2370    2369    2373
    2376    2370    2369    2373    2382    2378    2377    2379
    2383    2378    2377    2379    2384    2378    2377    2379
    2382    2378    2377    2380    2383    2378    2377    2380
    2384    2378    2377    2380    2382    2378    2377    2381
    2383    2378    2377    2381    2384    2378    2377    2381
    2390    2386    2385    2387    2391    2386    2385    2387
    2392    2386    2385    2387    2390    2386    2385    2388
    2391    2386    2385    2388    2392    2386    2385    2388
    2390    2386    2385    2389    2391    2386    2385    2389
    2392    2386    2385    2389    2398    2394    2393    2395
    2399    2394    2393    2395    2400    2394    2393    2395
    2398    2394    2393    2396    2399    2394    2393    2396
    2400    2394    2393    2396    2398    2394    2393    2397
    2399    2394    2393    2397    2400    2394    2393    2397
    2406    2402    2401    2403    2407    2402    2401    2403
    2408    2402    2401    2403    2406    2402    2401    2404
    2407    2402    2401    2404    2408    2402    2401    2404
    2406    2402    2401    2405    2407    2402    2401    2405
    2408    2402    2401    2405    2414    2410    2409    2411
    2415    2410    2409    2411    2416    2410    2409    2411
    2414    2410    2409    2412    2415    2410    2409    2412
    2416    2410    2409    2412    2414    2410    2409    2413
    2415    2410    2409    2413    2416    2410    2409    2413
    2422    2418    2417    2419    2423    2418    2417    2419
    2424    2418    2417    2419    2422    2418    2417    2420
    2423    2418    2417    2420    2424    2418    2417    2420
    2422    2418    2417    2421    2423    2418    2417    2421
    2424    2418    2417    2421    2430    2426    2425    2427
    2431    2426    2425    2427    2432    2426    2425    2427
    2430    2426    2425    2428    2431    2426    2425    2428
    2432    2426    2425    2428    2430    2426    2425    2429
    2431    2426    2425    2429    2432    2426    2425    2429
    2438    2434    2433    2435    2439    2434    2433    2435
    2440    2434    2433    2435    2438    2434    2433    2436
    2439    2434    2433    2436    2440    2434    2433    2436
    2438    2434    2433    2437    2439    2434    2433    2437
    2440    2434    2433    2437    2446    2442    2441    2443
    2447    2442    2441    2443    2448    2442    2441    2443
    2446    2442    2441    2444    2447    2442    2441    2444
    2448    2442    2441    2444    2446    2442    2441    2445
    2447    2442    2441    2445    2448    2442    2441    2445
    2454    2450    2449    2451    2455    2450    2449    2451
    2456    2450    2449    2451    2454    2450    2449    2452
    2455    2450    2449    2452    2456    2450    2449    2452
    2454    2450    2449    2453    2455    2450    2449    2453
    2456    2450    2449    2453    2462    2458    2457    2459
    2463    2458    2457    2459    2464    2458    2457    2459
    2462    2458    2457    2460    2463    2458    2457    2460
    2464    2458    2457    2460    2462    2458    2457    2461
    2463    2458    2457    2461    2464    2458    2457    2461
    2470    2466    2465    2467    2471    2466    2465    2467
    2472    2466    2465    2467    2470    2466    2465    2468
    2471    2466    2465    2468    2472    2466    2465    2468
    2470    2466    2465    2469    2471    2466    2465    2469
    2472    2466    2465    2469    2478    2474    2473    2475
    2479    2474    2473    2475    2480    2474    2473    2475
    2478    2474    2473    2476    2479    2474    2473    2476
    2480    2474    2473    2476    2478    2474    2473    2477
    2479    2474    2473    2477    2480    2474    2473    2477
    2486    2482    2481    2483    2487    2482    2481    2483
    2488    2482    2481    2483    2486    2482    2481    2484
    2487    2482    2481    2484    2488    2482    2481    2484
    2486    2482    2481    2485    2487    2482    2481    2485
    2488    2482    2481    2485    2494    2490    2489    2491
    2495    2490    2489    2491    2496    2490    2489    2491
    2494    2490    2489    2492    2495    2490    2489    2492
    2496    2490    2489    2492    2494    2490    2489    2493
    2495    2490    2489    2493    2496    2490    2489    2493
    2502    2498    2497    2499    2503    2498    2497    2499
    2504    2498    2497    2499    2502    2498    2497    2500
    2503    2498    2497    2500    2504    2498    2497    2500
    2502    2498    2497    2501    2503    2498    2497    2501
    2504    2498    2497    2501    2510    2506    2505    2507
    2511    2506    2505    2507    2512    2506    2505    2507
    2510    2506    2505    2508    2511    2506    2505    2508
    2512    2506    2505    2508    2510    2506    2505    2509
    2511    2506    2505    2509    2512    2506    2505    2509
    2518    2514    2513    2515    2519    2514    2513    2515
    2520    2514    2513    2515    2518    2514    2513    2516
    2519    2514    2513    2516    2520    2514    2513    2516
    2518    2514    2513    2517    2519    2514    2513    2517
    2520    2514    2513    2517    2526    2522    2521    2523
    2527    2522    2521    2523    2528    2522    2521    2523
    2526    2522    2521    2524    2527    2522    2521    2524
    2528    2522    2521    2524    2526    2522    2521    2525
    2527    2522    2521    2525    2528    2522    2521    2525
    2534    2530    2529    2531    2535    2530    2529    2531
    2536    2530    2529    2531    2534    2530    2529    2532
    2535    2530    2529    2532    2536    2530    2529    2532
    2534    2530    2529    2533    2535    2530    2529    2533
    2536    2530    2529    2533    2542    2538    2537    2539
    2543    2538    2537    2539    2544    2538    2537    2539
    2542    2538    2537    2540    2543    2538    2537    2540
    2544    2538    2537    2540    2542    2538    2537    2541
    2543    2538    2537    2541    2544    2538    2537    2541
    2550    2546    2545    2547    2551    2546    2545    2547
    2552    2546    2545    2547    2550    2546    2545    2548
    2551    2546    2545    2548    2552    2546    2545    2548
    2550    2546    2545    2549    2551    2546    2545    2549
    2552    2546    2545    2549    2558    2554    2553    2555
    2559    2554    2553    2555    2560    2554    2553    2555
    2558    2554    2553    2556    2559    2554    2553    2556
    2560    2554    2553    2556    2558    2554    2553    2557
    2559    2554    2553    2557    2560    2554    2553    2557
    2566    2562    2561    2563    2567    2562    2561    2563
    2568    2562    2561    2563    2566    2562    2561    2564
    2567    2562    2561    2564    2568    2562    2561    2564
    2566    2562    2561    2565    2567    2562    2561    2565
    2568    2562    2561    2565    2574    2570    2569    2571
    2575    2570    2569    2571    2576    2570    2569    2571
    2574    2570    2569    2572    2575    2570    2569    2572
    2576    2570    2569    2572    2574    2570    2569    2573
    2575    2570    2569    2573    2576    2570    2569    2573
    2582    2578    2577    2579    2583    2578    2577    2579
    2584    2578    2577    2579    2582    2578    2577    2580
    2583    2578    2577    2580    2584    2578    2577    2580
    2582    2578    2577    2581    2583    2578    2577    2581
    2584    2578    2577    2581    2590    2586    2585    2587
    2591    2586    2585    2587    2592    2586    2585    2587
    2590    2586    2585    2588    2591    2586    2585    2588
    2592    2586    2585    2588    2590    2586    2585    2589
    2591    2586    2585    2589    2592    2586    2585    2589
    2598    2594    2593    2595    2599    2594    2593    2595
    2600    2594    2593    2595    2598    2594    2593    2596
    2599    2594    2593    2596    2600    2594    2593    2596
    2598    2594    2593    2597    2599    2594    2593    2597
    2600    2594    2593    2597    2606    2602    2601    2603
    2607    2602    2601    2603    2608    2602    2601    2603
    2606    2602    2601    2604    2607    2602    2601    2604
    2608    2602    2601    2604    2606    2602    2601    2605
    2607    2602    2601    2605    2608    2602    2601    2605
    2614    2610    2609    2611    2615    2610    2609    2611
    2616    2610    2609    2611    2614    2610    2609    2612
    2615    2610    2609    2612    2616    2610    2609    2612
    2614    2610    2609    2613    2615    2610    2609    2613
    2616    2610    2609    2613    2622    2618    2617    2619
    2623    2618    2617    2619    2624    2618    2617    2619
    2622    2618    2617    2620    2623    2618    2617    2620
    2624    2618    2617    2620    2622    2618    2617    2621
    2623    2618    2617    2621    2624    2618    2617    2621
    2630    2626    2625    2627    2631    2626    2625    2627
    2632    2626    2625    2627    2630    2626    2625    2628
    2631    2626    2625    2628    2632    2626    2625    2628
    2630    2626    2625    2629    2631    2626    2625    2629
    2632    2626    2625    2629    2638    2634    2633    2635
    2639    2634    2633    2635    2640    2634    2633    2635
    2638    2634    2633    2636    2639    2634    2633    2636
    2640    2634    2633    2636    2638    2634    2633    2637
    2639    2634    2633    2637    2640    2634    2633    2637
    2646    2642    2641    2643    2647    2642    2641    2643
    2648    2642    2641    2643    2646    2642    2641    2644
    2647    2642    2641    2644    2648    2642    2641    2644
    2646    2642    2641    2645    2647    2642    2641    2645
    2648    2642    2641    2645    2654    2650    2649    2651
    2655    2650    2649    2651    2656    2650    2649    2651
    2654    2650    2649    2652    2655    2650    2649    2652
    2656    2650    2649    2652    2654    2650    2649    2653
    2655    2650    2649    2653    2656    2650    2649    2653
    2662    2658    2657    2659    2663    2658    2657    2659
    2664    2658    2657    2659    2662    2658    2657    2660
    2663    2658    2657    2660    2664    2658    2657    2660
    2662    2658    2657    2661    2663    2658    2657    2661
    2664    2658    2657    2661    2670    2666    2665    2667
    2671    2666    2665    2667    2672    2666    2665    2667
    2670    2666    2665    2668    2671    2666    2665    2668
    2672    2666    2665    2668    2670    2666    2665    2669
    2671    2666    2665    2669    2672    2666    2665    2669
    2678    2674    2673    2675    2679    2674    2673    2675
    2680    2674    2673    2675    2678    2674    2673    2676
    2679    2674    2673    2676    2680    2674    2673    2676
    2678    2674    2673    2677    2679    2674    2673    2677
    2680    2674    2673    2677    2686    2682    2681    2683
    2687    2682    2681    2683    2688    2682    2681    2683
    2686    2682    2681    2684    2687    2682    2681    2684
    2688    2682    2681    2684    2686    2682    2681    2685
    2687    2682    2681    2685    2688    2682    2681    2685
    2694    2690    2689    2691    2695    2690    2689    2691
    2696    2690    2689    2691    2694    2690    2689    2692
    2695    2690    2689    2692    2696    2690    2689    2692
    2694    2690    2689    2693    2695    2690    2689    2693
    2696    2690    2689    2693    2702    2698    2697    2699
    2703    2698    2697    2699    2704    2698    2697    2699
    2702    2698    2697    2700    2703    2698    2697    2700
    2704    2698    2697    2700    2702    2698    2697    2701
    2703    2698    2697    2701    2704    2698    2697    2701
    2710    2706    2705    2707    2711    2706    2705    2707
    2712    2706    2705    2707    2710    2706    2705    2708
    2711    2706    2705    2708    2712    2706    2705    2708
    2710    2706    2705    2709    2711    2706    2705    2709
    2712    2706    2705    2709    2718    2714    2713    2715
    2719    2714    2713    2715    2720    2714    2713    2715
    2718    2714    2713    2716    2719    2714    2713    2716
    2720    2714    2713    2716    2718    2714    2713    2717
    2719    2714    2713    2717    2720    2714    2713    2717
    2726    2722    2721    2723    2727    2722    2721    2723
    2728    2722    2721    2723    2726    2722    2721    2724
    2727    2722    2721    2724    2728    2722    2721    2724
    2726    2722    2721    2725    2727    2722    2721    2725
    2728    2722    2721    2725    2734    2730    2729    2731
    2735    2730    2729    2731    2736    2730    2729    2731
    2734    2730    2729    2732    2735    2730    2729    2732
    2736    2730    2729    2732    2734    2730    2729    2733
    2735    2730    2729    2733    2736    2730    2729    2733
    2742    2738    2737    2739    2743    2738    2737    2739
    2744    2738    2737    2739    2742    2738    2737    2740
    2743    2738    2737    2740    2744    2738    2737    2740
    2742    2738    2737    2741    2743    2738    2737    2741
    2744    2738    2737    2741    2750    2746    2745    2747
    2751    2746    2745    2747    2752    2746    2745    2747
    2750    2746    2745    2748    2751    2746    2745    2748
    2752    2746    2745    2748    2750    2746    2745    2749
    2751    2746    2745    2749    2752    2746    2745    2749
    2758    2754    2753    2755    2759    2754    2753    2755
    2760    2754    2753    2755    2758    2754    2753    2756
    2759    2754    2753    2756    2760    2754    2753    2756
    2758    2754    2753    2757    2759    2754    2753    2757
    2760    2754    2753    2757    2766    2762    2761    2763
    2767    2762    2761    2763    2768    2762    2761    2763
    2766    2762    2761    2764    2767    2762    2761    2764
    2768    2762    2761    2764    2766    2762    2761    2765
    2767    2762    2761    2765    2768    2762    2761    2765
    2774    2770    2769    2771    2775    2770    2769    2771
    2776    2770    2769    2771    2774    2770    2769    2772
    2775    2770    2769    2772    2776    2770    2769    2772
    2774    2770    2769    2773    2775    2770    2769    2773
    2776    2770    2769    2773    2782    2778    2777    2779
    2783    2778    2777    2779    2784    2778    2777    2779
    2782    2778    2777    2780    2783    2778    2777    2780
    2784    2778    2777    2780    2782    2778    2777    2781
    2783    2778    2777    2781    2784    2778    2777    2781
    2790    2786    2785    2787    2791    2786    2785    2787
    2792    2786    2785    2787    2790    2786    2785    2788
    2791    2786    2785    2788    2792    2786    2785    2788
    2790    2786    2785    2789    2791    2786    2785    2789
    2792    2786    2785    2789    2798    2794    2793    2795
    2799    2794    2793    2795    2800    2794    2793    2795
    2798    2794    2793    2796    2799    2794    2793    2796
    2800    2794    2793    2796    2798    2794    2793    2797
    2799    2794    2793    2797    2800    2794    2793    2797
    2806    2802    2801    2803    2807    2802    2801    2803
    2808    2802    2801    2803    2806    2802    2801    2804
    2807    2802    2801    2804    2808    2802    2801    2804
    2806    2802    2801    2805    2807    2802    2801    2805
    2808    2802    2801    2805    2814    2810    2809    2811
    2815    2810    2809    2811    2816    2810    2809    2811
    2814    2810    2809    2812    2815    2810    2809    2812
    2816    2810    2809    2812    2814    2810    2809    2813
    2815    2810    2809    2813    2816    2810    2809    2813
    2822    2818    2817    2819    2823    2818    2817    2819
    2824    2818    2817    2819    2822    2818    2817    2820
    2823    2818    2817    2820    2824    2818    2817    2820
    2822    2818    2817    2821    2823    2818    2817    2821
    2824    2818    2817    2821    2830    2826    2825    2827
    2831    2826    2825    2827    2832    2826    2825    2827
    2830    2826    2825    2828    2831    2826    2825    2828
    2832    2826    2825    2828    2830    2826    2825    2829
    2831    2826    2825    2829    2832    2826    2825    2829
    2838    2834    2833    2835    2839    2834    2833    2835
    2840    2834    2833    2835    2838    2834    2833    2836
    2839    2834    2833    2836    2840    2834    2833    2836
    2838    2834    2833    2837    2839    2834    2833    2837
    2840    2834    2833    2837    2846    2842    2841    2843
    2847    2842    2841    2843    2848    2842    2841    2843
    2846    2842    2841    2844    2847    2842    2841    2844
    2848    2842    2841    2844    2846    2842    2841    2845
    2847    2842    2841    2845    2848    2842    2841    2845
    2854    2850    2849    2851    2855    2850    2849    2851
    2856    2850    2849    2851    2854    2850    2849    2852
    2855    2850    2849    2852    2856    2850    2849    2852
    2854    2850    2849    2853    2855    2850    2849    2853
    2856    2850    2849    2853    2862    2858    2857    2859
    2863    2858    2857    2859    2864    2858    2857    2859
    2862    2858    2857    2860    2863    2858    2857    2860
    2864    2858    2857    2860    2862    2858    2857    2861
    2863    2858    2857    2861    2864    2858    2857    2861
    2870    2866    2865    2867    2871    2866    2865    2867
    2872    2866    2865    2867    2870    2866    2865    2868
    2871    2866    2865    2868    2872    2866    2865    2868
    2870    2866    2865    2869    2871    2866    2865    2869
    2872    2866    2865    2869    2878    2874    2873    2875
    2879    2874    2873    2875    2880    2874    2873    2875
    2878    2874    2873    2876    2879    2874    2873    2876
    2880    2874    2873    2876    2878    2874    2873    2877
    2879    2874    2873    2877    2880    2874    2873    2877
    2886    2882    2881    2883    2887    2882    2881    2883
    2888    2882    2881    2883    2886    2882    2881    2884
    2887    2882    2881    2884    2888    2882    2881    2884
    2886    2882    2881    2885    2887    2882    2881    2885
    2888    2882    2881    2885    2894    2890    2889    2891
    2895    2890    2889    2891    2896    2890    2889    2891
    2894    2890    2889    2892    2895    2890    2889    2892
    2896    2890    2889    2892    2894    2890    2889    2893
    2895    2890    2889    2893    2896    2890    2889    2893
    2902    2898    2897    2899    2903    2898    2897    2899
    2904    2898    2897    2899    2902    2898    2897    2900
    2903    2898    2897    2900    2904    2898    2897    2900
    2902    2898    2897    2901    2903    2898    2897    2901
    2904    2898    2897    2901    2910    2906    2905    2907
    2911    2906    2905    2907    2912    2906    2905    2907
    2910    2906    2905    2908    2911    2906    2905    2908
    2912    2906    2905    2908    2910    2906    2905    2909
    2911    2906    2905    2909    2912    2906    2905    2909
    2918    2914    2913    2915    2919    2914    2913    2915
    2920    2914    2913    2915    2918    2914    2913    2916
    2919    2914    2913    2916    2920    2914    2913    2916
    2918    2914    2913    2917    2919    2914    2913    2917
    2920    2914    2913    2917    2926    2922    2921    2923
    2927    2922    2921    2923    2928    2922    2921    2923
    2926    2922    2921    2924    2927    2922    2921    2924
    2928    2922    2921    2924    2926    2922    2921    2925
    2927    2922    2921    2925    2928    2922    2921    2925
    2934    2930    2929    2931    2935    2930    2929    2931
    2936    2930    2929    2931    2934    2930    2929    2932
    2935    2930    2929    2932    2936    2930    2929    2932
    2934    2930    2929    2933    2935    2930    2929    2933
    2936    2930    2929    2933    2942    2938    2937    2939
    2943    2938    2937    2939    2944    2938    2937    2939
    2942    2938    2937    2940    2943    2938    2937    2940
    2944    2938    2937    2940    2942    2938    2937    2941
    2943    2938    2937    2941    2944    2938    2937    2941
    2950    2946    2945    2947    2951    2946    2945    2947
    2952    2946    2945    2947    2950    2946    2945    2948
    2951    2946    2945    2948    2952    2946    2945    2948
    2950    2946    2945    2949    2951    2946    2945    2949
    2952    2946    2945    2949    2958    2954    2953    2955
    2959    2954    2953    2955    2960    2954    2953    2955
    2958    2954    2953    2956    2959    2954    2953    2956
    2960    2954    2953    2956    2958    2954    2953    2957
    2959    2954    2953    2957    2960    2954    2953    2957
    2966    2962    2961    2963    2967    2962    2961    2963
    2968    2962    2961    2963    2966    2962    2961    2964
    2967    2962    2961    2964    2968    2962    2961    2964
    2966    2962    2961    2965    2967    2962    2961    2965
    2968    2962    2961    2965    2974    2970    2969    2971
    2975    2970    2969    2971    2976    2970    2969    2971
    2974    2970    2969    2972    2975    2970    2969    2972
    2976    2970    2969    2972    2974    2970    2969    2973
    2975    2970    2969    2973    2976    2970    2969    2973
    2982    2978    2977    2979    2983    2978    2977    2979
    2984    2978    2977    2979    2982    2978    2977    2980
    2983    2978    2977    2980    2984    2978    2977    2980
    2982    2978    2977    2981    2983    2978    2977    2981
    2984    2978    2977    2981    2990    2986    2985    2987
    2991    2986    2985    2987    2992    2986    2985    2987
    2990    2986    2985    2988    2991    2986    2985    2988
    2992    2986    2985    2988    2990    2986    2985    2989
    2991    2986    2985    2989    2992    2986    2985    2989
    2998    2994    2993    2995    2999    2994    2993    2995
    3000    2994    2993    2995    2998    2994    2993    2996
    2999    2994    2993    2996    3000    2994    2993    2996
    2998    2994    2993    2997    2999    2994    2993    2997
    3000    2994    2993    2997    3006    3002    3001    3003
    3007    3002    3001    3003    3008    3002    3001    3003
    3006    3002    3001    3004    3007    3002    3001    3004
    3008    3002    3001    3004    3006    3002    3001    3005
    3007    3002    3001    3005    3008    3002    3001    3005
    3014    3010    3009    3011    3015    3010    3009    3011
    3016    3010    3009    3011    3014    3010    3009    3012
    3015    3010    3009    3012    3016    3010    3009    3012
    3014    3010    3009    3013    3015    3010    3009    3013
    3016    3010    3009    3013    3022    3018    3017    3019
    3023    3018    3017    3019    3024    3018    3017    3019
    3022    3018    3017    3020    3023    3018    3017    3020
    3024    3018    3017    3020    3022    3018    3017    3021
    3023    3018    3017    3021    3024    3018    3017    3021
    3030    3026    3025    3027    3031    3026    3025    3027
    3032    3026    3025    3027    3030    3026    3025    3028
    3031    3026    3025    3028    3032    3026    3025    3028
    3030    3026    3025    3029    3031    3026    3025    3029
    3032    3026    3025    3029    3038    3034    3033    3035
    3039    3034    3033    3035    3040    3034    3033    3035
    3038    3034    3033    3036    3039    3034    3033    3036
    3040    3034    3033    3036    3038    3034    3033    3037
    3039    3034    3033    3037    3040    3034    3033    3037
    3046    3042    3041    3043    3047    3042    3041    3043
    3048    3042    3041    3043    3046    3042    3041    3044
    3047    3042    3041    3044    3048    3042    3041    3044
    3046    3042    3041    3045    3047    3042    3041    3045
    3048    3042    3041    3045    3054    3050    3049    3051
    3055    3050    3049    3051    3056    3050    3049    3051
    3054    3050    3049    3052    3055    3050    3049    3052
    3056    3050    3049    3052    3054    3050    3049    3053
    3055    3050    3049    3053    3056    3050    3049    3053
    3062    3058    3057    3059    3063    3058    3057    3059
    3064    3058    3057    3059    3062    3058    3057    3060
    3063    3058    3057    3060    3064    3058    3057    3060
    3062    3058    3057    3061    3063    3058    3057    3061
    3064    3058    3057    3061    3070    3066    3065    3067
    3071    3066    3065    3067    3072    3066    3065    3067
    3070    3066    3065    3068    3071    3066    3065    3068
    3072    3066    3065    3068    3070    3066    3065    3069
    3071    3066    3065    3069    3072    3066    3065    3069
    3078    3074    3073    3075    3079    3074    3073    3075
    3080    3074    3073    3075    3078    3074    3073    3076
    3079    3074    3073    3076    3080    3074    3073    3076
    3078    3074    3073    3077    3079    3074    3073    3077
    3080    3074    3073    3077    3086    3082    3081    3083
    3087    3082    3081    3083    3088    3082    3081    3083
    3086    3082    3081    3084    3087    3082    3081    3084
    3088    3082    3081    3084    3086    3082    3081    3085
    3087    3082    3081    3085    3088    3082    3081    3085
    3094    3090    3089    3091    3095    3090    3089    3091
    3096    3090    3089    3091    3094    3090    3089    3092
    3095    3090    3089    3092    3096    3090    3089    3092
    3094    3090    3089    3093    3095    3090    3089    3093
    3096    3090    3089    3093    3102    3098    3097    3099
    3103    3098    3097    3099    3104    3098    3097    3099
    3102    3098    3097    3100    3103    3098    3097    3100
    3104    3098    3097    3100    3102    3098    3097    3101
    3103    3098    3097    3101    3104    3098    3097    3101
    3110    3106    3105    3107    3111    3106    3105    3107
    3112    3106    3105    3107    3110    3106    3105    3108
    3111    3106    3105    3108    3112    3106    3105    3108
    3110    3106    3105    3109    3111    3106    3105    3109
    3112    3106    3105    3109    3118    3114    3113    3115
    3119    3114    3113    3115    3120    3114    3113    3115
    3118    3114    3113    3116    3119    3114    3113    3116
    3120    3114    3113    3116    3118    3114    3113    3117
    3119    3114    3113    3117    3120    3114    3113    3117
    3126    3122    3121    3123    3127    3122    3121    3123
    3128    3122    3121    3123    3126    3122    3121    3124
    3127    3122    3121    3124    3128    3122    3121    3124
    3126    3122    3121    3125    3127    3122    3121    3125
    3128    3122    3121    3125    3134    3130    3129    3131
    3135    3130    3129    3131    3136    3130    3129    3131
    3134    3130    3129    3132    3135    3130    3129    3132
    3136    3130    3129    3132    3134    3130    3129    3133
    3135    3130    3129    3133    3136    3130    3129    3133
    3142    3138    3137    3139    3143    3138    3137    3139
    3144    3138    3137    3139    3142    3138    3137    3140
    3143    3138    3137    3140    3144    3138    3137    3140
    3142    3138    3137    3141    3143    3138    3137    3141
    3144    3138    3137    3141    3150    3146    3145    3147
    3151    3146    3145    3147    3152    3146    3145    3147
    3150    3146    3145    3148    3151    3146    3145    3148
    3152    3146    3145    3148    3150    3146    3145    3149
    3151    3146    3145    3149    3152    3146    3145    3149
    3158    3154    3153    3155    3159    3154    3153    3155
    3160    3154    3153    3155    3158    3154    3153    3156
    3159    3154    3153    3156    3160    3154    3153    3156
    3158    3154    3153    3157    3159    3154    3153    3157
    3160    3154    3153    3157    3166    3162    3161    3163
    3167    3162    3161    3163    3168    3162    3161    3163
    3166    3162    3161    3164    3167    3162    3161    3164
    3168    3162    3161    3164    3166    3162    3161    3165
    3167    3162    3161    3165    3168    3162    3161    3165
    3174    3170    3169    3171    3175    3170    3169    3171
    3176    3170    3169    3171    3174    3170    3169    3172
    3175    3170    3169    3172    3176    3170    3169    3172
    3174    3170    3169    3173    3175    3170    3169    3173
    3176    3170    3169    3173    3182    3178    3177    3179
    3183    3178    3177    3179    3184    3178    3177    3179
    3182    3178    3177    3180    3183    3178    3177    3180
    3184    3178    3177    3180    3182    3178    3177    3181
    3183    3178    3177    3181    3184    3178    3177    3181
    3190    3186    3185    3187    3191    3186    3185    3187
    3192    3186    3185    3187    3190    3186    3185    3188
    3191    3186    3185    3188    3192    3186    3185    3188
    3190    3186    3185    3189    3191    3186    3185    3189
    3192    3186    3185    3189    3198    3194    3193    3195
    3199    3194    3193    3195    3200    3194    3193    3195
    3198    3194    3193    3196    3199    3194    3193    3196
    3200    3194    3193    3196    3198    3194    3193    3197
    3199    3194    3193    3197    3200    3194    3193    3197

       0 !NIMPHI: impropers


       0 !NDON: donors

       0 !NACC: acceptors

       0 !NNB

       0 !NGRP 

