PSF 

       3 !NTITLE
 REMARKS this file ethane_GEMC_N1000_box1 - created by using MoSDeF-GOMC. 
 REMARKS parameters from the {'ETH': '/home/ia5498/opc_water/ethane.xml'} force field via MoSDef
 REMARKS created on 2026-08-06 12:12:14.655634


    1600 !NATOM
       1 A    801  ETH  C1   CG3310  -0.270000       12.0110           
       2 A    801  ETH  C2   CG3310  -0.270000       12.0110           
       3 A    801  ETH  H1   HGA30    0.090000        1.0080           
       4 A    801  ETH  H2   HGA30    0.090000        1.0080           
       5 A    801  ETH  H3   HGA30    0.090000        1.0080           
       6 A    801  ETH  H4   HGA30    0.090000        1.0080           
       7 A    801  ETH  H5   HGA30    0.090000        1.0080           
       8 A    801  ETH  H6   HGA30    0.090000        1.0080           
       9 A    802  ETH  C1   CG3310  -0.270000       12.0110           
      10 A    802  ETH  C2   CG3310  -0.270000       12.0110           
      11 A    802  ETH  H1   HGA30    0.090000        1.0080           
      12 A    802  ETH  H2   HGA30    0.090000        1.0080           
      13 A    802  ETH  H3   HGA30    0.090000        1.0080           
      14 A    802  ETH  H4   HGA30    0.090000        1.0080           
      15 A    802  ETH  H5   HGA30    0.090000        1.0080           
      16 A    802  ETH  H6   HGA30    0.090000        1.0080           
      17 A    803  ETH  C1   CG3310  -0.270000       12.0110           
      18 A    803  ETH  C2   CG3310  -0.270000       12.0110           
      19 A    803  ETH  H1   HGA30    0.090000        1.0080           
      20 A    803  ETH  H2   HGA30    0.090000        1.0080           
      21 A    803  ETH  H3   HGA30    0.090000        1.0080           
      22 A    803  ETH  H4   HGA30    0.090000        1.0080           
      23 A    803  ETH  H5   HGA30    0.090000        1.0080           
      24 A    803  ETH  H6   HGA30    0.090000        1.0080           
      25 A    804  ETH  C1   CG3310  -0.270000       12.0110           
      26 A    804  ETH  C2   CG3310  -0.270000       12.0110           
      27 A    804  ETH  H1   HGA30    0.090000        1.0080           
      28 A    804  ETH  H2   HGA30    0.090000        1.0080           
      29 A    804  ETH  H3   HGA30    0.090000        1.0080           
      30 A    804  ETH  H4   HGA30    0.090000        1.0080           
      31 A    804  ETH  H5   HGA30    0.090000        1.0080           
      32 A    804  ETH  H6   HGA30    0.090000        1.0080           
      33 A    805  ETH  C1   CG3310  -0.270000       12.0110           
      34 A    805  ETH  C2   CG3310  -0.270000       12.0110           
      35 A    805  ETH  H1   HGA30    0.090000        1.0080           
      36 A    805  ETH  H2   HGA30    0.090000        1.0080           
      37 A    805  ETH  H3   HGA30    0.090000        1.0080           
      38 A    805  ETH  H4   HGA30    0.090000        1.0080           
      39 A    805  ETH  H5   HGA30    0.090000        1.0080           
      40 A    805  ETH  H6   HGA30    0.090000        1.0080           
      41 A    806  ETH  C1   CG3310  -0.270000       12.0110           
      42 A    806  ETH  C2   CG3310  -0.270000       12.0110           
      43 A    806  ETH  H1   HGA30    0.090000        1.0080           
      44 A    806  ETH  H2   HGA30    0.090000        1.0080           
      45 A    806  ETH  H3   HGA30    0.090000        1.0080           
      46 A    806  ETH  H4   HGA30    0.090000        1.0080           
      47 A    806  ETH  H5   HGA30    0.090000        1.0080           
      48 A    806  ETH  H6   HGA30    0.090000        1.0080           
      49 A    807  ETH  C1   CG3310  -0.270000       12.0110           
      50 A    807  ETH  C2   CG3310  -0.270000       12.0110           
      51 A    807  ETH  H1   HGA30    0.090000        1.0080           
      52 A    807  ETH  H2   HGA30    0.090000        1.0080           
      53 A    807  ETH  H3   HGA30    0.090000        1.0080           
      54 A    807  ETH  H4   HGA30    0.090000        1.0080           
      55 A    807  ETH  H5   HGA30    0.090000        1.0080           
      56 A    807  ETH  H6   HGA30    0.090000        1.0080           
      57 A    808  ETH  C1   CG3310  -0.270000       12.0110           
      58 A    808  ETH  C2   CG3310  -0.270000       12.0110           
      59 A    808  ETH  H1   HGA30    0.090000        1.0080           
      60 A    808  ETH  H2   HGA30    0.090000        1.0080           
      61 A    808  ETH  H3   HGA30    0.090000        1.0080           
      62 A    808  ETH  H4   HGA30    0.090000        1.0080           
      63 A    808  ETH  H5   HGA30    0.090000        1.0080           
      64 A    808  ETH  H6   HGA30    0.090000        1.0080           
      65 A    809  ETH  C1   CG3310  -0.270000       12.0110           
      66 A    809  ETH  C2   CG3310  -0.270000       12.0110           
      67 A    809  ETH  H1   HGA30    0.090000        1.0080           
      68 A    809  ETH  H2   HGA30    0.090000        1.0080           
      69 A    809  ETH  H3   HGA30    0.090000        1.0080           
      70 A    809  ETH  H4   HGA30    0.090000        1.0080           
      71 A    809  ETH  H5   HGA30    0.090000        1.0080           
      72 A    809  ETH  H6   HGA30    0.090000        1.0080           
      73 A    810  ETH  C1   CG3310  -0.270000       12.0110           
      74 A    810  ETH  C2   CG3310  -0.270000       12.0110           
      75 A    810  ETH  H1   HGA30    0.090000        1.0080           
      76 A    810  ETH  H2   HGA30    0.090000        1.0080           
      77 A    810  ETH  H3   HGA30    0.090000        1.0080           
      78 A    810  ETH  H4   HGA30    0.090000        1.0080           
      79 A    810  ETH  H5   HGA30    0.090000        1.0080           
      80 A    810  ETH  H6   HGA30    0.090000        1.0080           
      81 A    811  ETH  C1   CG3310  -0.270000       12.0110           
      82 A    811  ETH  C2   CG3310  -0.270000       12.0110           
      83 A    811  ETH  H1   HGA30    0.090000        1.0080           
      84 A    811  ETH  H2   HGA30    0.090000        1.0080           
      85 A    811  ETH  H3   HGA30    0.090000        1.0080           
      86 A    811  ETH  H4   HGA30    0.090000        1.0080           
      87 A    811  ETH  H5   HGA30    0.090000        1.0080           
      88 A    811  ETH  H6   HGA30    0.090000        1.0080           
      89 A    812  ETH  C1   CG3310  -0.270000       12.0110           
      90 A    812  ETH  C2   CG3310  -0.270000       12.0110           
      91 A    812  ETH  H1   HGA30    0.090000        1.0080           
      92 A    812  ETH  H2   HGA30    0.090000        1.0080           
      93 A    812  ETH  H3   HGA30    0.090000        1.0080           
      94 A    812  ETH  H4   HGA30    0.090000        1.0080           
      95 A    812  ETH  H5   HGA30    0.090000        1.0080           
      96 A    812  ETH  H6   HGA30    0.090000        1.0080           
      97 A    813  ETH  C1   CG3310  -0.270000       12.0110           
      98 A    813  ETH  C2   CG3310  -0.270000       12.0110           
      99 A    813  ETH  H1   HGA30    0.090000        1.0080           
     100 A    813  ETH  H2   HGA30    0.090000        1.0080           
     101 A    813  ETH  H3   HGA30    0.090000        1.0080           
     102 A    813  ETH  H4   HGA30    0.090000        1.0080           
     103 A    813  ETH  H5   HGA30    0.090000        1.0080           
     104 A    813  ETH  H6   HGA30    0.090000        1.0080           
     105 A    814  ETH  C1   CG3310  -0.270000       12.0110           
     106 A    814  ETH  C2   CG3310  -0.270000       12.0110           
     107 A    814  ETH  H1   HGA30    0.090000        1.0080           
     108 A    814  ETH  H2   HGA30    0.090000        1.0080           
     109 A    814  ETH  H3   HGA30    0.090000        1.0080           
     110 A    814  ETH  H4   HGA30    0.090000        1.0080           
     111 A    814  ETH  H5   HGA30    0.090000        1.0080           
     112 A    814  ETH  H6   HGA30    0.090000        1.0080           
     113 A    815  ETH  C1   CG3310  -0.270000       12.0110           
     114 A    815  ETH  C2   CG3310  -0.270000       12.0110           
     115 A    815  ETH  H1   HGA30    0.090000        1.0080           
     116 A    815  ETH  H2   HGA30    0.090000        1.0080           
     117 A    815  ETH  H3   HGA30    0.090000        1.0080           
     118 A    815  ETH  H4   HGA30    0.090000        1.0080           
     119 A    815  ETH  H5   HGA30    0.090000        1.0080           
     120 A    815  ETH  H6   HGA30    0.090000        1.0080           
     121 A    816  ETH  C1   CG3310  -0.270000       12.0110           
     122 A    816  ETH  C2   CG3310  -0.270000       12.0110           
     123 A    816  ETH  H1   HGA30    0.090000        1.0080           
     124 A    816  ETH  H2   HGA30    0.090000        1.0080           
     125 A    816  ETH  H3   HGA30    0.090000        1.0080           
     126 A    816  ETH  H4   HGA30    0.090000        1.0080           
     127 A    816  ETH  H5   HGA30    0.090000        1.0080           
     128 A    816  ETH  H6   HGA30    0.090000        1.0080           
     129 A    817  ETH  C1   CG3310  -0.270000       12.0110           
     130 A    817  ETH  C2   CG3310  -0.270000       12.0110           
     131 A    817  ETH  H1   HGA30    0.090000        1.0080           
     132 A    817  ETH  H2   HGA30    0.090000        1.0080           
     133 A    817  ETH  H3   HGA30    0.090000        1.0080           
     134 A    817  ETH  H4   HGA30    0.090000        1.0080           
     135 A    817  ETH  H5   HGA30    0.090000        1.0080           
     136 A    817  ETH  H6   HGA30    0.090000        1.0080           
     137 A    818  ETH  C1   CG3310  -0.270000       12.0110           
     138 A    818  ETH  C2   CG3310  -0.270000       12.0110           
     139 A    818  ETH  H1   HGA30    0.090000        1.0080           
     140 A    818  ETH  H2   HGA30    0.090000        1.0080           
     141 A    818  ETH  H3   HGA30    0.090000        1.0080           
     142 A    818  ETH  H4   HGA30    0.090000        1.0080           
     143 A    818  ETH  H5   HGA30    0.090000        1.0080           
     144 A    818  ETH  H6   HGA30    0.090000        1.0080           
     145 A    819  ETH  C1   CG3310  -0.270000       12.0110           
     146 A    819  ETH  C2   CG3310  -0.270000       12.0110           
     147 A    819  ETH  H1   HGA30    0.090000        1.0080           
     148 A    819  ETH  H2   HGA30    0.090000        1.0080           
     149 A    819  ETH  H3   HGA30    0.090000        1.0080           
     150 A    819  ETH  H4   HGA30    0.090000        1.0080           
     151 A    819  ETH  H5   HGA30    0.090000        1.0080           
     152 A    819  ETH  H6   HGA30    0.090000        1.0080           
     153 A    820  ETH  C1   CG3310  -0.270000       12.0110           
     154 A    820  ETH  C2   CG3310  -0.270000       12.0110           
     155 A    820  ETH  H1   HGA30    0.090000        1.0080           
     156 A    820  ETH  H2   HGA30    0.090000        1.0080           
     157 A    820  ETH  H3   HGA30    0.090000        1.0080           
     158 A    820  ETH  H4   HGA30    0.090000        1.0080           
     159 A    820  ETH  H5   HGA30    0.090000        1.0080           
     160 A    820  ETH  H6   HGA30    0.090000        1.0080           
     161 A    821  ETH  C1   CG3310  -0.270000       12.0110           
     162 A    821  ETH  C2   CG3310  -0.270000       12.0110           
     163 A    821  ETH  H1   HGA30    0.090000        1.0080           
     164 A    821  ETH  H2   HGA30    0.090000        1.0080           
     165 A    821  ETH  H3   HGA30    0.090000        1.0080           
     166 A    821  ETH  H4   HGA30    0.090000        1.0080           
     167 A    821  ETH  H5   HGA30    0.090000        1.0080           
     168 A    821  ETH  H6   HGA30    0.090000        1.0080           
     169 A    822  ETH  C1   CG3310  -0.270000       12.0110           
     170 A    822  ETH  C2   CG3310  -0.270000       12.0110           
     171 A    822  ETH  H1   HGA30    0.090000        1.0080           
     172 A    822  ETH  H2   HGA30    0.090000        1.0080           
     173 A    822  ETH  H3   HGA30    0.090000        1.0080           
     174 A    822  ETH  H4   HGA30    0.090000        1.0080           
     175 A    822  ETH  H5   HGA30    0.090000        1.0080           
     176 A    822  ETH  H6   HGA30    0.090000        1.0080           
     177 A    823  ETH  C1   CG3310  -0.270000       12.0110           
     178 A    823  ETH  C2   CG3310  -0.270000       12.0110           
     179 A    823  ETH  H1   HGA30    0.090000        1.0080           
     180 A    823  ETH  H2   HGA30    0.090000        1.0080           
     181 A    823  ETH  H3   HGA30    0.090000        1.0080           
     182 A    823  ETH  H4   HGA30    0.090000        1.0080           
     183 A    823  ETH  H5   HGA30    0.090000        1.0080           
     184 A    823  ETH  H6   HGA30    0.090000        1.0080           
     185 A    824  ETH  C1   CG3310  -0.270000       12.0110           
     186 A    824  ETH  C2   CG3310  -0.270000       12.0110           
     187 A    824  ETH  H1   HGA30    0.090000        1.0080           
     188 A    824  ETH  H2   HGA30    0.090000        1.0080           
     189 A    824  ETH  H3   HGA30    0.090000        1.0080           
     190 A    824  ETH  H4   HGA30    0.090000        1.0080           
     191 A    824  ETH  H5   HGA30    0.090000        1.0080           
     192 A    824  ETH  H6   HGA30    0.090000        1.0080           
     193 A    825  ETH  C1   CG3310  -0.270000       12.0110           
     194 A    825  ETH  C2   CG3310  -0.270000       12.0110           
     195 A    825  ETH  H1   HGA30    0.090000        1.0080           
     196 A    825  ETH  H2   HGA30    0.090000        1.0080           
     197 A    825  ETH  H3   HGA30    0.090000        1.0080           
     198 A    825  ETH  H4   HGA30    0.090000        1.0080           
     199 A    825  ETH  H5   HGA30    0.090000        1.0080           
     200 A    825  ETH  H6   HGA30    0.090000        1.0080           
     201 A    826  ETH  C1   CG3310  -0.270000       12.0110           
     202 A    826  ETH  C2   CG3310  -0.270000       12.0110           
     203 A    826  ETH  H1   HGA30    0.090000        1.0080           
     204 A    826  ETH  H2   HGA30    0.090000        1.0080           
     205 A    826  ETH  H3   HGA30    0.090000        1.0080           
     206 A    826  ETH  H4   HGA30    0.090000        1.0080           
     207 A    826  ETH  H5   HGA30    0.090000        1.0080           
     208 A    826  ETH  H6   HGA30    0.090000        1.0080           
     209 A    827  ETH  C1   CG3310  -0.270000       12.0110           
     210 A    827  ETH  C2   CG3310  -0.270000       12.0110           
     211 A    827  ETH  H1   HGA30    0.090000        1.0080           
     212 A    827  ETH  H2   HGA30    0.090000        1.0080           
     213 A    827  ETH  H3   HGA30    0.090000        1.0080           
     214 A    827  ETH  H4   HGA30    0.090000        1.0080           
     215 A    827  ETH  H5   HGA30    0.090000        1.0080           
     216 A    827  ETH  H6   HGA30    0.090000        1.0080           
     217 A    828  ETH  C1   CG3310  -0.270000       12.0110           
     218 A    828  ETH  C2   CG3310  -0.270000       12.0110           
     219 A    828  ETH  H1   HGA30    0.090000        1.0080           
     220 A    828  ETH  H2   HGA30    0.090000        1.0080           
     221 A    828  ETH  H3   HGA30    0.090000        1.0080           
     222 A    828  ETH  H4   HGA30    0.090000        1.0080           
     223 A    828  ETH  H5   HGA30    0.090000        1.0080           
     224 A    828  ETH  H6   HGA30    0.090000        1.0080           
     225 A    829  ETH  C1   CG3310  -0.270000       12.0110           
     226 A    829  ETH  C2   CG3310  -0.270000       12.0110           
     227 A    829  ETH  H1   HGA30    0.090000        1.0080           
     228 A    829  ETH  H2   HGA30    0.090000        1.0080           
     229 A    829  ETH  H3   HGA30    0.090000        1.0080           
     230 A    829  ETH  H4   HGA30    0.090000        1.0080           
     231 A    829  ETH  H5   HGA30    0.090000        1.0080           
     232 A    829  ETH  H6   HGA30    0.090000        1.0080           
     233 A    830  ETH  C1   CG3310  -0.270000       12.0110           
     234 A    830  ETH  C2   CG3310  -0.270000       12.0110           
     235 A    830  ETH  H1   HGA30    0.090000        1.0080           
     236 A    830  ETH  H2   HGA30    0.090000        1.0080           
     237 A    830  ETH  H3   HGA30    0.090000        1.0080           
     238 A    830  ETH  H4   HGA30    0.090000        1.0080           
     239 A    830  ETH  H5   HGA30    0.090000        1.0080           
     240 A    830  ETH  H6   HGA30    0.090000        1.0080           
     241 A    831  ETH  C1   CG3310  -0.270000       12.0110           
     242 A    831  ETH  C2   CG3310  -0.270000       12.0110           
     243 A    831  ETH  H1   HGA30    0.090000        1.0080           
     244 A    831  ETH  H2   HGA30    0.090000        1.0080           
     245 A    831  ETH  H3   HGA30    0.090000        1.0080           
     246 A    831  ETH  H4   HGA30    0.090000        1.0080           
     247 A    831  ETH  H5   HGA30    0.090000        1.0080           
     248 A    831  ETH  H6   HGA30    0.090000        1.0080           
     249 A    832  ETH  C1   CG3310  -0.270000       12.0110           
     250 A    832  ETH  C2   CG3310  -0.270000       12.0110           
     251 A    832  ETH  H1   HGA30    0.090000        1.0080           
     252 A    832  ETH  H2   HGA30    0.090000        1.0080           
     253 A    832  ETH  H3   HGA30    0.090000        1.0080           
     254 A    832  ETH  H4   HGA30    0.090000        1.0080           
     255 A    832  ETH  H5   HGA30    0.090000        1.0080           
     256 A    832  ETH  H6   HGA30    0.090000        1.0080           
     257 A    833  ETH  C1   CG3310  -0.270000       12.0110           
     258 A    833  ETH  C2   CG3310  -0.270000       12.0110           
     259 A    833  ETH  H1   HGA30    0.090000        1.0080           
     260 A    833  ETH  H2   HGA30    0.090000        1.0080           
     261 A    833  ETH  H3   HGA30    0.090000        1.0080           
     262 A    833  ETH  H4   HGA30    0.090000        1.0080           
     263 A    833  ETH  H5   HGA30    0.090000        1.0080           
     264 A    833  ETH  H6   HGA30    0.090000        1.0080           
     265 A    834  ETH  C1   CG3310  -0.270000       12.0110           
     266 A    834  ETH  C2   CG3310  -0.270000       12.0110           
     267 A    834  ETH  H1   HGA30    0.090000        1.0080           
     268 A    834  ETH  H2   HGA30    0.090000        1.0080           
     269 A    834  ETH  H3   HGA30    0.090000        1.0080           
     270 A    834  ETH  H4   HGA30    0.090000        1.0080           
     271 A    834  ETH  H5   HGA30    0.090000        1.0080           
     272 A    834  ETH  H6   HGA30    0.090000        1.0080           
     273 A    835  ETH  C1   CG3310  -0.270000       12.0110           
     274 A    835  ETH  C2   CG3310  -0.270000       12.0110           
     275 A    835  ETH  H1   HGA30    0.090000        1.0080           
     276 A    835  ETH  H2   HGA30    0.090000        1.0080           
     277 A    835  ETH  H3   HGA30    0.090000        1.0080           
     278 A    835  ETH  H4   HGA30    0.090000        1.0080           
     279 A    835  ETH  H5   HGA30    0.090000        1.0080           
     280 A    835  ETH  H6   HGA30    0.090000        1.0080           
     281 A    836  ETH  C1   CG3310  -0.270000       12.0110           
     282 A    836  ETH  C2   CG3310  -0.270000       12.0110           
     283 A    836  ETH  H1   HGA30    0.090000        1.0080           
     284 A    836  ETH  H2   HGA30    0.090000        1.0080           
     285 A    836  ETH  H3   HGA30    0.090000        1.0080           
     286 A    836  ETH  H4   HGA30    0.090000        1.0080           
     287 A    836  ETH  H5   HGA30    0.090000        1.0080           
     288 A    836  ETH  H6   HGA30    0.090000        1.0080           
     289 A    837  ETH  C1   CG3310  -0.270000       12.0110           
     290 A    837  ETH  C2   CG3310  -0.270000       12.0110           
     291 A    837  ETH  H1   HGA30    0.090000        1.0080           
     292 A    837  ETH  H2   HGA30    0.090000        1.0080           
     293 A    837  ETH  H3   HGA30    0.090000        1.0080           
     294 A    837  ETH  H4   HGA30    0.090000        1.0080           
     295 A    837  ETH  H5   HGA30    0.090000        1.0080           
     296 A    837  ETH  H6   HGA30    0.090000        1.0080           
     297 A    838  ETH  C1   CG3310  -0.270000       12.0110           
     298 A    838  ETH  C2   CG3310  -0.270000       12.0110           
     299 A    838  ETH  H1   HGA30    0.090000        1.0080           
     300 A    838  ETH  H2   HGA30    0.090000        1.0080           
     301 A    838  ETH  H3   HGA30    0.090000        1.0080           
     302 A    838  ETH  H4   HGA30    0.090000        1.0080           
     303 A    838  ETH  H5   HGA30    0.090000        1.0080           
     304 A    838  ETH  H6   HGA30    0.090000        1.0080           
     305 A    839  ETH  C1   CG3310  -0.270000       12.0110           
     306 A    839  ETH  C2   CG3310  -0.270000       12.0110           
     307 A    839  ETH  H1   HGA30    0.090000        1.0080           
     308 A    839  ETH  H2   HGA30    0.090000        1.0080           
     309 A    839  ETH  H3   HGA30    0.090000        1.0080           
     310 A    839  ETH  H4   HGA30    0.090000        1.0080           
     311 A    839  ETH  H5   HGA30    0.090000        1.0080           
     312 A    839  ETH  H6   HGA30    0.090000        1.0080           
     313 A    840  ETH  C1   CG3310  -0.270000       12.0110           
     314 A    840  ETH  C2   CG3310  -0.270000       12.0110           
     315 A    840  ETH  H1   HGA30    0.090000        1.0080           
     316 A    840  ETH  H2   HGA30    0.090000        1.0080           
     317 A    840  ETH  H3   HGA30    0.090000        1.0080           
     318 A    840  ETH  H4   HGA30    0.090000        1.0080           
     319 A    840  ETH  H5   HGA30    0.090000        1.0080           
     320 A    840  ETH  H6   HGA30    0.090000        1.0080           
     321 A    841  ETH  C1   CG3310  -0.270000       12.0110           
     322 A    841  ETH  C2   CG3310  -0.270000       12.0110           
     323 A    841  ETH  H1   HGA30    0.090000        1.0080           
     324 A    841  ETH  H2   HGA30    0.090000        1.0080           
     325 A    841  ETH  H3   HGA30    0.090000        1.0080           
     326 A    841  ETH  H4   HGA30    0.090000        1.0080           
     327 A    841  ETH  H5   HGA30    0.090000        1.0080           
     328 A    841  ETH  H6   HGA30    0.090000        1.0080           
     329 A    842  ETH  C1   CG3310  -0.270000       12.0110           
     330 A    842  ETH  C2   CG3310  -0.270000       12.0110           
     331 A    842  ETH  H1   HGA30    0.090000        1.0080           
     332 A    842  ETH  H2   HGA30    0.090000        1.0080           
     333 A    842  ETH  H3   HGA30    0.090000        1.0080           
     334 A    842  ETH  H4   HGA30    0.090000        1.0080           
     335 A    842  ETH  H5   HGA30    0.090000        1.0080           
     336 A    842  ETH  H6   HGA30    0.090000        1.0080           
     337 A    843  ETH  C1   CG3310  -0.270000       12.0110           
     338 A    843  ETH  C2   CG3310  -0.270000       12.0110           
     339 A    843  ETH  H1   HGA30    0.090000        1.0080           
     340 A    843  ETH  H2   HGA30    0.090000        1.0080           
     341 A    843  ETH  H3   HGA30    0.090000        1.0080           
     342 A    843  ETH  H4   HGA30    0.090000        1.0080           
     343 A    843  ETH  H5   HGA30    0.090000        1.0080           
     344 A    843  ETH  H6   HGA30    0.090000        1.0080           
     345 A    844  ETH  C1   CG3310  -0.270000       12.0110           
     346 A    844  ETH  C2   CG3310  -0.270000       12.0110           
     347 A    844  ETH  H1   HGA30    0.090000        1.0080           
     348 A    844  ETH  H2   HGA30    0.090000        1.0080           
     349 A    844  ETH  H3   HGA30    0.090000        1.0080           
     350 A    844  ETH  H4   HGA30    0.090000        1.0080           
     351 A    844  ETH  H5   HGA30    0.090000        1.0080           
     352 A    844  ETH  H6   HGA30    0.090000        1.0080           
     353 A    845  ETH  C1   CG3310  -0.270000       12.0110           
     354 A    845  ETH  C2   CG3310  -0.270000       12.0110           
     355 A    845  ETH  H1   HGA30    0.090000        1.0080           
     356 A    845  ETH  H2   HGA30    0.090000        1.0080           
     357 A    845  ETH  H3   HGA30    0.090000        1.0080           
     358 A    845  ETH  H4   HGA30    0.090000        1.0080           
     359 A    845  ETH  H5   HGA30    0.090000        1.0080           
     360 A    845  ETH  H6   HGA30    0.090000        1.0080           
     361 A    846  ETH  C1   CG3310  -0.270000       12.0110           
     362 A    846  ETH  C2   CG3310  -0.270000       12.0110           
     363 A    846  ETH  H1   HGA30    0.090000        1.0080           
     364 A    846  ETH  H2   HGA30    0.090000        1.0080           
     365 A    846  ETH  H3   HGA30    0.090000        1.0080           
     366 A    846  ETH  H4   HGA30    0.090000        1.0080           
     367 A    846  ETH  H5   HGA30    0.090000        1.0080           
     368 A    846  ETH  H6   HGA30    0.090000        1.0080           
     369 A    847  ETH  C1   CG3310  -0.270000       12.0110           
     370 A    847  ETH  C2   CG3310  -0.270000       12.0110           
     371 A    847  ETH  H1   HGA30    0.090000        1.0080           
     372 A    847  ETH  H2   HGA30    0.090000        1.0080           
     373 A    847  ETH  H3   HGA30    0.090000        1.0080           
     374 A    847  ETH  H4   HGA30    0.090000        1.0080           
     375 A    847  ETH  H5   HGA30    0.090000        1.0080           
     376 A    847  ETH  H6   HGA30    0.090000        1.0080           
     377 A    848  ETH  C1   CG3310  -0.270000       12.0110           
     378 A    848  ETH  C2   CG3310  -0.270000       12.0110           
     379 A    848  ETH  H1   HGA30    0.090000        1.0080           
     380 A    848  ETH  H2   HGA30    0.090000        1.0080           
     381 A    848  ETH  H3   HGA30    0.090000        1.0080           
     382 A    848  ETH  H4   HGA30    0.090000        1.0080           
     383 A    848  ETH  H5   HGA30    0.090000        1.0080           
     384 A    848  ETH  H6   HGA30    0.090000        1.0080           
     385 A    849  ETH  C1   CG3310  -0.270000       12.0110           
     386 A    849  ETH  C2   CG3310  -0.270000       12.0110           
     387 A    849  ETH  H1   HGA30    0.090000        1.0080           
     388 A    849  ETH  H2   HGA30    0.090000        1.0080           
     389 A    849  ETH  H3   HGA30    0.090000        1.0080           
     390 A    849  ETH  H4   HGA30    0.090000        1.0080           
     391 A    849  ETH  H5   HGA30    0.090000        1.0080           
     392 A    849  ETH  H6   HGA30    0.090000        1.0080           
     393 A    850  ETH  C1   CG3310  -0.270000       12.0110           
     394 A    850  ETH  C2   CG3310  -0.270000       12.0110           
     395 A    850  ETH  H1   HGA30    0.090000        1.0080           
     396 A    850  ETH  H2   HGA30    0.090000        1.0080           
     397 A    850  ETH  H3   HGA30    0.090000        1.0080           
     398 A    850  ETH  H4   HGA30    0.090000        1.0080           
     399 A    850  ETH  H5   HGA30    0.090000        1.0080           
     400 A    850  ETH  H6   HGA30    0.090000        1.0080           
     401 A    851  ETH  C1   CG3310  -0.270000       12.0110           
     402 A    851  ETH  C2   CG3310  -0.270000       12.0110           
     403 A    851  ETH  H1   HGA30    0.090000        1.0080           
     404 A    851  ETH  H2   HGA30    0.090000        1.0080           
     405 A    851  ETH  H3   HGA30    0.090000        1.0080           
     406 A    851  ETH  H4   HGA30    0.090000        1.0080           
     407 A    851  ETH  H5   HGA30    0.090000        1.0080           
     408 A    851  ETH  H6   HGA30    0.090000        1.0080           
     409 A    852  ETH  C1   CG3310  -0.270000       12.0110           
     410 A    852  ETH  C2   CG3310  -0.270000       12.0110           
     411 A    852  ETH  H1   HGA30    0.090000        1.0080           
     412 A    852  ETH  H2   HGA30    0.090000        1.0080           
     413 A    852  ETH  H3   HGA30    0.090000        1.0080           
     414 A    852  ETH  H4   HGA30    0.090000        1.0080           
     415 A    852  ETH  H5   HGA30    0.090000        1.0080           
     416 A    852  ETH  H6   HGA30    0.090000        1.0080           
     417 A    853  ETH  C1   CG3310  -0.270000       12.0110           
     418 A    853  ETH  C2   CG3310  -0.270000       12.0110           
     419 A    853  ETH  H1   HGA30    0.090000        1.0080           
     420 A    853  ETH  H2   HGA30    0.090000        1.0080           
     421 A    853  ETH  H3   HGA30    0.090000        1.0080           
     422 A    853  ETH  H4   HGA30    0.090000        1.0080           
     423 A    853  ETH  H5   HGA30    0.090000        1.0080           
     424 A    853  ETH  H6   HGA30    0.090000        1.0080           
     425 A    854  ETH  C1   CG3310  -0.270000       12.0110           
     426 A    854  ETH  C2   CG3310  -0.270000       12.0110           
     427 A    854  ETH  H1   HGA30    0.090000        1.0080           
     428 A    854  ETH  H2   HGA30    0.090000        1.0080           
     429 A    854  ETH  H3   HGA30    0.090000        1.0080           
     430 A    854  ETH  H4   HGA30    0.090000        1.0080           
     431 A    854  ETH  H5   HGA30    0.090000        1.0080           
     432 A    854  ETH  H6   HGA30    0.090000        1.0080           
     433 A    855  ETH  C1   CG3310  -0.270000       12.0110           
     434 A    855  ETH  C2   CG3310  -0.270000       12.0110           
     435 A    855  ETH  H1   HGA30    0.090000        1.0080           
     436 A    855  ETH  H2   HGA30    0.090000        1.0080           
     437 A    855  ETH  H3   HGA30    0.090000        1.0080           
     438 A    855  ETH  H4   HGA30    0.090000        1.0080           
     439 A    855  ETH  H5   HGA30    0.090000        1.0080           
     440 A    855  ETH  H6   HGA30    0.090000        1.0080           
     441 A    856  ETH  C1   CG3310  -0.270000       12.0110           
     442 A    856  ETH  C2   CG3310  -0.270000       12.0110           
     443 A    856  ETH  H1   HGA30    0.090000        1.0080           
     444 A    856  ETH  H2   HGA30    0.090000        1.0080           
     445 A    856  ETH  H3   HGA30    0.090000        1.0080           
     446 A    856  ETH  H4   HGA30    0.090000        1.0080           
     447 A    856  ETH  H5   HGA30    0.090000        1.0080           
     448 A    856  ETH  H6   HGA30    0.090000        1.0080           
     449 A    857  ETH  C1   CG3310  -0.270000       12.0110           
     450 A    857  ETH  C2   CG3310  -0.270000       12.0110           
     451 A    857  ETH  H1   HGA30    0.090000        1.0080           
     452 A    857  ETH  H2   HGA30    0.090000        1.0080           
     453 A    857  ETH  H3   HGA30    0.090000        1.0080           
     454 A    857  ETH  H4   HGA30    0.090000        1.0080           
     455 A    857  ETH  H5   HGA30    0.090000        1.0080           
     456 A    857  ETH  H6   HGA30    0.090000        1.0080           
     457 A    858  ETH  C1   CG3310  -0.270000       12.0110           
     458 A    858  ETH  C2   CG3310  -0.270000       12.0110           
     459 A    858  ETH  H1   HGA30    0.090000        1.0080           
     460 A    858  ETH  H2   HGA30    0.090000        1.0080           
     461 A    858  ETH  H3   HGA30    0.090000        1.0080           
     462 A    858  ETH  H4   HGA30    0.090000        1.0080           
     463 A    858  ETH  H5   HGA30    0.090000        1.0080           
     464 A    858  ETH  H6   HGA30    0.090000        1.0080           
     465 A    859  ETH  C1   CG3310  -0.270000       12.0110           
     466 A    859  ETH  C2   CG3310  -0.270000       12.0110           
     467 A    859  ETH  H1   HGA30    0.090000        1.0080           
     468 A    859  ETH  H2   HGA30    0.090000        1.0080           
     469 A    859  ETH  H3   HGA30    0.090000        1.0080           
     470 A    859  ETH  H4   HGA30    0.090000        1.0080           
     471 A    859  ETH  H5   HGA30    0.090000        1.0080           
     472 A    859  ETH  H6   HGA30    0.090000        1.0080           
     473 A    860  ETH  C1   CG3310  -0.270000       12.0110           
     474 A    860  ETH  C2   CG3310  -0.270000       12.0110           
     475 A    860  ETH  H1   HGA30    0.090000        1.0080           
     476 A    860  ETH  H2   HGA30    0.090000        1.0080           
     477 A    860  ETH  H3   HGA30    0.090000        1.0080           
     478 A    860  ETH  H4   HGA30    0.090000        1.0080           
     479 A    860  ETH  H5   HGA30    0.090000        1.0080           
     480 A    860  ETH  H6   HGA30    0.090000        1.0080           
     481 A    861  ETH  C1   CG3310  -0.270000       12.0110           
     482 A    861  ETH  C2   CG3310  -0.270000       12.0110           
     483 A    861  ETH  H1   HGA30    0.090000        1.0080           
     484 A    861  ETH  H2   HGA30    0.090000        1.0080           
     485 A    861  ETH  H3   HGA30    0.090000        1.0080           
     486 A    861  ETH  H4   HGA30    0.090000        1.0080           
     487 A    861  ETH  H5   HGA30    0.090000        1.0080           
     488 A    861  ETH  H6   HGA30    0.090000        1.0080           
     489 A    862  ETH  C1   CG3310  -0.270000       12.0110           
     490 A    862  ETH  C2   CG3310  -0.270000       12.0110           
     491 A    862  ETH  H1   HGA30    0.090000        1.0080           
     492 A    862  ETH  H2   HGA30    0.090000        1.0080           
     493 A    862  ETH  H3   HGA30    0.090000        1.0080           
     494 A    862  ETH  H4   HGA30    0.090000        1.0080           
     495 A    862  ETH  H5   HGA30    0.090000        1.0080           
     496 A    862  ETH  H6   HGA30    0.090000        1.0080           
     497 A    863  ETH  C1   CG3310  -0.270000       12.0110           
     498 A    863  ETH  C2   CG3310  -0.270000       12.0110           
     499 A    863  ETH  H1   HGA30    0.090000        1.0080           
     500 A    863  ETH  H2   HGA30    0.090000        1.0080           
     501 A    863  ETH  H3   HGA30    0.090000        1.0080           
     502 A    863  ETH  H4   HGA30    0.090000        1.0080           
     503 A    863  ETH  H5   HGA30    0.090000        1.0080           
     504 A    863  ETH  H6   HGA30    0.090000        1.0080           
     505 A    864  ETH  C1   CG3310  -0.270000       12.0110           
     506 A    864  ETH  C2   CG3310  -0.270000       12.0110           
     507 A    864  ETH  H1   HGA30    0.090000        1.0080           
     508 A    864  ETH  H2   HGA30    0.090000        1.0080           
     509 A    864  ETH  H3   HGA30    0.090000        1.0080           
     510 A    864  ETH  H4   HGA30    0.090000        1.0080           
     511 A    864  ETH  H5   HGA30    0.090000        1.0080           
     512 A    864  ETH  H6   HGA30    0.090000        1.0080           
     513 A    865  ETH  C1   CG3310  -0.270000       12.0110           
     514 A    865  ETH  C2   CG3310  -0.270000       12.0110           
     515 A    865  ETH  H1   HGA30    0.090000        1.0080           
     516 A    865  ETH  H2   HGA30    0.090000        1.0080           
     517 A    865  ETH  H3   HGA30    0.090000        1.0080           
     518 A    865  ETH  H4   HGA30    0.090000        1.0080           
     519 A    865  ETH  H5   HGA30    0.090000        1.0080           
     520 A    865  ETH  H6   HGA30    0.090000        1.0080           
     521 A    866  ETH  C1   CG3310  -0.270000       12.0110           
     522 A    866  ETH  C2   CG3310  -0.270000       12.0110           
     523 A    866  ETH  H1   HGA30    0.090000        1.0080           
     524 A    866  ETH  H2   HGA30    0.090000        1.0080           
     525 A    866  ETH  H3   HGA30    0.090000        1.0080           
     526 A    866  ETH  H4   HGA30    0.090000        1.0080           
     527 A    866  ETH  H5   HGA30    0.090000        1.0080           
     528 A    866  ETH  H6   HGA30    0.090000        1.0080           
     529 A    867  ETH  C1   CG3310  -0.270000       12.0110           
     530 A    867  ETH  C2   CG3310  -0.270000       12.0110           
     531 A    867  ETH  H1   HGA30    0.090000        1.0080           
     532 A    867  ETH  H2   HGA30    0.090000        1.0080           
     533 A    867  ETH  H3   HGA30    0.090000        1.0080           
     534 A    867  ETH  H4   HGA30    0.090000        1.0080           
     535 A    867  ETH  H5   HGA30    0.090000        1.0080           
     536 A    867  ETH  H6   HGA30    0.090000        1.0080           
     537 A    868  ETH  C1   CG3310  -0.270000       12.0110           
     538 A    868  ETH  C2   CG3310  -0.270000       12.0110           
     539 A    868  ETH  H1   HGA30    0.090000        1.0080           
     540 A    868  ETH  H2   HGA30    0.090000        1.0080           
     541 A    868  ETH  H3   HGA30    0.090000        1.0080           
     542 A    868  ETH  H4   HGA30    0.090000        1.0080           
     543 A    868  ETH  H5   HGA30    0.090000        1.0080           
     544 A    868  ETH  H6   HGA30    0.090000        1.0080           
     545 A    869  ETH  C1   CG3310  -0.270000       12.0110           
     546 A    869  ETH  C2   CG3310  -0.270000       12.0110           
     547 A    869  ETH  H1   HGA30    0.090000        1.0080           
     548 A    869  ETH  H2   HGA30    0.090000        1.0080           
     549 A    869  ETH  H3   HGA30    0.090000        1.0080           
     550 A    869  ETH  H4   HGA30    0.090000        1.0080           
     551 A    869  ETH  H5   HGA30    0.090000        1.0080           
     552 A    869  ETH  H6   HGA30    0.090000        1.0080           
     553 A    870  ETH  C1   CG3310  -0.270000       12.0110           
     554 A    870  ETH  C2   CG3310  -0.270000       12.0110           
     555 A    870  ETH  H1   HGA30    0.090000        1.0080           
     556 A    870  ETH  H2   HGA30    0.090000        1.0080           
     557 A    870  ETH  H3   HGA30    0.090000        1.0080           
     558 A    870  ETH  H4   HGA30    0.090000        1.0080           
     559 A    870  ETH  H5   HGA30    0.090000        1.0080           
     560 A    870  ETH  H6   HGA30    0.090000        1.0080           
     561 A    871  ETH  C1   CG3310  -0.270000       12.0110           
     562 A    871  ETH  C2   CG3310  -0.270000       12.0110           
     563 A    871  ETH  H1   HGA30    0.090000        1.0080           
     564 A    871  ETH  H2   HGA30    0.090000        1.0080           
     565 A    871  ETH  H3   HGA30    0.090000        1.0080           
     566 A    871  ETH  H4   HGA30    0.090000        1.0080           
     567 A    871  ETH  H5   HGA30    0.090000        1.0080           
     568 A    871  ETH  H6   HGA30    0.090000        1.0080           
     569 A    872  ETH  C1   CG3310  -0.270000       12.0110           
     570 A    872  ETH  C2   CG3310  -0.270000       12.0110           
     571 A    872  ETH  H1   HGA30    0.090000        1.0080           
     572 A    872  ETH  H2   HGA30    0.090000        1.0080           
     573 A    872  ETH  H3   HGA30    0.090000        1.0080           
     574 A    872  ETH  H4   HGA30    0.090000        1.0080           
     575 A    872  ETH  H5   HGA30    0.090000        1.0080           
     576 A    872  ETH  H6   HGA30    0.090000        1.0080           
     577 A    873  ETH  C1   CG3310  -0.270000       12.0110           
     578 A    873  ETH  C2   CG3310  -0.270000       12.0110           
     579 A    873  ETH  H1   HGA30    0.090000        1.0080           
     580 A    873  ETH  H2   HGA30    0.090000        1.0080           
     581 A    873  ETH  H3   HGA30    0.090000        1.0080           
     582 A    873  ETH  H4   HGA30    0.090000        1.0080           
     583 A    873  ETH  H5   HGA30    0.090000        1.0080           
     584 A    873  ETH  H6   HGA30    0.090000        1.0080           
     585 A    874  ETH  C1   CG3310  -0.270000       12.0110           
     586 A    874  ETH  C2   CG3310  -0.270000       12.0110           
     587 A    874  ETH  H1   HGA30    0.090000        1.0080           
     588 A    874  ETH  H2   HGA30    0.090000        1.0080           
     589 A    874  ETH  H3   HGA30    0.090000        1.0080           
     590 A    874  ETH  H4   HGA30    0.090000        1.0080           
     591 A    874  ETH  H5   HGA30    0.090000        1.0080           
     592 A    874  ETH  H6   HGA30    0.090000        1.0080           
     593 A    875  ETH  C1   CG3310  -0.270000       12.0110           
     594 A    875  ETH  C2   CG3310  -0.270000       12.0110           
     595 A    875  ETH  H1   HGA30    0.090000        1.0080           
     596 A    875  ETH  H2   HGA30    0.090000        1.0080           
     597 A    875  ETH  H3   HGA30    0.090000        1.0080           
     598 A    875  ETH  H4   HGA30    0.090000        1.0080           
     599 A    875  ETH  H5   HGA30    0.090000        1.0080           
     600 A    875  ETH  H6   HGA30    0.090000        1.0080           
     601 A    876  ETH  C1   CG3310  -0.270000       12.0110           
     602 A    876  ETH  C2   CG3310  -0.270000       12.0110           
     603 A    876  ETH  H1   HGA30    0.090000        1.0080           
     604 A    876  ETH  H2   HGA30    0.090000        1.0080           
     605 A    876  ETH  H3   HGA30    0.090000        1.0080           
     606 A    876  ETH  H4   HGA30    0.090000        1.0080           
     607 A    876  ETH  H5   HGA30    0.090000        1.0080           
     608 A    876  ETH  H6   HGA30    0.090000        1.0080           
     609 A    877  ETH  C1   CG3310  -0.270000       12.0110           
     610 A    877  ETH  C2   CG3310  -0.270000       12.0110           
     611 A    877  ETH  H1   HGA30    0.090000        1.0080           
     612 A    877  ETH  H2   HGA30    0.090000        1.0080           
     613 A    877  ETH  H3   HGA30    0.090000        1.0080           
     614 A    877  ETH  H4   HGA30    0.090000        1.0080           
     615 A    877  ETH  H5   HGA30    0.090000        1.0080           
     616 A    877  ETH  H6   HGA30    0.090000        1.0080           
     617 A    878  ETH  C1   CG3310  -0.270000       12.0110           
     618 A    878  ETH  C2   CG3310  -0.270000       12.0110           
     619 A    878  ETH  H1   HGA30    0.090000        1.0080           
     620 A    878  ETH  H2   HGA30    0.090000        1.0080           
     621 A    878  ETH  H3   HGA30    0.090000        1.0080           
     622 A    878  ETH  H4   HGA30    0.090000        1.0080           
     623 A    878  ETH  H5   HGA30    0.090000        1.0080           
     624 A    878  ETH  H6   HGA30    0.090000        1.0080           
     625 A    879  ETH  C1   CG3310  -0.270000       12.0110           
     626 A    879  ETH  C2   CG3310  -0.270000       12.0110           
     627 A    879  ETH  H1   HGA30    0.090000        1.0080           
     628 A    879  ETH  H2   HGA30    0.090000        1.0080           
     629 A    879  ETH  H3   HGA30    0.090000        1.0080           
     630 A    879  ETH  H4   HGA30    0.090000        1.0080           
     631 A    879  ETH  H5   HGA30    0.090000        1.0080           
     632 A    879  ETH  H6   HGA30    0.090000        1.0080           
     633 A    880  ETH  C1   CG3310  -0.270000       12.0110           
     634 A    880  ETH  C2   CG3310  -0.270000       12.0110           
     635 A    880  ETH  H1   HGA30    0.090000        1.0080           
     636 A    880  ETH  H2   HGA30    0.090000        1.0080           
     637 A    880  ETH  H3   HGA30    0.090000        1.0080           
     638 A    880  ETH  H4   HGA30    0.090000        1.0080           
     639 A    880  ETH  H5   HGA30    0.090000        1.0080           
     640 A    880  ETH  H6   HGA30    0.090000        1.0080           
     641 A    881  ETH  C1   CG3310  -0.270000       12.0110           
     642 A    881  ETH  C2   CG3310  -0.270000       12.0110           
     643 A    881  ETH  H1   HGA30    0.090000        1.0080           
     644 A    881  ETH  H2   HGA30    0.090000        1.0080           
     645 A    881  ETH  H3   HGA30    0.090000        1.0080           
     646 A    881  ETH  H4   HGA30    0.090000        1.0080           
     647 A    881  ETH  H5   HGA30    0.090000        1.0080           
     648 A    881  ETH  H6   HGA30    0.090000        1.0080           
     649 A    882  ETH  C1   CG3310  -0.270000       12.0110           
     650 A    882  ETH  C2   CG3310  -0.270000       12.0110           
     651 A    882  ETH  H1   HGA30    0.090000        1.0080           
     652 A    882  ETH  H2   HGA30    0.090000        1.0080           
     653 A    882  ETH  H3   HGA30    0.090000        1.0080           
     654 A    882  ETH  H4   HGA30    0.090000        1.0080           
     655 A    882  ETH  H5   HGA30    0.090000        1.0080           
     656 A    882  ETH  H6   HGA30    0.090000        1.0080           
     657 A    883  ETH  C1   CG3310  -0.270000       12.0110           
     658 A    883  ETH  C2   CG3310  -0.270000       12.0110           
     659 A    883  ETH  H1   HGA30    0.090000        1.0080           
     660 A    883  ETH  H2   HGA30    0.090000        1.0080           
     661 A    883  ETH  H3   HGA30    0.090000        1.0080           
     662 A    883  ETH  H4   HGA30    0.090000        1.0080           
     663 A    883  ETH  H5   HGA30    0.090000        1.0080           
     664 A    883  ETH  H6   HGA30    0.090000        1.0080           
     665 A    884  ETH  C1   CG3310  -0.270000       12.0110           
     666 A    884  ETH  C2   CG3310  -0.270000       12.0110           
     667 A    884  ETH  H1   HGA30    0.090000        1.0080           
     668 A    884  ETH  H2   HGA30    0.090000        1.0080           
     669 A    884  ETH  H3   HGA30    0.090000        1.0080           
     670 A    884  ETH  H4   HGA30    0.090000        1.0080           
     671 A    884  ETH  H5   HGA30    0.090000        1.0080           
     672 A    884  ETH  H6   HGA30    0.090000        1.0080           
     673 A    885  ETH  C1   CG3310  -0.270000       12.0110           
     674 A    885  ETH  C2   CG3310  -0.270000       12.0110           
     675 A    885  ETH  H1   HGA30    0.090000        1.0080           
     676 A    885  ETH  H2   HGA30    0.090000        1.0080           
     677 A    885  ETH  H3   HGA30    0.090000        1.0080           
     678 A    885  ETH  H4   HGA30    0.090000        1.0080           
     679 A    885  ETH  H5   HGA30    0.090000        1.0080           
     680 A    885  ETH  H6   HGA30    0.090000        1.0080           
     681 A    886  ETH  C1   CG3310  -0.270000       12.0110           
     682 A    886  ETH  C2   CG3310  -0.270000       12.0110           
     683 A    886  ETH  H1   HGA30    0.090000        1.0080           
     684 A    886  ETH  H2   HGA30    0.090000        1.0080           
     685 A    886  ETH  H3   HGA30    0.090000        1.0080           
     686 A    886  ETH  H4   HGA30    0.090000        1.0080           
     687 A    886  ETH  H5   HGA30    0.090000        1.0080           
     688 A    886  ETH  H6   HGA30    0.090000        1.0080           
     689 A    887  ETH  C1   CG3310  -0.270000       12.0110           
     690 A    887  ETH  C2   CG3310  -0.270000       12.0110           
     691 A    887  ETH  H1   HGA30    0.090000        1.0080           
     692 A    887  ETH  H2   HGA30    0.090000        1.0080           
     693 A    887  ETH  H3   HGA30    0.090000        1.0080           
     694 A    887  ETH  H4   HGA30    0.090000        1.0080           
     695 A    887  ETH  H5   HGA30    0.090000        1.0080           
     696 A    887  ETH  H6   HGA30    0.090000        1.0080           
     697 A    888  ETH  C1   CG3310  -0.270000       12.0110           
     698 A    888  ETH  C2   CG3310  -0.270000       12.0110           
     699 A    888  ETH  H1   HGA30    0.090000        1.0080           
     700 A    888  ETH  H2   HGA30    0.090000        1.0080           
     701 A    888  ETH  H3   HGA30    0.090000        1.0080           
     702 A    888  ETH  H4   HGA30    0.090000        1.0080           
     703 A    888  ETH  H5   HGA30    0.090000        1.0080           
     704 A    888  ETH  H6   HGA30    0.090000        1.0080           
     705 A    889  ETH  C1   CG3310  -0.270000       12.0110           
     706 A    889  ETH  C2   CG3310  -0.270000       12.0110           
     707 A    889  ETH  H1   HGA30    0.090000        1.0080           
     708 A    889  ETH  H2   HGA30    0.090000        1.0080           
     709 A    889  ETH  H3   HGA30    0.090000        1.0080           
     710 A    889  ETH  H4   HGA30    0.090000        1.0080           
     711 A    889  ETH  H5   HGA30    0.090000        1.0080           
     712 A    889  ETH  H6   HGA30    0.090000        1.0080           
     713 A    890  ETH  C1   CG3310  -0.270000       12.0110           
     714 A    890  ETH  C2   CG3310  -0.270000       12.0110           
     715 A    890  ETH  H1   HGA30    0.090000        1.0080           
     716 A    890  ETH  H2   HGA30    0.090000        1.0080           
     717 A    890  ETH  H3   HGA30    0.090000        1.0080           
     718 A    890  ETH  H4   HGA30    0.090000        1.0080           
     719 A    890  ETH  H5   HGA30    0.090000        1.0080           
     720 A    890  ETH  H6   HGA30    0.090000        1.0080           
     721 A    891  ETH  C1   CG3310  -0.270000       12.0110           
     722 A    891  ETH  C2   CG3310  -0.270000       12.0110           
     723 A    891  ETH  H1   HGA30    0.090000        1.0080           
     724 A    891  ETH  H2   HGA30    0.090000        1.0080           
     725 A    891  ETH  H3   HGA30    0.090000        1.0080           
     726 A    891  ETH  H4   HGA30    0.090000        1.0080           
     727 A    891  ETH  H5   HGA30    0.090000        1.0080           
     728 A    891  ETH  H6   HGA30    0.090000        1.0080           
     729 A    892  ETH  C1   CG3310  -0.270000       12.0110           
     730 A    892  ETH  C2   CG3310  -0.270000       12.0110           
     731 A    892  ETH  H1   HGA30    0.090000        1.0080           
     732 A    892  ETH  H2   HGA30    0.090000        1.0080           
     733 A    892  ETH  H3   HGA30    0.090000        1.0080           
     734 A    892  ETH  H4   HGA30    0.090000        1.0080           
     735 A    892  ETH  H5   HGA30    0.090000        1.0080           
     736 A    892  ETH  H6   HGA30    0.090000        1.0080           
     737 A    893  ETH  C1   CG3310  -0.270000       12.0110           
     738 A    893  ETH  C2   CG3310  -0.270000       12.0110           
     739 A    893  ETH  H1   HGA30    0.090000        1.0080           
     740 A    893  ETH  H2   HGA30    0.090000        1.0080           
     741 A    893  ETH  H3   HGA30    0.090000        1.0080           
     742 A    893  ETH  H4   HGA30    0.090000        1.0080           
     743 A    893  ETH  H5   HGA30    0.090000        1.0080           
     744 A    893  ETH  H6   HGA30    0.090000        1.0080           
     745 A    894  ETH  C1   CG3310  -0.270000       12.0110           
     746 A    894  ETH  C2   CG3310  -0.270000       12.0110           
     747 A    894  ETH  H1   HGA30    0.090000        1.0080           
     748 A    894  ETH  H2   HGA30    0.090000        1.0080           
     749 A    894  ETH  H3   HGA30    0.090000        1.0080           
     750 A    894  ETH  H4   HGA30    0.090000        1.0080           
     751 A    894  ETH  H5   HGA30    0.090000        1.0080           
     752 A    894  ETH  H6   HGA30    0.090000        1.0080           
     753 A    895  ETH  C1   CG3310  -0.270000       12.0110           
     754 A    895  ETH  C2   CG3310  -0.270000       12.0110           
     755 A    895  ETH  H1   HGA30    0.090000        1.0080           
     756 A    895  ETH  H2   HGA30    0.090000        1.0080           
     757 A    895  ETH  H3   HGA30    0.090000        1.0080           
     758 A    895  ETH  H4   HGA30    0.090000        1.0080           
     759 A    895  ETH  H5   HGA30    0.090000        1.0080           
     760 A    895  ETH  H6   HGA30    0.090000        1.0080           
     761 A    896  ETH  C1   CG3310  -0.270000       12.0110           
     762 A    896  ETH  C2   CG3310  -0.270000       12.0110           
     763 A    896  ETH  H1   HGA30    0.090000        1.0080           
     764 A    896  ETH  H2   HGA30    0.090000        1.0080           
     765 A    896  ETH  H3   HGA30    0.090000        1.0080           
     766 A    896  ETH  H4   HGA30    0.090000        1.0080           
     767 A    896  ETH  H5   HGA30    0.090000        1.0080           
     768 A    896  ETH  H6   HGA30    0.090000        1.0080           
     769 A    897  ETH  C1   CG3310  -0.270000       12.0110           
     770 A    897  ETH  C2   CG3310  -0.270000       12.0110           
     771 A    897  ETH  H1   HGA30    0.090000        1.0080           
     772 A    897  ETH  H2   HGA30    0.090000        1.0080           
     773 A    897  ETH  H3   HGA30    0.090000        1.0080           
     774 A    897  ETH  H4   HGA30    0.090000        1.0080           
     775 A    897  ETH  H5   HGA30    0.090000        1.0080           
     776 A    897  ETH  H6   HGA30    0.090000        1.0080           
     777 A    898  ETH  C1   CG3310  -0.270000       12.0110           
     778 A    898  ETH  C2   CG3310  -0.270000       12.0110           
     779 A    898  ETH  H1   HGA30    0.090000        1.0080           
     780 A    898  ETH  H2   HGA30    0.090000        1.0080           
     781 A    898  ETH  H3   HGA30    0.090000        1.0080           
     782 A    898  ETH  H4   HGA30    0.090000        1.0080           
     783 A    898  ETH  H5   HGA30    0.090000        1.0080           
     784 A    898  ETH  H6   HGA30    0.090000        1.0080           
     785 A    899  ETH  C1   CG3310  -0.270000       12.0110           
     786 A    899  ETH  C2   CG3310  -0.270000       12.0110           
     787 A    899  ETH  H1   HGA30    0.090000        1.0080           
     788 A    899  ETH  H2   HGA30    0.090000        1.0080           
     789 A    899  ETH  H3   HGA30    0.090000        1.0080           
     790 A    899  ETH  H4   HGA30    0.090000        1.0080           
     791 A    899  ETH  H5   HGA30    0.090000        1.0080           
     792 A    899  ETH  H6   HGA30    0.090000        1.0080           
     793 A    900  ETH  C1   CG3310  -0.270000       12.0110           
     794 A    900  ETH  C2   CG3310  -0.270000       12.0110           
     795 A    900  ETH  H1   HGA30    0.090000        1.0080           
     796 A    900  ETH  H2   HGA30    0.090000        1.0080           
     797 A    900  ETH  H3   HGA30    0.090000        1.0080           
     798 A    900  ETH  H4   HGA30    0.090000        1.0080           
     799 A    900  ETH  H5   HGA30    0.090000        1.0080           
     800 A    900  ETH  H6   HGA30    0.090000        1.0080           
     801 A    901  ETH  C1   CG3310  -0.270000       12.0110           
     802 A    901  ETH  C2   CG3310  -0.270000       12.0110           
     803 A    901  ETH  H1   HGA30    0.090000        1.0080           
     804 A    901  ETH  H2   HGA30    0.090000        1.0080           
     805 A    901  ETH  H3   HGA30    0.090000        1.0080           
     806 A    901  ETH  H4   HGA30    0.090000        1.0080           
     807 A    901  ETH  H5   HGA30    0.090000        1.0080           
     808 A    901  ETH  H6   HGA30    0.090000        1.0080           
     809 A    902  ETH  C1   CG3310  -0.270000       12.0110           
     810 A    902  ETH  C2   CG3310  -0.270000       12.0110           
     811 A    902  ETH  H1   HGA30    0.090000        1.0080           
     812 A    902  ETH  H2   HGA30    0.090000        1.0080           
     813 A    902  ETH  H3   HGA30    0.090000        1.0080           
     814 A    902  ETH  H4   HGA30    0.090000        1.0080           
     815 A    902  ETH  H5   HGA30    0.090000        1.0080           
     816 A    902  ETH  H6   HGA30    0.090000        1.0080           
     817 A    903  ETH  C1   CG3310  -0.270000       12.0110           
     818 A    903  ETH  C2   CG3310  -0.270000       12.0110           
     819 A    903  ETH  H1   HGA30    0.090000        1.0080           
     820 A    903  ETH  H2   HGA30    0.090000        1.0080           
     821 A    903  ETH  H3   HGA30    0.090000        1.0080           
     822 A    903  ETH  H4   HGA30    0.090000        1.0080           
     823 A    903  ETH  H5   HGA30    0.090000        1.0080           
     824 A    903  ETH  H6   HGA30    0.090000        1.0080           
     825 A    904  ETH  C1   CG3310  -0.270000       12.0110           
     826 A    904  ETH  C2   CG3310  -0.270000       12.0110           
     827 A    904  ETH  H1   HGA30    0.090000        1.0080           
     828 A    904  ETH  H2   HGA30    0.090000        1.0080           
     829 A    904  ETH  H3   HGA30    0.090000        1.0080           
     830 A    904  ETH  H4   HGA30    0.090000        1.0080           
     831 A    904  ETH  H5   HGA30    0.090000        1.0080           
     832 A    904  ETH  H6   HGA30    0.090000        1.0080           
     833 A    905  ETH  C1   CG3310  -0.270000       12.0110           
     834 A    905  ETH  C2   CG3310  -0.270000       12.0110           
     835 A    905  ETH  H1   HGA30    0.090000        1.0080           
     836 A    905  ETH  H2   HGA30    0.090000        1.0080           
     837 A    905  ETH  H3   HGA30    0.090000        1.0080           
     838 A    905  ETH  H4   HGA30    0.090000        1.0080           
     839 A    905  ETH  H5   HGA30    0.090000        1.0080           
     840 A    905  ETH  H6   HGA30    0.090000        1.0080           
     841 A    906  ETH  C1   CG3310  -0.270000       12.0110           
     842 A    906  ETH  C2   CG3310  -0.270000       12.0110           
     843 A    906  ETH  H1   HGA30    0.090000        1.0080           
     844 A    906  ETH  H2   HGA30    0.090000        1.0080           
     845 A    906  ETH  H3   HGA30    0.090000        1.0080           
     846 A    906  ETH  H4   HGA30    0.090000        1.0080           
     847 A    906  ETH  H5   HGA30    0.090000        1.0080           
     848 A    906  ETH  H6   HGA30    0.090000        1.0080           
     849 A    907  ETH  C1   CG3310  -0.270000       12.0110           
     850 A    907  ETH  C2   CG3310  -0.270000       12.0110           
     851 A    907  ETH  H1   HGA30    0.090000        1.0080           
     852 A    907  ETH  H2   HGA30    0.090000        1.0080           
     853 A    907  ETH  H3   HGA30    0.090000        1.0080           
     854 A    907  ETH  H4   HGA30    0.090000        1.0080           
     855 A    907  ETH  H5   HGA30    0.090000        1.0080           
     856 A    907  ETH  H6   HGA30    0.090000        1.0080           
     857 A    908  ETH  C1   CG3310  -0.270000       12.0110           
     858 A    908  ETH  C2   CG3310  -0.270000       12.0110           
     859 A    908  ETH  H1   HGA30    0.090000        1.0080           
     860 A    908  ETH  H2   HGA30    0.090000        1.0080           
     861 A    908  ETH  H3   HGA30    0.090000        1.0080           
     862 A    908  ETH  H4   HGA30    0.090000        1.0080           
     863 A    908  ETH  H5   HGA30    0.090000        1.0080           
     864 A    908  ETH  H6   HGA30    0.090000        1.0080           
     865 A    909  ETH  C1   CG3310  -0.270000       12.0110           
     866 A    909  ETH  C2   CG3310  -0.270000       12.0110           
     867 A    909  ETH  H1   HGA30    0.090000        1.0080           
     868 A    909  ETH  H2   HGA30    0.090000        1.0080           
     869 A    909  ETH  H3   HGA30    0.090000        1.0080           
     870 A    909  ETH  H4   HGA30    0.090000        1.0080           
     871 A    909  ETH  H5   HGA30    0.090000        1.0080           
     872 A    909  ETH  H6   HGA30    0.090000        1.0080           
     873 A    910  ETH  C1   CG3310  -0.270000       12.0110           
     874 A    910  ETH  C2   CG3310  -0.270000       12.0110           
     875 A    910  ETH  H1   HGA30    0.090000        1.0080           
     876 A    910  ETH  H2   HGA30    0.090000        1.0080           
     877 A    910  ETH  H3   HGA30    0.090000        1.0080           
     878 A    910  ETH  H4   HGA30    0.090000        1.0080           
     879 A    910  ETH  H5   HGA30    0.090000        1.0080           
     880 A    910  ETH  H6   HGA30    0.090000        1.0080           
     881 A    911  ETH  C1   CG3310  -0.270000       12.0110           
     882 A    911  ETH  C2   CG3310  -0.270000       12.0110           
     883 A    911  ETH  H1   HGA30    0.090000        1.0080           
     884 A    911  ETH  H2   HGA30    0.090000        1.0080           
     885 A    911  ETH  H3   HGA30    0.090000        1.0080           
     886 A    911  ETH  H4   HGA30    0.090000        1.0080           
     887 A    911  ETH  H5   HGA30    0.090000        1.0080           
     888 A    911  ETH  H6   HGA30    0.090000        1.0080           
     889 A    912  ETH  C1   CG3310  -0.270000       12.0110           
     890 A    912  ETH  C2   CG3310  -0.270000       12.0110           
     891 A    912  ETH  H1   HGA30    0.090000        1.0080           
     892 A    912  ETH  H2   HGA30    0.090000        1.0080           
     893 A    912  ETH  H3   HGA30    0.090000        1.0080           
     894 A    912  ETH  H4   HGA30    0.090000        1.0080           
     895 A    912  ETH  H5   HGA30    0.090000        1.0080           
     896 A    912  ETH  H6   HGA30    0.090000        1.0080           
     897 A    913  ETH  C1   CG3310  -0.270000       12.0110           
     898 A    913  ETH  C2   CG3310  -0.270000       12.0110           
     899 A    913  ETH  H1   HGA30    0.090000        1.0080           
     900 A    913  ETH  H2   HGA30    0.090000        1.0080           
     901 A    913  ETH  H3   HGA30    0.090000        1.0080           
     902 A    913  ETH  H4   HGA30    0.090000        1.0080           
     903 A    913  ETH  H5   HGA30    0.090000        1.0080           
     904 A    913  ETH  H6   HGA30    0.090000        1.0080           
     905 A    914  ETH  C1   CG3310  -0.270000       12.0110           
     906 A    914  ETH  C2   CG3310  -0.270000       12.0110           
     907 A    914  ETH  H1   HGA30    0.090000        1.0080           
     908 A    914  ETH  H2   HGA30    0.090000        1.0080           
     909 A    914  ETH  H3   HGA30    0.090000        1.0080           
     910 A    914  ETH  H4   HGA30    0.090000        1.0080           
     911 A    914  ETH  H5   HGA30    0.090000        1.0080           
     912 A    914  ETH  H6   HGA30    0.090000        1.0080           
     913 A    915  ETH  C1   CG3310  -0.270000       12.0110           
     914 A    915  ETH  C2   CG3310  -0.270000       12.0110           
     915 A    915  ETH  H1   HGA30    0.090000        1.0080           
     916 A    915  ETH  H2   HGA30    0.090000        1.0080           
     917 A    915  ETH  H3   HGA30    0.090000        1.0080           
     918 A    915  ETH  H4   HGA30    0.090000        1.0080           
     919 A    915  ETH  H5   HGA30    0.090000        1.0080           
     920 A    915  ETH  H6   HGA30    0.090000        1.0080           
     921 A    916  ETH  C1   CG3310  -0.270000       12.0110           
     922 A    916  ETH  C2   CG3310  -0.270000       12.0110           
     923 A    916  ETH  H1   HGA30    0.090000        1.0080           
     924 A    916  ETH  H2   HGA30    0.090000        1.0080           
     925 A    916  ETH  H3   HGA30    0.090000        1.0080           
     926 A    916  ETH  H4   HGA30    0.090000        1.0080           
     927 A    916  ETH  H5   HGA30    0.090000        1.0080           
     928 A    916  ETH  H6   HGA30    0.090000        1.0080           
     929 A    917  ETH  C1   CG3310  -0.270000       12.0110           
     930 A    917  ETH  C2   CG3310  -0.270000       12.0110           
     931 A    917  ETH  H1   HGA30    0.090000        1.0080           
     932 A    917  ETH  H2   HGA30    0.090000        1.0080           
     933 A    917  ETH  H3   HGA30    0.090000        1.0080           
     934 A    917  ETH  H4   HGA30    0.090000        1.0080           
     935 A    917  ETH  H5   HGA30    0.090000        1.0080           
     936 A    917  ETH  H6   HGA30    0.090000        1.0080           
     937 A    918  ETH  C1   CG3310  -0.270000       12.0110           
     938 A    918  ETH  C2   CG3310  -0.270000       12.0110           
     939 A    918  ETH  H1   HGA30    0.090000        1.0080           
     940 A    918  ETH  H2   HGA30    0.090000        1.0080           
     941 A    918  ETH  H3   HGA30    0.090000        1.0080           
     942 A    918  ETH  H4   HGA30    0.090000        1.0080           
     943 A    918  ETH  H5   HGA30    0.090000        1.0080           
     944 A    918  ETH  H6   HGA30    0.090000        1.0080           
     945 A    919  ETH  C1   CG3310  -0.270000       12.0110           
     946 A    919  ETH  C2   CG3310  -0.270000       12.0110           
     947 A    919  ETH  H1   HGA30    0.090000        1.0080           
     948 A    919  ETH  H2   HGA30    0.090000        1.0080           
     949 A    919  ETH  H3   HGA30    0.090000        1.0080           
     950 A    919  ETH  H4   HGA30    0.090000        1.0080           
     951 A    919  ETH  H5   HGA30    0.090000        1.0080           
     952 A    919  ETH  H6   HGA30    0.090000        1.0080           
     953 A    920  ETH  C1   CG3310  -0.270000       12.0110           
     954 A    920  ETH  C2   CG3310  -0.270000       12.0110           
     955 A    920  ETH  H1   HGA30    0.090000        1.0080           
     956 A    920  ETH  H2   HGA30    0.090000        1.0080           
     957 A    920  ETH  H3   HGA30    0.090000        1.0080           
     958 A    920  ETH  H4   HGA30    0.090000        1.0080           
     959 A    920  ETH  H5   HGA30    0.090000        1.0080           
     960 A    920  ETH  H6   HGA30    0.090000        1.0080           
     961 A    921  ETH  C1   CG3310  -0.270000       12.0110           
     962 A    921  ETH  C2   CG3310  -0.270000       12.0110           
     963 A    921  ETH  H1   HGA30    0.090000        1.0080           
     964 A    921  ETH  H2   HGA30    0.090000        1.0080           
     965 A    921  ETH  H3   HGA30    0.090000        1.0080           
     966 A    921  ETH  H4   HGA30    0.090000        1.0080           
     967 A    921  ETH  H5   HGA30    0.090000        1.0080           
     968 A    921  ETH  H6   HGA30    0.090000        1.0080           
     969 A    922  ETH  C1   CG3310  -0.270000       12.0110           
     970 A    922  ETH  C2   CG3310  -0.270000       12.0110           
     971 A    922  ETH  H1   HGA30    0.090000        1.0080           
     972 A    922  ETH  H2   HGA30    0.090000        1.0080           
     973 A    922  ETH  H3   HGA30    0.090000        1.0080           
     974 A    922  ETH  H4   HGA30    0.090000        1.0080           
     975 A    922  ETH  H5   HGA30    0.090000        1.0080           
     976 A    922  ETH  H6   HGA30    0.090000        1.0080           
     977 A    923  ETH  C1   CG3310  -0.270000       12.0110           
     978 A    923  ETH  C2   CG3310  -0.270000       12.0110           
     979 A    923  ETH  H1   HGA30    0.090000        1.0080           
     980 A    923  ETH  H2   HGA30    0.090000        1.0080           
     981 A    923  ETH  H3   HGA30    0.090000        1.0080           
     982 A    923  ETH  H4   HGA30    0.090000        1.0080           
     983 A    923  ETH  H5   HGA30    0.090000        1.0080           
     984 A    923  ETH  H6   HGA30    0.090000        1.0080           
     985 A    924  ETH  C1   CG3310  -0.270000       12.0110           
     986 A    924  ETH  C2   CG3310  -0.270000       12.0110           
     987 A    924  ETH  H1   HGA30    0.090000        1.0080           
     988 A    924  ETH  H2   HGA30    0.090000        1.0080           
     989 A    924  ETH  H3   HGA30    0.090000        1.0080           
     990 A    924  ETH  H4   HGA30    0.090000        1.0080           
     991 A    924  ETH  H5   HGA30    0.090000        1.0080           
     992 A    924  ETH  H6   HGA30    0.090000        1.0080           
     993 A    925  ETH  C1   CG3310  -0.270000       12.0110           
     994 A    925  ETH  C2   CG3310  -0.270000       12.0110           
     995 A    925  ETH  H1   HGA30    0.090000        1.0080           
     996 A    925  ETH  H2   HGA30    0.090000        1.0080           
     997 A    925  ETH  H3   HGA30    0.090000        1.0080           
     998 A    925  ETH  H4   HGA30    0.090000        1.0080           
     999 A    925  ETH  H5   HGA30    0.090000        1.0080           
    1000 A    925  ETH  H6   HGA30    0.090000        1.0080           
    1001 A    926  ETH  C1   CG3310  -0.270000       12.0110           
    1002 A    926  ETH  C2   CG3310  -0.270000       12.0110           
    1003 A    926  ETH  H1   HGA30    0.090000        1.0080           
    1004 A    926  ETH  H2   HGA30    0.090000        1.0080           
    1005 A    926  ETH  H3   HGA30    0.090000        1.0080           
    1006 A    926  ETH  H4   HGA30    0.090000        1.0080           
    1007 A    926  ETH  H5   HGA30    0.090000        1.0080           
    1008 A    926  ETH  H6   HGA30    0.090000        1.0080           
    1009 A    927  ETH  C1   CG3310  -0.270000       12.0110           
    1010 A    927  ETH  C2   CG3310  -0.270000       12.0110           
    1011 A    927  ETH  H1   HGA30    0.090000        1.0080           
    1012 A    927  ETH  H2   HGA30    0.090000        1.0080           
    1013 A    927  ETH  H3   HGA30    0.090000        1.0080           
    1014 A    927  ETH  H4   HGA30    0.090000        1.0080           
    1015 A    927  ETH  H5   HGA30    0.090000        1.0080           
    1016 A    927  ETH  H6   HGA30    0.090000        1.0080           
    1017 A    928  ETH  C1   CG3310  -0.270000       12.0110           
    1018 A    928  ETH  C2   CG3310  -0.270000       12.0110           
    1019 A    928  ETH  H1   HGA30    0.090000        1.0080           
    1020 A    928  ETH  H2   HGA30    0.090000        1.0080           
    1021 A    928  ETH  H3   HGA30    0.090000        1.0080           
    1022 A    928  ETH  H4   HGA30    0.090000        1.0080           
    1023 A    928  ETH  H5   HGA30    0.090000        1.0080           
    1024 A    928  ETH  H6   HGA30    0.090000        1.0080           
    1025 A    929  ETH  C1   CG3310  -0.270000       12.0110           
    1026 A    929  ETH  C2   CG3310  -0.270000       12.0110           
    1027 A    929  ETH  H1   HGA30    0.090000        1.0080           
    1028 A    929  ETH  H2   HGA30    0.090000        1.0080           
    1029 A    929  ETH  H3   HGA30    0.090000        1.0080           
    1030 A    929  ETH  H4   HGA30    0.090000        1.0080           
    1031 A    929  ETH  H5   HGA30    0.090000        1.0080           
    1032 A    929  ETH  H6   HGA30    0.090000        1.0080           
    1033 A    930  ETH  C1   CG3310  -0.270000       12.0110           
    1034 A    930  ETH  C2   CG3310  -0.270000       12.0110           
    1035 A    930  ETH  H1   HGA30    0.090000        1.0080           
    1036 A    930  ETH  H2   HGA30    0.090000        1.0080           
    1037 A    930  ETH  H3   HGA30    0.090000        1.0080           
    1038 A    930  ETH  H4   HGA30    0.090000        1.0080           
    1039 A    930  ETH  H5   HGA30    0.090000        1.0080           
    1040 A    930  ETH  H6   HGA30    0.090000        1.0080           
    1041 A    931  ETH  C1   CG3310  -0.270000       12.0110           
    1042 A    931  ETH  C2   CG3310  -0.270000       12.0110           
    1043 A    931  ETH  H1   HGA30    0.090000        1.0080           
    1044 A    931  ETH  H2   HGA30    0.090000        1.0080           
    1045 A    931  ETH  H3   HGA30    0.090000        1.0080           
    1046 A    931  ETH  H4   HGA30    0.090000        1.0080           
    1047 A    931  ETH  H5   HGA30    0.090000        1.0080           
    1048 A    931  ETH  H6   HGA30    0.090000        1.0080           
    1049 A    932  ETH  C1   CG3310  -0.270000       12.0110           
    1050 A    932  ETH  C2   CG3310  -0.270000       12.0110           
    1051 A    932  ETH  H1   HGA30    0.090000        1.0080           
    1052 A    932  ETH  H2   HGA30    0.090000        1.0080           
    1053 A    932  ETH  H3   HGA30    0.090000        1.0080           
    1054 A    932  ETH  H4   HGA30    0.090000        1.0080           
    1055 A    932  ETH  H5   HGA30    0.090000        1.0080           
    1056 A    932  ETH  H6   HGA30    0.090000        1.0080           
    1057 A    933  ETH  C1   CG3310  -0.270000       12.0110           
    1058 A    933  ETH  C2   CG3310  -0.270000       12.0110           
    1059 A    933  ETH  H1   HGA30    0.090000        1.0080           
    1060 A    933  ETH  H2   HGA30    0.090000        1.0080           
    1061 A    933  ETH  H3   HGA30    0.090000        1.0080           
    1062 A    933  ETH  H4   HGA30    0.090000        1.0080           
    1063 A    933  ETH  H5   HGA30    0.090000        1.0080           
    1064 A    933  ETH  H6   HGA30    0.090000        1.0080           
    1065 A    934  ETH  C1   CG3310  -0.270000       12.0110           
    1066 A    934  ETH  C2   CG3310  -0.270000       12.0110           
    1067 A    934  ETH  H1   HGA30    0.090000        1.0080           
    1068 A    934  ETH  H2   HGA30    0.090000        1.0080           
    1069 A    934  ETH  H3   HGA30    0.090000        1.0080           
    1070 A    934  ETH  H4   HGA30    0.090000        1.0080           
    1071 A    934  ETH  H5   HGA30    0.090000        1.0080           
    1072 A    934  ETH  H6   HGA30    0.090000        1.0080           
    1073 A    935  ETH  C1   CG3310  -0.270000       12.0110           
    1074 A    935  ETH  C2   CG3310  -0.270000       12.0110           
    1075 A    935  ETH  H1   HGA30    0.090000        1.0080           
    1076 A    935  ETH  H2   HGA30    0.090000        1.0080           
    1077 A    935  ETH  H3   HGA30    0.090000        1.0080           
    1078 A    935  ETH  H4   HGA30    0.090000        1.0080           
    1079 A    935  ETH  H5   HGA30    0.090000        1.0080           
    1080 A    935  ETH  H6   HGA30    0.090000        1.0080           
    1081 A    936  ETH  C1   CG3310  -0.270000       12.0110           
    1082 A    936  ETH  C2   CG3310  -0.270000       12.0110           
    1083 A    936  ETH  H1   HGA30    0.090000        1.0080           
    1084 A    936  ETH  H2   HGA30    0.090000        1.0080           
    1085 A    936  ETH  H3   HGA30    0.090000        1.0080           
    1086 A    936  ETH  H4   HGA30    0.090000        1.0080           
    1087 A    936  ETH  H5   HGA30    0.090000        1.0080           
    1088 A    936  ETH  H6   HGA30    0.090000        1.0080           
    1089 A    937  ETH  C1   CG3310  -0.270000       12.0110           
    1090 A    937  ETH  C2   CG3310  -0.270000       12.0110           
    1091 A    937  ETH  H1   HGA30    0.090000        1.0080           
    1092 A    937  ETH  H2   HGA30    0.090000        1.0080           
    1093 A    937  ETH  H3   HGA30    0.090000        1.0080           
    1094 A    937  ETH  H4   HGA30    0.090000        1.0080           
    1095 A    937  ETH  H5   HGA30    0.090000        1.0080           
    1096 A    937  ETH  H6   HGA30    0.090000        1.0080           
    1097 A    938  ETH  C1   CG3310  -0.270000       12.0110           
    1098 A    938  ETH  C2   CG3310  -0.270000       12.0110           
    1099 A    938  ETH  H1   HGA30    0.090000        1.0080           
    1100 A    938  ETH  H2   HGA30    0.090000        1.0080           
    1101 A    938  ETH  H3   HGA30    0.090000        1.0080           
    1102 A    938  ETH  H4   HGA30    0.090000        1.0080           
    1103 A    938  ETH  H5   HGA30    0.090000        1.0080           
    1104 A    938  ETH  H6   HGA30    0.090000        1.0080           
    1105 A    939  ETH  C1   CG3310  -0.270000       12.0110           
    1106 A    939  ETH  C2   CG3310  -0.270000       12.0110           
    1107 A    939  ETH  H1   HGA30    0.090000        1.0080           
    1108 A    939  ETH  H2   HGA30    0.090000        1.0080           
    1109 A    939  ETH  H3   HGA30    0.090000        1.0080           
    1110 A    939  ETH  H4   HGA30    0.090000        1.0080           
    1111 A    939  ETH  H5   HGA30    0.090000        1.0080           
    1112 A    939  ETH  H6   HGA30    0.090000        1.0080           
    1113 A    940  ETH  C1   CG3310  -0.270000       12.0110           
    1114 A    940  ETH  C2   CG3310  -0.270000       12.0110           
    1115 A    940  ETH  H1   HGA30    0.090000        1.0080           
    1116 A    940  ETH  H2   HGA30    0.090000        1.0080           
    1117 A    940  ETH  H3   HGA30    0.090000        1.0080           
    1118 A    940  ETH  H4   HGA30    0.090000        1.0080           
    1119 A    940  ETH  H5   HGA30    0.090000        1.0080           
    1120 A    940  ETH  H6   HGA30    0.090000        1.0080           
    1121 A    941  ETH  C1   CG3310  -0.270000       12.0110           
    1122 A    941  ETH  C2   CG3310  -0.270000       12.0110           
    1123 A    941  ETH  H1   HGA30    0.090000        1.0080           
    1124 A    941  ETH  H2   HGA30    0.090000        1.0080           
    1125 A    941  ETH  H3   HGA30    0.090000        1.0080           
    1126 A    941  ETH  H4   HGA30    0.090000        1.0080           
    1127 A    941  ETH  H5   HGA30    0.090000        1.0080           
    1128 A    941  ETH  H6   HGA30    0.090000        1.0080           
    1129 A    942  ETH  C1   CG3310  -0.270000       12.0110           
    1130 A    942  ETH  C2   CG3310  -0.270000       12.0110           
    1131 A    942  ETH  H1   HGA30    0.090000        1.0080           
    1132 A    942  ETH  H2   HGA30    0.090000        1.0080           
    1133 A    942  ETH  H3   HGA30    0.090000        1.0080           
    1134 A    942  ETH  H4   HGA30    0.090000        1.0080           
    1135 A    942  ETH  H5   HGA30    0.090000        1.0080           
    1136 A    942  ETH  H6   HGA30    0.090000        1.0080           
    1137 A    943  ETH  C1   CG3310  -0.270000       12.0110           
    1138 A    943  ETH  C2   CG3310  -0.270000       12.0110           
    1139 A    943  ETH  H1   HGA30    0.090000        1.0080           
    1140 A    943  ETH  H2   HGA30    0.090000        1.0080           
    1141 A    943  ETH  H3   HGA30    0.090000        1.0080           
    1142 A    943  ETH  H4   HGA30    0.090000        1.0080           
    1143 A    943  ETH  H5   HGA30    0.090000        1.0080           
    1144 A    943  ETH  H6   HGA30    0.090000        1.0080           
    1145 A    944  ETH  C1   CG3310  -0.270000       12.0110           
    1146 A    944  ETH  C2   CG3310  -0.270000       12.0110           
    1147 A    944  ETH  H1   HGA30    0.090000        1.0080           
    1148 A    944  ETH  H2   HGA30    0.090000        1.0080           
    1149 A    944  ETH  H3   HGA30    0.090000        1.0080           
    1150 A    944  ETH  H4   HGA30    0.090000        1.0080           
    1151 A    944  ETH  H5   HGA30    0.090000        1.0080           
    1152 A    944  ETH  H6   HGA30    0.090000        1.0080           
    1153 A    945  ETH  C1   CG3310  -0.270000       12.0110           
    1154 A    945  ETH  C2   CG3310  -0.270000       12.0110           
    1155 A    945  ETH  H1   HGA30    0.090000        1.0080           
    1156 A    945  ETH  H2   HGA30    0.090000        1.0080           
    1157 A    945  ETH  H3   HGA30    0.090000        1.0080           
    1158 A    945  ETH  H4   HGA30    0.090000        1.0080           
    1159 A    945  ETH  H5   HGA30    0.090000        1.0080           
    1160 A    945  ETH  H6   HGA30    0.090000        1.0080           
    1161 A    946  ETH  C1   CG3310  -0.270000       12.0110           
    1162 A    946  ETH  C2   CG3310  -0.270000       12.0110           
    1163 A    946  ETH  H1   HGA30    0.090000        1.0080           
    1164 A    946  ETH  H2   HGA30    0.090000        1.0080           
    1165 A    946  ETH  H3   HGA30    0.090000        1.0080           
    1166 A    946  ETH  H4   HGA30    0.090000        1.0080           
    1167 A    946  ETH  H5   HGA30    0.090000        1.0080           
    1168 A    946  ETH  H6   HGA30    0.090000        1.0080           
    1169 A    947  ETH  C1   CG3310  -0.270000       12.0110           
    1170 A    947  ETH  C2   CG3310  -0.270000       12.0110           
    1171 A    947  ETH  H1   HGA30    0.090000        1.0080           
    1172 A    947  ETH  H2   HGA30    0.090000        1.0080           
    1173 A    947  ETH  H3   HGA30    0.090000        1.0080           
    1174 A    947  ETH  H4   HGA30    0.090000        1.0080           
    1175 A    947  ETH  H5   HGA30    0.090000        1.0080           
    1176 A    947  ETH  H6   HGA30    0.090000        1.0080           
    1177 A    948  ETH  C1   CG3310  -0.270000       12.0110           
    1178 A    948  ETH  C2   CG3310  -0.270000       12.0110           
    1179 A    948  ETH  H1   HGA30    0.090000        1.0080           
    1180 A    948  ETH  H2   HGA30    0.090000        1.0080           
    1181 A    948  ETH  H3   HGA30    0.090000        1.0080           
    1182 A    948  ETH  H4   HGA30    0.090000        1.0080           
    1183 A    948  ETH  H5   HGA30    0.090000        1.0080           
    1184 A    948  ETH  H6   HGA30    0.090000        1.0080           
    1185 A    949  ETH  C1   CG3310  -0.270000       12.0110           
    1186 A    949  ETH  C2   CG3310  -0.270000       12.0110           
    1187 A    949  ETH  H1   HGA30    0.090000        1.0080           
    1188 A    949  ETH  H2   HGA30    0.090000        1.0080           
    1189 A    949  ETH  H3   HGA30    0.090000        1.0080           
    1190 A    949  ETH  H4   HGA30    0.090000        1.0080           
    1191 A    949  ETH  H5   HGA30    0.090000        1.0080           
    1192 A    949  ETH  H6   HGA30    0.090000        1.0080           
    1193 A    950  ETH  C1   CG3310  -0.270000       12.0110           
    1194 A    950  ETH  C2   CG3310  -0.270000       12.0110           
    1195 A    950  ETH  H1   HGA30    0.090000        1.0080           
    1196 A    950  ETH  H2   HGA30    0.090000        1.0080           
    1197 A    950  ETH  H3   HGA30    0.090000        1.0080           
    1198 A    950  ETH  H4   HGA30    0.090000        1.0080           
    1199 A    950  ETH  H5   HGA30    0.090000        1.0080           
    1200 A    950  ETH  H6   HGA30    0.090000        1.0080           
    1201 A    951  ETH  C1   CG3310  -0.270000       12.0110           
    1202 A    951  ETH  C2   CG3310  -0.270000       12.0110           
    1203 A    951  ETH  H1   HGA30    0.090000        1.0080           
    1204 A    951  ETH  H2   HGA30    0.090000        1.0080           
    1205 A    951  ETH  H3   HGA30    0.090000        1.0080           
    1206 A    951  ETH  H4   HGA30    0.090000        1.0080           
    1207 A    951  ETH  H5   HGA30    0.090000        1.0080           
    1208 A    951  ETH  H6   HGA30    0.090000        1.0080           
    1209 A    952  ETH  C1   CG3310  -0.270000       12.0110           
    1210 A    952  ETH  C2   CG3310  -0.270000       12.0110           
    1211 A    952  ETH  H1   HGA30    0.090000        1.0080           
    1212 A    952  ETH  H2   HGA30    0.090000        1.0080           
    1213 A    952  ETH  H3   HGA30    0.090000        1.0080           
    1214 A    952  ETH  H4   HGA30    0.090000        1.0080           
    1215 A    952  ETH  H5   HGA30    0.090000        1.0080           
    1216 A    952  ETH  H6   HGA30    0.090000        1.0080           
    1217 A    953  ETH  C1   CG3310  -0.270000       12.0110           
    1218 A    953  ETH  C2   CG3310  -0.270000       12.0110           
    1219 A    953  ETH  H1   HGA30    0.090000        1.0080           
    1220 A    953  ETH  H2   HGA30    0.090000        1.0080           
    1221 A    953  ETH  H3   HGA30    0.090000        1.0080           
    1222 A    953  ETH  H4   HGA30    0.090000        1.0080           
    1223 A    953  ETH  H5   HGA30    0.090000        1.0080           
    1224 A    953  ETH  H6   HGA30    0.090000        1.0080           
    1225 A    954  ETH  C1   CG3310  -0.270000       12.0110           
    1226 A    954  ETH  C2   CG3310  -0.270000       12.0110           
    1227 A    954  ETH  H1   HGA30    0.090000        1.0080           
    1228 A    954  ETH  H2   HGA30    0.090000        1.0080           
    1229 A    954  ETH  H3   HGA30    0.090000        1.0080           
    1230 A    954  ETH  H4   HGA30    0.090000        1.0080           
    1231 A    954  ETH  H5   HGA30    0.090000        1.0080           
    1232 A    954  ETH  H6   HGA30    0.090000        1.0080           
    1233 A    955  ETH  C1   CG3310  -0.270000       12.0110           
    1234 A    955  ETH  C2   CG3310  -0.270000       12.0110           
    1235 A    955  ETH  H1   HGA30    0.090000        1.0080           
    1236 A    955  ETH  H2   HGA30    0.090000        1.0080           
    1237 A    955  ETH  H3   HGA30    0.090000        1.0080           
    1238 A    955  ETH  H4   HGA30    0.090000        1.0080           
    1239 A    955  ETH  H5   HGA30    0.090000        1.0080           
    1240 A    955  ETH  H6   HGA30    0.090000        1.0080           
    1241 A    956  ETH  C1   CG3310  -0.270000       12.0110           
    1242 A    956  ETH  C2   CG3310  -0.270000       12.0110           
    1243 A    956  ETH  H1   HGA30    0.090000        1.0080           
    1244 A    956  ETH  H2   HGA30    0.090000        1.0080           
    1245 A    956  ETH  H3   HGA30    0.090000        1.0080           
    1246 A    956  ETH  H4   HGA30    0.090000        1.0080           
    1247 A    956  ETH  H5   HGA30    0.090000        1.0080           
    1248 A    956  ETH  H6   HGA30    0.090000        1.0080           
    1249 A    957  ETH  C1   CG3310  -0.270000       12.0110           
    1250 A    957  ETH  C2   CG3310  -0.270000       12.0110           
    1251 A    957  ETH  H1   HGA30    0.090000        1.0080           
    1252 A    957  ETH  H2   HGA30    0.090000        1.0080           
    1253 A    957  ETH  H3   HGA30    0.090000        1.0080           
    1254 A    957  ETH  H4   HGA30    0.090000        1.0080           
    1255 A    957  ETH  H5   HGA30    0.090000        1.0080           
    1256 A    957  ETH  H6   HGA30    0.090000        1.0080           
    1257 A    958  ETH  C1   CG3310  -0.270000       12.0110           
    1258 A    958  ETH  C2   CG3310  -0.270000       12.0110           
    1259 A    958  ETH  H1   HGA30    0.090000        1.0080           
    1260 A    958  ETH  H2   HGA30    0.090000        1.0080           
    1261 A    958  ETH  H3   HGA30    0.090000        1.0080           
    1262 A    958  ETH  H4   HGA30    0.090000        1.0080           
    1263 A    958  ETH  H5   HGA30    0.090000        1.0080           
    1264 A    958  ETH  H6   HGA30    0.090000        1.0080           
    1265 A    959  ETH  C1   CG3310  -0.270000       12.0110           
    1266 A    959  ETH  C2   CG3310  -0.270000       12.0110           
    1267 A    959  ETH  H1   HGA30    0.090000        1.0080           
    1268 A    959  ETH  H2   HGA30    0.090000        1.0080           
    1269 A    959  ETH  H3   HGA30    0.090000        1.0080           
    1270 A    959  ETH  H4   HGA30    0.090000        1.0080           
    1271 A    959  ETH  H5   HGA30    0.090000        1.0080           
    1272 A    959  ETH  H6   HGA30    0.090000        1.0080           
    1273 A    960  ETH  C1   CG3310  -0.270000       12.0110           
    1274 A    960  ETH  C2   CG3310  -0.270000       12.0110           
    1275 A    960  ETH  H1   HGA30    0.090000        1.0080           
    1276 A    960  ETH  H2   HGA30    0.090000        1.0080           
    1277 A    960  ETH  H3   HGA30    0.090000        1.0080           
    1278 A    960  ETH  H4   HGA30    0.090000        1.0080           
    1279 A    960  ETH  H5   HGA30    0.090000        1.0080           
    1280 A    960  ETH  H6   HGA30    0.090000        1.0080           
    1281 A    961  ETH  C1   CG3310  -0.270000       12.0110           
    1282 A    961  ETH  C2   CG3310  -0.270000       12.0110           
    1283 A    961  ETH  H1   HGA30    0.090000        1.0080           
    1284 A    961  ETH  H2   HGA30    0.090000        1.0080           
    1285 A    961  ETH  H3   HGA30    0.090000        1.0080           
    1286 A    961  ETH  H4   HGA30    0.090000        1.0080           
    1287 A    961  ETH  H5   HGA30    0.090000        1.0080           
    1288 A    961  ETH  H6   HGA30    0.090000        1.0080           
    1289 A    962  ETH  C1   CG3310  -0.270000       12.0110           
    1290 A    962  ETH  C2   CG3310  -0.270000       12.0110           
    1291 A    962  ETH  H1   HGA30    0.090000        1.0080           
    1292 A    962  ETH  H2   HGA30    0.090000        1.0080           
    1293 A    962  ETH  H3   HGA30    0.090000        1.0080           
    1294 A    962  ETH  H4   HGA30    0.090000        1.0080           
    1295 A    962  ETH  H5   HGA30    0.090000        1.0080           
    1296 A    962  ETH  H6   HGA30    0.090000        1.0080           
    1297 A    963  ETH  C1   CG3310  -0.270000       12.0110           
    1298 A    963  ETH  C2   CG3310  -0.270000       12.0110           
    1299 A    963  ETH  H1   HGA30    0.090000        1.0080           
    1300 A    963  ETH  H2   HGA30    0.090000        1.0080           
    1301 A    963  ETH  H3   HGA30    0.090000        1.0080           
    1302 A    963  ETH  H4   HGA30    0.090000        1.0080           
    1303 A    963  ETH  H5   HGA30    0.090000        1.0080           
    1304 A    963  ETH  H6   HGA30    0.090000        1.0080           
    1305 A    964  ETH  C1   CG3310  -0.270000       12.0110           
    1306 A    964  ETH  C2   CG3310  -0.270000       12.0110           
    1307 A    964  ETH  H1   HGA30    0.090000        1.0080           
    1308 A    964  ETH  H2   HGA30    0.090000        1.0080           
    1309 A    964  ETH  H3   HGA30    0.090000        1.0080           
    1310 A    964  ETH  H4   HGA30    0.090000        1.0080           
    1311 A    964  ETH  H5   HGA30    0.090000        1.0080           
    1312 A    964  ETH  H6   HGA30    0.090000        1.0080           
    1313 A    965  ETH  C1   CG3310  -0.270000       12.0110           
    1314 A    965  ETH  C2   CG3310  -0.270000       12.0110           
    1315 A    965  ETH  H1   HGA30    0.090000        1.0080           
    1316 A    965  ETH  H2   HGA30    0.090000        1.0080           
    1317 A    965  ETH  H3   HGA30    0.090000        1.0080           
    1318 A    965  ETH  H4   HGA30    0.090000        1.0080           
    1319 A    965  ETH  H5   HGA30    0.090000        1.0080           
    1320 A    965  ETH  H6   HGA30    0.090000        1.0080           
    1321 A    966  ETH  C1   CG3310  -0.270000       12.0110           
    1322 A    966  ETH  C2   CG3310  -0.270000       12.0110           
    1323 A    966  ETH  H1   HGA30    0.090000        1.0080           
    1324 A    966  ETH  H2   HGA30    0.090000        1.0080           
    1325 A    966  ETH  H3   HGA30    0.090000        1.0080           
    1326 A    966  ETH  H4   HGA30    0.090000        1.0080           
    1327 A    966  ETH  H5   HGA30    0.090000        1.0080           
    1328 A    966  ETH  H6   HGA30    0.090000        1.0080           
    1329 A    967  ETH  C1   CG3310  -0.270000       12.0110           
    1330 A    967  ETH  C2   CG3310  -0.270000       12.0110           
    1331 A    967  ETH  H1   HGA30    0.090000        1.0080           
    1332 A    967  ETH  H2   HGA30    0.090000        1.0080           
    1333 A    967  ETH  H3   HGA30    0.090000        1.0080           
    1334 A    967  ETH  H4   HGA30    0.090000        1.0080           
    1335 A    967  ETH  H5   HGA30    0.090000        1.0080           
    1336 A    967  ETH  H6   HGA30    0.090000        1.0080           
    1337 A    968  ETH  C1   CG3310  -0.270000       12.0110           
    1338 A    968  ETH  C2   CG3310  -0.270000       12.0110           
    1339 A    968  ETH  H1   HGA30    0.090000        1.0080           
    1340 A    968  ETH  H2   HGA30    0.090000        1.0080           
    1341 A    968  ETH  H3   HGA30    0.090000        1.0080           
    1342 A    968  ETH  H4   HGA30    0.090000        1.0080           
    1343 A    968  ETH  H5   HGA30    0.090000        1.0080           
    1344 A    968  ETH  H6   HGA30    0.090000        1.0080           
    1345 A    969  ETH  C1   CG3310  -0.270000       12.0110           
    1346 A    969  ETH  C2   CG3310  -0.270000       12.0110           
    1347 A    969  ETH  H1   HGA30    0.090000        1.0080           
    1348 A    969  ETH  H2   HGA30    0.090000        1.0080           
    1349 A    969  ETH  H3   HGA30    0.090000        1.0080           
    1350 A    969  ETH  H4   HGA30    0.090000        1.0080           
    1351 A    969  ETH  H5   HGA30    0.090000        1.0080           
    1352 A    969  ETH  H6   HGA30    0.090000        1.0080           
    1353 A    970  ETH  C1   CG3310  -0.270000       12.0110           
    1354 A    970  ETH  C2   CG3310  -0.270000       12.0110           
    1355 A    970  ETH  H1   HGA30    0.090000        1.0080           
    1356 A    970  ETH  H2   HGA30    0.090000        1.0080           
    1357 A    970  ETH  H3   HGA30    0.090000        1.0080           
    1358 A    970  ETH  H4   HGA30    0.090000        1.0080           
    1359 A    970  ETH  H5   HGA30    0.090000        1.0080           
    1360 A    970  ETH  H6   HGA30    0.090000        1.0080           
    1361 A    971  ETH  C1   CG3310  -0.270000       12.0110           
    1362 A    971  ETH  C2   CG3310  -0.270000       12.0110           
    1363 A    971  ETH  H1   HGA30    0.090000        1.0080           
    1364 A    971  ETH  H2   HGA30    0.090000        1.0080           
    1365 A    971  ETH  H3   HGA30    0.090000        1.0080           
    1366 A    971  ETH  H4   HGA30    0.090000        1.0080           
    1367 A    971  ETH  H5   HGA30    0.090000        1.0080           
    1368 A    971  ETH  H6   HGA30    0.090000        1.0080           
    1369 A    972  ETH  C1   CG3310  -0.270000       12.0110           
    1370 A    972  ETH  C2   CG3310  -0.270000       12.0110           
    1371 A    972  ETH  H1   HGA30    0.090000        1.0080           
    1372 A    972  ETH  H2   HGA30    0.090000        1.0080           
    1373 A    972  ETH  H3   HGA30    0.090000        1.0080           
    1374 A    972  ETH  H4   HGA30    0.090000        1.0080           
    1375 A    972  ETH  H5   HGA30    0.090000        1.0080           
    1376 A    972  ETH  H6   HGA30    0.090000        1.0080           
    1377 A    973  ETH  C1   CG3310  -0.270000       12.0110           
    1378 A    973  ETH  C2   CG3310  -0.270000       12.0110           
    1379 A    973  ETH  H1   HGA30    0.090000        1.0080           
    1380 A    973  ETH  H2   HGA30    0.090000        1.0080           
    1381 A    973  ETH  H3   HGA30    0.090000        1.0080           
    1382 A    973  ETH  H4   HGA30    0.090000        1.0080           
    1383 A    973  ETH  H5   HGA30    0.090000        1.0080           
    1384 A    973  ETH  H6   HGA30    0.090000        1.0080           
    1385 A    974  ETH  C1   CG3310  -0.270000       12.0110           
    1386 A    974  ETH  C2   CG3310  -0.270000       12.0110           
    1387 A    974  ETH  H1   HGA30    0.090000        1.0080           
    1388 A    974  ETH  H2   HGA30    0.090000        1.0080           
    1389 A    974  ETH  H3   HGA30    0.090000        1.0080           
    1390 A    974  ETH  H4   HGA30    0.090000        1.0080           
    1391 A    974  ETH  H5   HGA30    0.090000        1.0080           
    1392 A    974  ETH  H6   HGA30    0.090000        1.0080           
    1393 A    975  ETH  C1   CG3310  -0.270000       12.0110           
    1394 A    975  ETH  C2   CG3310  -0.270000       12.0110           
    1395 A    975  ETH  H1   HGA30    0.090000        1.0080           
    1396 A    975  ETH  H2   HGA30    0.090000        1.0080           
    1397 A    975  ETH  H3   HGA30    0.090000        1.0080           
    1398 A    975  ETH  H4   HGA30    0.090000        1.0080           
    1399 A    975  ETH  H5   HGA30    0.090000        1.0080           
    1400 A    975  ETH  H6   HGA30    0.090000        1.0080           
    1401 A    976  ETH  C1   CG3310  -0.270000       12.0110           
    1402 A    976  ETH  C2   CG3310  -0.270000       12.0110           
    1403 A    976  ETH  H1   HGA30    0.090000        1.0080           
    1404 A    976  ETH  H2   HGA30    0.090000        1.0080           
    1405 A    976  ETH  H3   HGA30    0.090000        1.0080           
    1406 A    976  ETH  H4   HGA30    0.090000        1.0080           
    1407 A    976  ETH  H5   HGA30    0.090000        1.0080           
    1408 A    976  ETH  H6   HGA30    0.090000        1.0080           
    1409 A    977  ETH  C1   CG3310  -0.270000       12.0110           
    1410 A    977  ETH  C2   CG3310  -0.270000       12.0110           
    1411 A    977  ETH  H1   HGA30    0.090000        1.0080           
    1412 A    977  ETH  H2   HGA30    0.090000        1.0080           
    1413 A    977  ETH  H3   HGA30    0.090000        1.0080           
    1414 A    977  ETH  H4   HGA30    0.090000        1.0080           
    1415 A    977  ETH  H5   HGA30    0.090000        1.0080           
    1416 A    977  ETH  H6   HGA30    0.090000        1.0080           
    1417 A    978  ETH  C1   CG3310  -0.270000       12.0110           
    1418 A    978  ETH  C2   CG3310  -0.270000       12.0110           
    1419 A    978  ETH  H1   HGA30    0.090000        1.0080           
    1420 A    978  ETH  H2   HGA30    0.090000        1.0080           
    1421 A    978  ETH  H3   HGA30    0.090000        1.0080           
    1422 A    978  ETH  H4   HGA30    0.090000        1.0080           
    1423 A    978  ETH  H5   HGA30    0.090000        1.0080           
    1424 A    978  ETH  H6   HGA30    0.090000        1.0080           
    1425 A    979  ETH  C1   CG3310  -0.270000       12.0110           
    1426 A    979  ETH  C2   CG3310  -0.270000       12.0110           
    1427 A    979  ETH  H1   HGA30    0.090000        1.0080           
    1428 A    979  ETH  H2   HGA30    0.090000        1.0080           
    1429 A    979  ETH  H3   HGA30    0.090000        1.0080           
    1430 A    979  ETH  H4   HGA30    0.090000        1.0080           
    1431 A    979  ETH  H5   HGA30    0.090000        1.0080           
    1432 A    979  ETH  H6   HGA30    0.090000        1.0080           
    1433 A    980  ETH  C1   CG3310  -0.270000       12.0110           
    1434 A    980  ETH  C2   CG3310  -0.270000       12.0110           
    1435 A    980  ETH  H1   HGA30    0.090000        1.0080           
    1436 A    980  ETH  H2   HGA30    0.090000        1.0080           
    1437 A    980  ETH  H3   HGA30    0.090000        1.0080           
    1438 A    980  ETH  H4   HGA30    0.090000        1.0080           
    1439 A    980  ETH  H5   HGA30    0.090000        1.0080           
    1440 A    980  ETH  H6   HGA30    0.090000        1.0080           
    1441 A    981  ETH  C1   CG3310  -0.270000       12.0110           
    1442 A    981  ETH  C2   CG3310  -0.270000       12.0110           
    1443 A    981  ETH  H1   HGA30    0.090000        1.0080           
    1444 A    981  ETH  H2   HGA30    0.090000        1.0080           
    1445 A    981  ETH  H3   HGA30    0.090000        1.0080           
    1446 A    981  ETH  H4   HGA30    0.090000        1.0080           
    1447 A    981  ETH  H5   HGA30    0.090000        1.0080           
    1448 A    981  ETH  H6   HGA30    0.090000        1.0080           
    1449 A    982  ETH  C1   CG3310  -0.270000       12.0110           
    1450 A    982  ETH  C2   CG3310  -0.270000       12.0110           
    1451 A    982  ETH  H1   HGA30    0.090000        1.0080           
    1452 A    982  ETH  H2   HGA30    0.090000        1.0080           
    1453 A    982  ETH  H3   HGA30    0.090000        1.0080           
    1454 A    982  ETH  H4   HGA30    0.090000        1.0080           
    1455 A    982  ETH  H5   HGA30    0.090000        1.0080           
    1456 A    982  ETH  H6   HGA30    0.090000        1.0080           
    1457 A    983  ETH  C1   CG3310  -0.270000       12.0110           
    1458 A    983  ETH  C2   CG3310  -0.270000       12.0110           
    1459 A    983  ETH  H1   HGA30    0.090000        1.0080           
    1460 A    983  ETH  H2   HGA30    0.090000        1.0080           
    1461 A    983  ETH  H3   HGA30    0.090000        1.0080           
    1462 A    983  ETH  H4   HGA30    0.090000        1.0080           
    1463 A    983  ETH  H5   HGA30    0.090000        1.0080           
    1464 A    983  ETH  H6   HGA30    0.090000        1.0080           
    1465 A    984  ETH  C1   CG3310  -0.270000       12.0110           
    1466 A    984  ETH  C2   CG3310  -0.270000       12.0110           
    1467 A    984  ETH  H1   HGA30    0.090000        1.0080           
    1468 A    984  ETH  H2   HGA30    0.090000        1.0080           
    1469 A    984  ETH  H3   HGA30    0.090000        1.0080           
    1470 A    984  ETH  H4   HGA30    0.090000        1.0080           
    1471 A    984  ETH  H5   HGA30    0.090000        1.0080           
    1472 A    984  ETH  H6   HGA30    0.090000        1.0080           
    1473 A    985  ETH  C1   CG3310  -0.270000       12.0110           
    1474 A    985  ETH  C2   CG3310  -0.270000       12.0110           
    1475 A    985  ETH  H1   HGA30    0.090000        1.0080           
    1476 A    985  ETH  H2   HGA30    0.090000        1.0080           
    1477 A    985  ETH  H3   HGA30    0.090000        1.0080           
    1478 A    985  ETH  H4   HGA30    0.090000        1.0080           
    1479 A    985  ETH  H5   HGA30    0.090000        1.0080           
    1480 A    985  ETH  H6   HGA30    0.090000        1.0080           
    1481 A    986  ETH  C1   CG3310  -0.270000       12.0110           
    1482 A    986  ETH  C2   CG3310  -0.270000       12.0110           
    1483 A    986  ETH  H1   HGA30    0.090000        1.0080           
    1484 A    986  ETH  H2   HGA30    0.090000        1.0080           
    1485 A    986  ETH  H3   HGA30    0.090000        1.0080           
    1486 A    986  ETH  H4   HGA30    0.090000        1.0080           
    1487 A    986  ETH  H5   HGA30    0.090000        1.0080           
    1488 A    986  ETH  H6   HGA30    0.090000        1.0080           
    1489 A    987  ETH  C1   CG3310  -0.270000       12.0110           
    1490 A    987  ETH  C2   CG3310  -0.270000       12.0110           
    1491 A    987  ETH  H1   HGA30    0.090000        1.0080           
    1492 A    987  ETH  H2   HGA30    0.090000        1.0080           
    1493 A    987  ETH  H3   HGA30    0.090000        1.0080           
    1494 A    987  ETH  H4   HGA30    0.090000        1.0080           
    1495 A    987  ETH  H5   HGA30    0.090000        1.0080           
    1496 A    987  ETH  H6   HGA30    0.090000        1.0080           
    1497 A    988  ETH  C1   CG3310  -0.270000       12.0110           
    1498 A    988  ETH  C2   CG3310  -0.270000       12.0110           
    1499 A    988  ETH  H1   HGA30    0.090000        1.0080           
    1500 A    988  ETH  H2   HGA30    0.090000        1.0080           
    1501 A    988  ETH  H3   HGA30    0.090000        1.0080           
    1502 A    988  ETH  H4   HGA30    0.090000        1.0080           
    1503 A    988  ETH  H5   HGA30    0.090000        1.0080           
    1504 A    988  ETH  H6   HGA30    0.090000        1.0080           
    1505 A    989  ETH  C1   CG3310  -0.270000       12.0110           
    1506 A    989  ETH  C2   CG3310  -0.270000       12.0110           
    1507 A    989  ETH  H1   HGA30    0.090000        1.0080           
    1508 A    989  ETH  H2   HGA30    0.090000        1.0080           
    1509 A    989  ETH  H3   HGA30    0.090000        1.0080           
    1510 A    989  ETH  H4   HGA30    0.090000        1.0080           
    1511 A    989  ETH  H5   HGA30    0.090000        1.0080           
    1512 A    989  ETH  H6   HGA30    0.090000        1.0080           
    1513 A    990  ETH  C1   CG3310  -0.270000       12.0110           
    1514 A    990  ETH  C2   CG3310  -0.270000       12.0110           
    1515 A    990  ETH  H1   HGA30    0.090000        1.0080           
    1516 A    990  ETH  H2   HGA30    0.090000        1.0080           
    1517 A    990  ETH  H3   HGA30    0.090000        1.0080           
    1518 A    990  ETH  H4   HGA30    0.090000        1.0080           
    1519 A    990  ETH  H5   HGA30    0.090000        1.0080           
    1520 A    990  ETH  H6   HGA30    0.090000        1.0080           
    1521 A    991  ETH  C1   CG3310  -0.270000       12.0110           
    1522 A    991  ETH  C2   CG3310  -0.270000       12.0110           
    1523 A    991  ETH  H1   HGA30    0.090000        1.0080           
    1524 A    991  ETH  H2   HGA30    0.090000        1.0080           
    1525 A    991  ETH  H3   HGA30    0.090000        1.0080           
    1526 A    991  ETH  H4   HGA30    0.090000        1.0080           
    1527 A    991  ETH  H5   HGA30    0.090000        1.0080           
    1528 A    991  ETH  H6   HGA30    0.090000        1.0080           
    1529 A    992  ETH  C1   CG3310  -0.270000       12.0110           
    1530 A    992  ETH  C2   CG3310  -0.270000       12.0110           
    1531 A    992  ETH  H1   HGA30    0.090000        1.0080           
    1532 A    992  ETH  H2   HGA30    0.090000        1.0080           
    1533 A    992  ETH  H3   HGA30    0.090000        1.0080           
    1534 A    992  ETH  H4   HGA30    0.090000        1.0080           
    1535 A    992  ETH  H5   HGA30    0.090000        1.0080           
    1536 A    992  ETH  H6   HGA30    0.090000        1.0080           
    1537 A    993  ETH  C1   CG3310  -0.270000       12.0110           
    1538 A    993  ETH  C2   CG3310  -0.270000       12.0110           
    1539 A    993  ETH  H1   HGA30    0.090000        1.0080           
    1540 A    993  ETH  H2   HGA30    0.090000        1.0080           
    1541 A    993  ETH  H3   HGA30    0.090000        1.0080           
    1542 A    993  ETH  H4   HGA30    0.090000        1.0080           
    1543 A    993  ETH  H5   HGA30    0.090000        1.0080           
    1544 A    993  ETH  H6   HGA30    0.090000        1.0080           
    1545 A    994  ETH  C1   CG3310  -0.270000       12.0110           
    1546 A    994  ETH  C2   CG3310  -0.270000       12.0110           
    1547 A    994  ETH  H1   HGA30    0.090000        1.0080           
    1548 A    994  ETH  H2   HGA30    0.090000        1.0080           
    1549 A    994  ETH  H3   HGA30    0.090000        1.0080           
    1550 A    994  ETH  H4   HGA30    0.090000        1.0080           
    1551 A    994  ETH  H5   HGA30    0.090000        1.0080           
    1552 A    994  ETH  H6   HGA30    0.090000        1.0080           
    1553 A    995  ETH  C1   CG3310  -0.270000       12.0110           
    1554 A    995  ETH  C2   CG3310  -0.270000       12.0110           
    1555 A    995  ETH  H1   HGA30    0.090000        1.0080           
    1556 A    995  ETH  H2   HGA30    0.090000        1.0080           
    1557 A    995  ETH  H3   HGA30    0.090000        1.0080           
    1558 A    995  ETH  H4   HGA30    0.090000        1.0080           
    1559 A    995  ETH  H5   HGA30    0.090000        1.0080           
    1560 A    995  ETH  H6   HGA30    0.090000        1.0080           
    1561 A    996  ETH  C1   CG3310  -0.270000       12.0110           
    1562 A    996  ETH  C2   CG3310  -0.270000       12.0110           
    1563 A    996  ETH  H1   HGA30    0.090000        1.0080           
    1564 A    996  ETH  H2   HGA30    0.090000        1.0080           
    1565 A    996  ETH  H3   HGA30    0.090000        1.0080           
    1566 A    996  ETH  H4   HGA30    0.090000        1.0080           
    1567 A    996  ETH  H5   HGA30    0.090000        1.0080           
    1568 A    996  ETH  H6   HGA30    0.090000        1.0080           
    1569 A    997  ETH  C1   CG3310  -0.270000       12.0110           
    1570 A    997  ETH  C2   CG3310  -0.270000       12.0110           
    1571 A    997  ETH  H1   HGA30    0.090000        1.0080           
    1572 A    997  ETH  H2   HGA30    0.090000        1.0080           
    1573 A    997  ETH  H3   HGA30    0.090000        1.0080           
    1574 A    997  ETH  H4   HGA30    0.090000        1.0080           
    1575 A    997  ETH  H5   HGA30    0.090000        1.0080           
    1576 A    997  ETH  H6   HGA30    0.090000        1.0080           
    1577 A    998  ETH  C1   CG3310  -0.270000       12.0110           
    1578 A    998  ETH  C2   CG3310  -0.270000       12.0110           
    1579 A    998  ETH  H1   HGA30    0.090000        1.0080           
    1580 A    998  ETH  H2   HGA30    0.090000        1.0080           
    1581 A    998  ETH  H3   HGA30    0.090000        1.0080           
    1582 A    998  ETH  H4   HGA30    0.090000        1.0080           
    1583 A    998  ETH  H5   HGA30    0.090000        1.0080           
    1584 A    998  ETH  H6   HGA30    0.090000        1.0080           
    1585 A    999  ETH  C1   CG3310  -0.270000       12.0110           
    1586 A    999  ETH  C2   CG3310  -0.270000       12.0110           
    1587 A    999  ETH  H1   HGA30    0.090000        1.0080           
    1588 A    999  ETH  H2   HGA30    0.090000        1.0080           
    1589 A    999  ETH  H3   HGA30    0.090000        1.0080           
    1590 A    999  ETH  H4   HGA30    0.090000        1.0080           
    1591 A    999  ETH  H5   HGA30    0.090000        1.0080           
    1592 A    999  ETH  H6   HGA30    0.090000        1.0080           
    1593 A    1000 ETH  C1   CG3310  -0.270000       12.0110           
    1594 A    1000 ETH  C2   CG3310  -0.270000       12.0110           
    1595 A    1000 ETH  H1   HGA30    0.090000        1.0080           
    1596 A    1000 ETH  H2   HGA30    0.090000        1.0080           
    1597 A    1000 ETH  H3   HGA30    0.090000        1.0080           
    1598 A    1000 ETH  H4   HGA30    0.090000        1.0080           
    1599 A    1000 ETH  H5   HGA30    0.090000        1.0080           
    1600 A    1000 ETH  H6   HGA30    0.090000        1.0080           

    1400 !NBOND: bonds
       1       4       2       1       1       5       1       3
       2       7       2       8       2       6       9      12
      10       9       9      13       9      11      10      15
      10      16      10      14      17      20      18      17
      17      21      17      19      18      23      18      24
      18      22      25      28      26      25      25      29
      25      27      26      31      26      32      26      30
      33      36      34      33      33      37      33      35
      34      39      34      40      34      38      41      44
      42      41      41      45      41      43      42      47
      42      48      42      46      49      52      50      49
      49      53      49      51      50      55      50      56
      50      54      57      60      58      57      57      61
      57      59      58      63      58      64      58      62
      65      68      66      65      65      69      65      67
      66      71      66      72      66      70      73      76
      74      73      73      77      73      75      74      79
      74      80      74      78      81      84      82      81
      81      85      81      83      82      87      82      88
      82      86      89      92      90      89      89      93
      89      91      90      95      90      96      90      94
      97     100      98      97      97     101      97      99
      98     103      98     104      98     102     105     108
     106     105     105     109     105     107     106     111
     106     112     106     110     113     116     114     113
     113     117     113     115     114     119     114     120
     114     118     121     124     122     121     121     125
     121     123     122     127     122     128     122     126
     129     132     130     129     129     133     129     131
     130     135     130     136     130     134     137     140
     138     137     137     141     137     139     138     143
     138     144     138     142     145     148     146     145
     145     149     145     147     146     151     146     152
     146     150     153     156     154     153     153     157
     153     155     154     159     154     160     154     158
     161     164     162     161     161     165     161     163
     162     167     162     168     162     166     169     172
     170     169     169     173     169     171     170     175
     170     176     170     174     177     180     178     177
     177     181     177     179     178     183     178     184
     178     182     185     188     186     185     185     189
     185     187     186     191     186     192     186     190
     193     196     194     193     193     197     193     195
     194     199     194     200     194     198     201     204
     202     201     201     205     201     203     202     207
     202     208     202     206     209     212     210     209
     209     213     209     211     210     215     210     216
     210     214     217     220     218     217     217     221
     217     219     218     223     218     224     218     222
     225     228     226     225     225     229     225     227
     226     231     226     232     226     230     233     236
     234     233     233     237     233     235     234     239
     234     240     234     238     241     244     242     241
     241     245     241     243     242     247     242     248
     242     246     249     252     250     249     249     253
     249     251     250     255     250     256     250     254
     257     260     258     257     257     261     257     259
     258     263     258     264     258     262     265     268
     266     265     265     269     265     267     266     271
     266     272     266     270     273     276     274     273
     273     277     273     275     274     279     274     280
     274     278     281     284     282     281     281     285
     281     283     282     287     282     288     282     286
     289     292     290     289     289     293     289     291
     290     295     290     296     290     294     297     300
     298     297     297     301     297     299     298     303
     298     304     298     302     305     308     306     305
     305     309     305     307     306     311     306     312
     306     310     313     316     314     313     313     317
     313     315     314     319     314     320     314     318
     321     324     322     321     321     325     321     323
     322     327     322     328     322     326     329     332
     330     329     329     333     329     331     330     335
     330     336     330     334     337     340     338     337
     337     341     337     339     338     343     338     344
     338     342     345     348     346     345     345     349
     345     347     346     351     346     352     346     350
     353     356     354     353     353     357     353     355
     354     359     354     360     354     358     361     364
     362     361     361     365     361     363     362     367
     362     368     362     366     369     372     370     369
     369     373     369     371     370     375     370     376
     370     374     377     380     378     377     377     381
     377     379     378     383     378     384     378     382
     385     388     386     385     385     389     385     387
     386     391     386     392     386     390     393     396
     394     393     393     397     393     395     394     399
     394     400     394     398     401     404     402     401
     401     405     401     403     402     407     402     408
     402     406     409     412     410     409     409     413
     409     411     410     415     410     416     410     414
     417     420     418     417     417     421     417     419
     418     423     418     424     418     422     425     428
     426     425     425     429     425     427     426     431
     426     432     426     430     433     436     434     433
     433     437     433     435     434     439     434     440
     434     438     441     444     442     441     441     445
     441     443     442     447     442     448     442     446
     449     452     450     449     449     453     449     451
     450     455     450     456     450     454     457     460
     458     457     457     461     457     459     458     463
     458     464     458     462     465     468     466     465
     465     469     465     467     466     471     466     472
     466     470     473     476     474     473     473     477
     473     475     474     479     474     480     474     478
     481     484     482     481     481     485     481     483
     482     487     482     488     482     486     489     492
     490     489     489     493     489     491     490     495
     490     496     490     494     497     500     498     497
     497     501     497     499     498     503     498     504
     498     502     505     508     506     505     505     509
     505     507     506     511     506     512     506     510
     513     516     514     513     513     517     513     515
     514     519     514     520     514     518     521     524
     522     521     521     525     521     523     522     527
     522     528     522     526     529     532     530     529
     529     533     529     531     530     535     530     536
     530     534     537     540     538     537     537     541
     537     539     538     543     538     544     538     542
     545     548     546     545     545     549     545     547
     546     551     546     552     546     550     553     556
     554     553     553     557     553     555     554     559
     554     560     554     558     561     564     562     561
     561     565     561     563     562     567     562     568
     562     566     569     572     570     569     569     573
     569     571     570     575     570     576     570     574
     577     580     578     577     577     581     577     579
     578     583     578     584     578     582     585     588
     586     585     585     589     585     587     586     591
     586     592     586     590     593     596     594     593
     593     597     593     595     594     599     594     600
     594     598     601     604     602     601     601     605
     601     603     602     607     602     608     602     606
     609     612     610     609     609     613     609     611
     610     615     610     616     610     614     617     620
     618     617     617     621     617     619     618     623
     618     624     618     622     625     628     626     625
     625     629     625     627     626     631     626     632
     626     630     633     636     634     633     633     637
     633     635     634     639     634     640     634     638
     641     644     642     641     641     645     641     643
     642     647     642     648     642     646     649     652
     650     649     649     653     649     651     650     655
     650     656     650     654     657     660     658     657
     657     661     657     659     658     663     658     664
     658     662     665     668     666     665     665     669
     665     667     666     671     666     672     666     670
     673     676     674     673     673     677     673     675
     674     679     674     680     674     678     681     684
     682     681     681     685     681     683     682     687
     682     688     682     686     689     692     690     689
     689     693     689     691     690     695     690     696
     690     694     697     700     698     697     697     701
     697     699     698     703     698     704     698     702
     705     708     706     705     705     709     705     707
     706     711     706     712     706     710     713     716
     714     713     713     717     713     715     714     719
     714     720     714     718     721     724     722     721
     721     725     721     723     722     727     722     728
     722     726     729     732     730     729     729     733
     729     731     730     735     730     736     730     734
     737     740     738     737     737     741     737     739
     738     743     738     744     738     742     745     748
     746     745     745     749     745     747     746     751
     746     752     746     750     753     756     754     753
     753     757     753     755     754     759     754     760
     754     758     761     764     762     761     761     765
     761     763     762     767     762     768     762     766
     769     772     770     769     769     773     769     771
     770     775     770     776     770     774     777     780
     778     777     777     781     777     779     778     783
     778     784     778     782     785     788     786     785
     785     789     785     787     786     791     786     792
     786     790     793     796     794     793     793     797
     793     795     794     799     794     800     794     798
     801     804     802     801     801     805     801     803
     802     807     802     808     802     806     809     812
     810     809     809     813     809     811     810     815
     810     816     810     814     817     820     818     817
     817     821     817     819     818     823     818     824
     818     822     825     828     826     825     825     829
     825     827     826     831     826     832     826     830
     833     836     834     833     833     837     833     835
     834     839     834     840     834     838     841     844
     842     841     841     845     841     843     842     847
     842     848     842     846     849     852     850     849
     849     853     849     851     850     855     850     856
     850     854     857     860     858     857     857     861
     857     859     858     863     858     864     858     862
     865     868     866     865     865     869     865     867
     866     871     866     872     866     870     873     876
     874     873     873     877     873     875     874     879
     874     880     874     878     881     884     882     881
     881     885     881     883     882     887     882     888
     882     886     889     892     890     889     889     893
     889     891     890     895     890     896     890     894
     897     900     898     897     897     901     897     899
     898     903     898     904     898     902     905     908
     906     905     905     909     905     907     906     911
     906     912     906     910     913     916     914     913
     913     917     913     915     914     919     914     920
     914     918     921     924     922     921     921     925
     921     923     922     927     922     928     922     926
     929     932     930     929     929     933     929     931
     930     935     930     936     930     934     937     940
     938     937     937     941     937     939     938     943
     938     944     938     942     945     948     946     945
     945     949     945     947     946     951     946     952
     946     950     953     956     954     953     953     957
     953     955     954     959     954     960     954     958
     961     964     962     961     961     965     961     963
     962     967     962     968     962     966     969     972
     970     969     969     973     969     971     970     975
     970     976     970     974     977     980     978     977
     977     981     977     979     978     983     978     984
     978     982     985     988     986     985     985     989
     985     987     986     991     986     992     986     990
     993     996     994     993     993     997     993     995
     994     999     994    1000     994     998    1001    1004
    1002    1001    1001    1005    1001    1003    1002    1007
    1002    1008    1002    1006    1009    1012    1010    1009
    1009    1013    1009    1011    1010    1015    1010    1016
    1010    1014    1017    1020    1018    1017    1017    1021
    1017    1019    1018    1023    1018    1024    1018    1022
    1025    1028    1026    1025    1025    1029    1025    1027
    1026    1031    1026    1032    1026    1030    1033    1036
    1034    1033    1033    1037    1033    1035    1034    1039
    1034    1040    1034    1038    1041    1044    1042    1041
    1041    1045    1041    1043    1042    1047    1042    1048
    1042    1046    1049    1052    1050    1049    1049    1053
    1049    1051    1050    1055    1050    1056    1050    1054
    1057    1060    1058    1057    1057    1061    1057    1059
    1058    1063    1058    1064    1058    1062    1065    1068
    1066    1065    1065    1069    1065    1067    1066    1071
    1066    1072    1066    1070    1073    1076    1074    1073
    1073    1077    1073    1075    1074    1079    1074    1080
    1074    1078    1081    1084    1082    1081    1081    1085
    1081    1083    1082    1087    1082    1088    1082    1086
    1089    1092    1090    1089    1089    1093    1089    1091
    1090    1095    1090    1096    1090    1094    1097    1100
    1098    1097    1097    1101    1097    1099    1098    1103
    1098    1104    1098    1102    1105    1108    1106    1105
    1105    1109    1105    1107    1106    1111    1106    1112
    1106    1110    1113    1116    1114    1113    1113    1117
    1113    1115    1114    1119    1114    1120    1114    1118
    1121    1124    1122    1121    1121    1125    1121    1123
    1122    1127    1122    1128    1122    1126    1129    1132
    1130    1129    1129    1133    1129    1131    1130    1135
    1130    1136    1130    1134    1137    1140    1138    1137
    1137    1141    1137    1139    1138    1143    1138    1144
    1138    1142    1145    1148    1146    1145    1145    1149
    1145    1147    1146    1151    1146    1152    1146    1150
    1153    1156    1154    1153    1153    1157    1153    1155
    1154    1159    1154    1160    1154    1158    1161    1164
    1162    1161    1161    1165    1161    1163    1162    1167
    1162    1168    1162    1166    1169    1172    1170    1169
    1169    1173    1169    1171    1170    1175    1170    1176
    1170    1174    1177    1180    1178    1177    1177    1181
    1177    1179    1178    1183    1178    1184    1178    1182
    1185    1188    1186    1185    1185    1189    1185    1187
    1186    1191    1186    1192    1186    1190    1193    1196
    1194    1193    1193    1197    1193    1195    1194    1199
    1194    1200    1194    1198    1201    1204    1202    1201
    1201    1205    1201    1203    1202    1207    1202    1208
    1202    1206    1209    1212    1210    1209    1209    1213
    1209    1211    1210    1215    1210    1216    1210    1214
    1217    1220    1218    1217    1217    1221    1217    1219
    1218    1223    1218    1224    1218    1222    1225    1228
    1226    1225    1225    1229    1225    1227    1226    1231
    1226    1232    1226    1230    1233    1236    1234    1233
    1233    1237    1233    1235    1234    1239    1234    1240
    1234    1238    1241    1244    1242    1241    1241    1245
    1241    1243    1242    1247    1242    1248    1242    1246
    1249    1252    1250    1249    1249    1253    1249    1251
    1250    1255    1250    1256    1250    1254    1257    1260
    1258    1257    1257    1261    1257    1259    1258    1263
    1258    1264    1258    1262    1265    1268    1266    1265
    1265    1269    1265    1267    1266    1271    1266    1272
    1266    1270    1273    1276    1274    1273    1273    1277
    1273    1275    1274    1279    1274    1280    1274    1278
    1281    1284    1282    1281    1281    1285    1281    1283
    1282    1287    1282    1288    1282    1286    1289    1292
    1290    1289    1289    1293    1289    1291    1290    1295
    1290    1296    1290    1294    1297    1300    1298    1297
    1297    1301    1297    1299    1298    1303    1298    1304
    1298    1302    1305    1308    1306    1305    1305    1309
    1305    1307    1306    1311    1306    1312    1306    1310
    1313    1316    1314    1313    1313    1317    1313    1315
    1314    1319    1314    1320    1314    1318    1321    1324
    1322    1321    1321    1325    1321    1323    1322    1327
    1322    1328    1322    1326    1329    1332    1330    1329
    1329    1333    1329    1331    1330    1335    1330    1336
    1330    1334    1337    1340    1338    1337    1337    1341
    1337    1339    1338    1343    1338    1344    1338    1342
    1345    1348    1346    1345    1345    1349    1345    1347
    1346    1351    1346    1352    1346    1350    1353    1356
    1354    1353    1353    1357    1353    1355    1354    1359
    1354    1360    1354    1358    1361    1364    1362    1361
    1361    1365    1361    1363    1362    1367    1362    1368
    1362    1366    1369    1372    1370    1369    1369    1373
    1369    1371    1370    1375    1370    1376    1370    1374
    1377    1380    1378    1377    1377    1381    1377    1379
    1378    1383    1378    1384    1378    1382    1385    1388
    1386    1385    1385    1389    1385    1387    1386    1391
    1386    1392    1386    1390    1393    1396    1394    1393
    1393    1397    1393    1395    1394    1399    1394    1400
    1394    1398    1401    1404    1402    1401    1401    1405
    1401    1403    1402    1407    1402    1408    1402    1406
    1409    1412    1410    1409    1409    1413    1409    1411
    1410    1415    1410    1416    1410    1414    1417    1420
    1418    1417    1417    1421    1417    1419    1418    1423
    1418    1424    1418    1422    1425    1428    1426    1425
    1425    1429    1425    1427    1426    1431    1426    1432
    1426    1430    1433    1436    1434    1433    1433    1437
    1433    1435    1434    1439    1434    1440    1434    1438
    1441    1444    1442    1441    1441    1445    1441    1443
    1442    1447    1442    1448    1442    1446    1449    1452
    1450    1449    1449    1453    1449    1451    1450    1455
    1450    1456    1450    1454    1457    1460    1458    1457
    1457    1461    1457    1459    1458    1463    1458    1464
    1458    1462    1465    1468    1466    1465    1465    1469
    1465    1467    1466    1471    1466    1472    1466    1470
    1473    1476    1474    1473    1473    1477    1473    1475
    1474    1479    1474    1480    1474    1478    1481    1484
    1482    1481    1481    1485    1481    1483    1482    1487
    1482    1488    1482    1486    1489    1492    1490    1489
    1489    1493    1489    1491    1490    1495    1490    1496
    1490    1494    1497    1500    1498    1497    1497    1501
    1497    1499    1498    1503    1498    1504    1498    1502
    1505    1508    1506    1505    1505    1509    1505    1507
    1506    1511    1506    1512    1506    1510    1513    1516
    1514    1513    1513    1517    1513    1515    1514    1519
    1514    1520    1514    1518    1521    1524    1522    1521
    1521    1525    1521    1523    1522    1527    1522    1528
    1522    1526    1529    1532    1530    1529    1529    1533
    1529    1531    1530    1535    1530    1536    1530    1534
    1537    1540    1538    1537    1537    1541    1537    1539
    1538    1543    1538    1544    1538    1542    1545    1548
    1546    1545    1545    1549    1545    1547    1546    1551
    1546    1552    1546    1550    1553    1556    1554    1553
    1553    1557    1553    1555    1554    1559    1554    1560
    1554    1558    1561    1564    1562    1561    1561    1565
    1561    1563    1562    1567    1562    1568    1562    1566
    1569    1572    1570    1569    1569    1573    1569    1571
    1570    1575    1570    1576    1570    1574    1577    1580
    1578    1577    1577    1581    1577    1579    1578    1583
    1578    1584    1578    1582    1585    1588    1586    1585
    1585    1589    1585    1587    1586    1591    1586    1592
    1586    1590    1593    1596    1594    1593    1593    1597
    1593    1595    1594    1599    1594    1600    1594    1598

    2400 !NTHETA: angles
       2       1       3       2       1       4       2       1       5
       4       1       3       5       1       3       5       1       4
       1       2       6       1       2       7       1       2       8
       7       2       6       8       2       6       8       2       7
      10       9      11      10       9      12      10       9      13
      12       9      11      13       9      11      13       9      12
       9      10      14       9      10      15       9      10      16
      15      10      14      16      10      14      16      10      15
      18      17      19      18      17      20      18      17      21
      20      17      19      21      17      19      21      17      20
      17      18      22      17      18      23      17      18      24
      23      18      22      24      18      22      24      18      23
      26      25      27      26      25      28      26      25      29
      28      25      27      29      25      27      29      25      28
      25      26      30      25      26      31      25      26      32
      31      26      30      32      26      30      32      26      31
      34      33      35      34      33      36      34      33      37
      36      33      35      37      33      35      37      33      36
      33      34      38      33      34      39      33      34      40
      39      34      38      40      34      38      40      34      39
      42      41      43      42      41      44      42      41      45
      44      41      43      45      41      43      45      41      44
      41      42      46      41      42      47      41      42      48
      47      42      46      48      42      46      48      42      47
      50      49      51      50      49      52      50      49      53
      52      49      51      53      49      51      53      49      52
      49      50      54      49      50      55      49      50      56
      55      50      54      56      50      54      56      50      55
      58      57      59      58      57      60      58      57      61
      60      57      59      61      57      59      61      57      60
      57      58      62      57      58      63      57      58      64
      63      58      62      64      58      62      64      58      63
      66      65      67      66      65      68      66      65      69
      68      65      67      69      65      67      69      65      68
      65      66      70      65      66      71      65      66      72
      71      66      70      72      66      70      72      66      71
      74      73      75      74      73      76      74      73      77
      76      73      75      77      73      75      77      73      76
      73      74      78      73      74      79      73      74      80
      79      74      78      80      74      78      80      74      79
      82      81      83      82      81      84      82      81      85
      84      81      83      85      81      83      85      81      84
      81      82      86      81      82      87      81      82      88
      87      82      86      88      82      86      88      82      87
      90      89      91      90      89      92      90      89      93
      92      89      91      93      89      91      93      89      92
      89      90      94      89      90      95      89      90      96
      95      90      94      96      90      94      96      90      95
      98      97      99      98      97     100      98      97     101
     100      97      99     101      97      99     101      97     100
      97      98     102      97      98     103      97      98     104
     103      98     102     104      98     102     104      98     103
     106     105     107     106     105     108     106     105     109
     108     105     107     109     105     107     109     105     108
     105     106     110     105     106     111     105     106     112
     111     106     110     112     106     110     112     106     111
     114     113     115     114     113     116     114     113     117
     116     113     115     117     113     115     117     113     116
     113     114     118     113     114     119     113     114     120
     119     114     118     120     114     118     120     114     119
     122     121     123     122     121     124     122     121     125
     124     121     123     125     121     123     125     121     124
     121     122     126     121     122     127     121     122     128
     127     122     126     128     122     126     128     122     127
     130     129     131     130     129     132     130     129     133
     132     129     131     133     129     131     133     129     132
     129     130     134     129     130     135     129     130     136
     135     130     134     136     130     134     136     130     135
     138     137     139     138     137     140     138     137     141
     140     137     139     141     137     139     141     137     140
     137     138     142     137     138     143     137     138     144
     143     138     142     144     138     142     144     138     143
     146     145     147     146     145     148     146     145     149
     148     145     147     149     145     147     149     145     148
     145     146     150     145     146     151     145     146     152
     151     146     150     152     146     150     152     146     151
     154     153     155     154     153     156     154     153     157
     156     153     155     157     153     155     157     153     156
     153     154     158     153     154     159     153     154     160
     159     154     158     160     154     158     160     154     159
     162     161     163     162     161     164     162     161     165
     164     161     163     165     161     163     165     161     164
     161     162     166     161     162     167     161     162     168
     167     162     166     168     162     166     168     162     167
     170     169     171     170     169     172     170     169     173
     172     169     171     173     169     171     173     169     172
     169     170     174     169     170     175     169     170     176
     175     170     174     176     170     174     176     170     175
     178     177     179     178     177     180     178     177     181
     180     177     179     181     177     179     181     177     180
     177     178     182     177     178     183     177     178     184
     183     178     182     184     178     182     184     178     183
     186     185     187     186     185     188     186     185     189
     188     185     187     189     185     187     189     185     188
     185     186     190     185     186     191     185     186     192
     191     186     190     192     186     190     192     186     191
     194     193     195     194     193     196     194     193     197
     196     193     195     197     193     195     197     193     196
     193     194     198     193     194     199     193     194     200
     199     194     198     200     194     198     200     194     199
     202     201     203     202     201     204     202     201     205
     204     201     203     205     201     203     205     201     204
     201     202     206     201     202     207     201     202     208
     207     202     206     208     202     206     208     202     207
     210     209     211     210     209     212     210     209     213
     212     209     211     213     209     211     213     209     212
     209     210     214     209     210     215     209     210     216
     215     210     214     216     210     214     216     210     215
     218     217     219     218     217     220     218     217     221
     220     217     219     221     217     219     221     217     220
     217     218     222     217     218     223     217     218     224
     223     218     222     224     218     222     224     218     223
     226     225     227     226     225     228     226     225     229
     228     225     227     229     225     227     229     225     228
     225     226     230     225     226     231     225     226     232
     231     226     230     232     226     230     232     226     231
     234     233     235     234     233     236     234     233     237
     236     233     235     237     233     235     237     233     236
     233     234     238     233     234     239     233     234     240
     239     234     238     240     234     238     240     234     239
     242     241     243     242     241     244     242     241     245
     244     241     243     245     241     243     245     241     244
     241     242     246     241     242     247     241     242     248
     247     242     246     248     242     246     248     242     247
     250     249     251     250     249     252     250     249     253
     252     249     251     253     249     251     253     249     252
     249     250     254     249     250     255     249     250     256
     255     250     254     256     250     254     256     250     255
     258     257     259     258     257     260     258     257     261
     260     257     259     261     257     259     261     257     260
     257     258     262     257     258     263     257     258     264
     263     258     262     264     258     262     264     258     263
     266     265     267     266     265     268     266     265     269
     268     265     267     269     265     267     269     265     268
     265     266     270     265     266     271     265     266     272
     271     266     270     272     266     270     272     266     271
     274     273     275     274     273     276     274     273     277
     276     273     275     277     273     275     277     273     276
     273     274     278     273     274     279     273     274     280
     279     274     278     280     274     278     280     274     279
     282     281     283     282     281     284     282     281     285
     284     281     283     285     281     283     285     281     284
     281     282     286     281     282     287     281     282     288
     287     282     286     288     282     286     288     282     287
     290     289     291     290     289     292     290     289     293
     292     289     291     293     289     291     293     289     292
     289     290     294     289     290     295     289     290     296
     295     290     294     296     290     294     296     290     295
     298     297     299     298     297     300     298     297     301
     300     297     299     301     297     299     301     297     300
     297     298     302     297     298     303     297     298     304
     303     298     302     304     298     302     304     298     303
     306     305     307     306     305     308     306     305     309
     308     305     307     309     305     307     309     305     308
     305     306     310     305     306     311     305     306     312
     311     306     310     312     306     310     312     306     311
     314     313     315     314     313     316     314     313     317
     316     313     315     317     313     315     317     313     316
     313     314     318     313     314     319     313     314     320
     319     314     318     320     314     318     320     314     319
     322     321     323     322     321     324     322     321     325
     324     321     323     325     321     323     325     321     324
     321     322     326     321     322     327     321     322     328
     327     322     326     328     322     326     328     322     327
     330     329     331     330     329     332     330     329     333
     332     329     331     333     329     331     333     329     332
     329     330     334     329     330     335     329     330     336
     335     330     334     336     330     334     336     330     335
     338     337     339     338     337     340     338     337     341
     340     337     339     341     337     339     341     337     340
     337     338     342     337     338     343     337     338     344
     343     338     342     344     338     342     344     338     343
     346     345     347     346     345     348     346     345     349
     348     345     347     349     345     347     349     345     348
     345     346     350     345     346     351     345     346     352
     351     346     350     352     346     350     352     346     351
     354     353     355     354     353     356     354     353     357
     356     353     355     357     353     355     357     353     356
     353     354     358     353     354     359     353     354     360
     359     354     358     360     354     358     360     354     359
     362     361     363     362     361     364     362     361     365
     364     361     363     365     361     363     365     361     364
     361     362     366     361     362     367     361     362     368
     367     362     366     368     362     366     368     362     367
     370     369     371     370     369     372     370     369     373
     372     369     371     373     369     371     373     369     372
     369     370     374     369     370     375     369     370     376
     375     370     374     376     370     374     376     370     375
     378     377     379     378     377     380     378     377     381
     380     377     379     381     377     379     381     377     380
     377     378     382     377     378     383     377     378     384
     383     378     382     384     378     382     384     378     383
     386     385     387     386     385     388     386     385     389
     388     385     387     389     385     387     389     385     388
     385     386     390     385     386     391     385     386     392
     391     386     390     392     386     390     392     386     391
     394     393     395     394     393     396     394     393     397
     396     393     395     397     393     395     397     393     396
     393     394     398     393     394     399     393     394     400
     399     394     398     400     394     398     400     394     399
     402     401     403     402     401     404     402     401     405
     404     401     403     405     401     403     405     401     404
     401     402     406     401     402     407     401     402     408
     407     402     406     408     402     406     408     402     407
     410     409     411     410     409     412     410     409     413
     412     409     411     413     409     411     413     409     412
     409     410     414     409     410     415     409     410     416
     415     410     414     416     410     414     416     410     415
     418     417     419     418     417     420     418     417     421
     420     417     419     421     417     419     421     417     420
     417     418     422     417     418     423     417     418     424
     423     418     422     424     418     422     424     418     423
     426     425     427     426     425     428     426     425     429
     428     425     427     429     425     427     429     425     428
     425     426     430     425     426     431     425     426     432
     431     426     430     432     426     430     432     426     431
     434     433     435     434     433     436     434     433     437
     436     433     435     437     433     435     437     433     436
     433     434     438     433     434     439     433     434     440
     439     434     438     440     434     438     440     434     439
     442     441     443     442     441     444     442     441     445
     444     441     443     445     441     443     445     441     444
     441     442     446     441     442     447     441     442     448
     447     442     446     448     442     446     448     442     447
     450     449     451     450     449     452     450     449     453
     452     449     451     453     449     451     453     449     452
     449     450     454     449     450     455     449     450     456
     455     450     454     456     450     454     456     450     455
     458     457     459     458     457     460     458     457     461
     460     457     459     461     457     459     461     457     460
     457     458     462     457     458     463     457     458     464
     463     458     462     464     458     462     464     458     463
     466     465     467     466     465     468     466     465     469
     468     465     467     469     465     467     469     465     468
     465     466     470     465     466     471     465     466     472
     471     466     470     472     466     470     472     466     471
     474     473     475     474     473     476     474     473     477
     476     473     475     477     473     475     477     473     476
     473     474     478     473     474     479     473     474     480
     479     474     478     480     474     478     480     474     479
     482     481     483     482     481     484     482     481     485
     484     481     483     485     481     483     485     481     484
     481     482     486     481     482     487     481     482     488
     487     482     486     488     482     486     488     482     487
     490     489     491     490     489     492     490     489     493
     492     489     491     493     489     491     493     489     492
     489     490     494     489     490     495     489     490     496
     495     490     494     496     490     494     496     490     495
     498     497     499     498     497     500     498     497     501
     500     497     499     501     497     499     501     497     500
     497     498     502     497     498     503     497     498     504
     503     498     502     504     498     502     504     498     503
     506     505     507     506     505     508     506     505     509
     508     505     507     509     505     507     509     505     508
     505     506     510     505     506     511     505     506     512
     511     506     510     512     506     510     512     506     511
     514     513     515     514     513     516     514     513     517
     516     513     515     517     513     515     517     513     516
     513     514     518     513     514     519     513     514     520
     519     514     518     520     514     518     520     514     519
     522     521     523     522     521     524     522     521     525
     524     521     523     525     521     523     525     521     524
     521     522     526     521     522     527     521     522     528
     527     522     526     528     522     526     528     522     527
     530     529     531     530     529     532     530     529     533
     532     529     531     533     529     531     533     529     532
     529     530     534     529     530     535     529     530     536
     535     530     534     536     530     534     536     530     535
     538     537     539     538     537     540     538     537     541
     540     537     539     541     537     539     541     537     540
     537     538     542     537     538     543     537     538     544
     543     538     542     544     538     542     544     538     543
     546     545     547     546     545     548     546     545     549
     548     545     547     549     545     547     549     545     548
     545     546     550     545     546     551     545     546     552
     551     546     550     552     546     550     552     546     551
     554     553     555     554     553     556     554     553     557
     556     553     555     557     553     555     557     553     556
     553     554     558     553     554     559     553     554     560
     559     554     558     560     554     558     560     554     559
     562     561     563     562     561     564     562     561     565
     564     561     563     565     561     563     565     561     564
     561     562     566     561     562     567     561     562     568
     567     562     566     568     562     566     568     562     567
     570     569     571     570     569     572     570     569     573
     572     569     571     573     569     571     573     569     572
     569     570     574     569     570     575     569     570     576
     575     570     574     576     570     574     576     570     575
     578     577     579     578     577     580     578     577     581
     580     577     579     581     577     579     581     577     580
     577     578     582     577     578     583     577     578     584
     583     578     582     584     578     582     584     578     583
     586     585     587     586     585     588     586     585     589
     588     585     587     589     585     587     589     585     588
     585     586     590     585     586     591     585     586     592
     591     586     590     592     586     590     592     586     591
     594     593     595     594     593     596     594     593     597
     596     593     595     597     593     595     597     593     596
     593     594     598     593     594     599     593     594     600
     599     594     598     600     594     598     600     594     599
     602     601     603     602     601     604     602     601     605
     604     601     603     605     601     603     605     601     604
     601     602     606     601     602     607     601     602     608
     607     602     606     608     602     606     608     602     607
     610     609     611     610     609     612     610     609     613
     612     609     611     613     609     611     613     609     612
     609     610     614     609     610     615     609     610     616
     615     610     614     616     610     614     616     610     615
     618     617     619     618     617     620     618     617     621
     620     617     619     621     617     619     621     617     620
     617     618     622     617     618     623     617     618     624
     623     618     622     624     618     622     624     618     623
     626     625     627     626     625     628     626     625     629
     628     625     627     629     625     627     629     625     628
     625     626     630     625     626     631     625     626     632
     631     626     630     632     626     630     632     626     631
     634     633     635     634     633     636     634     633     637
     636     633     635     637     633     635     637     633     636
     633     634     638     633     634     639     633     634     640
     639     634     638     640     634     638     640     634     639
     642     641     643     642     641     644     642     641     645
     644     641     643     645     641     643     645     641     644
     641     642     646     641     642     647     641     642     648
     647     642     646     648     642     646     648     642     647
     650     649     651     650     649     652     650     649     653
     652     649     651     653     649     651     653     649     652
     649     650     654     649     650     655     649     650     656
     655     650     654     656     650     654     656     650     655
     658     657     659     658     657     660     658     657     661
     660     657     659     661     657     659     661     657     660
     657     658     662     657     658     663     657     658     664
     663     658     662     664     658     662     664     658     663
     666     665     667     666     665     668     666     665     669
     668     665     667     669     665     667     669     665     668
     665     666     670     665     666     671     665     666     672
     671     666     670     672     666     670     672     666     671
     674     673     675     674     673     676     674     673     677
     676     673     675     677     673     675     677     673     676
     673     674     678     673     674     679     673     674     680
     679     674     678     680     674     678     680     674     679
     682     681     683     682     681     684     682     681     685
     684     681     683     685     681     683     685     681     684
     681     682     686     681     682     687     681     682     688
     687     682     686     688     682     686     688     682     687
     690     689     691     690     689     692     690     689     693
     692     689     691     693     689     691     693     689     692
     689     690     694     689     690     695     689     690     696
     695     690     694     696     690     694     696     690     695
     698     697     699     698     697     700     698     697     701
     700     697     699     701     697     699     701     697     700
     697     698     702     697     698     703     697     698     704
     703     698     702     704     698     702     704     698     703
     706     705     707     706     705     708     706     705     709
     708     705     707     709     705     707     709     705     708
     705     706     710     705     706     711     705     706     712
     711     706     710     712     706     710     712     706     711
     714     713     715     714     713     716     714     713     717
     716     713     715     717     713     715     717     713     716
     713     714     718     713     714     719     713     714     720
     719     714     718     720     714     718     720     714     719
     722     721     723     722     721     724     722     721     725
     724     721     723     725     721     723     725     721     724
     721     722     726     721     722     727     721     722     728
     727     722     726     728     722     726     728     722     727
     730     729     731     730     729     732     730     729     733
     732     729     731     733     729     731     733     729     732
     729     730     734     729     730     735     729     730     736
     735     730     734     736     730     734     736     730     735
     738     737     739     738     737     740     738     737     741
     740     737     739     741     737     739     741     737     740
     737     738     742     737     738     743     737     738     744
     743     738     742     744     738     742     744     738     743
     746     745     747     746     745     748     746     745     749
     748     745     747     749     745     747     749     745     748
     745     746     750     745     746     751     745     746     752
     751     746     750     752     746     750     752     746     751
     754     753     755     754     753     756     754     753     757
     756     753     755     757     753     755     757     753     756
     753     754     758     753     754     759     753     754     760
     759     754     758     760     754     758     760     754     759
     762     761     763     762     761     764     762     761     765
     764     761     763     765     761     763     765     761     764
     761     762     766     761     762     767     761     762     768
     767     762     766     768     762     766     768     762     767
     770     769     771     770     769     772     770     769     773
     772     769     771     773     769     771     773     769     772
     769     770     774     769     770     775     769     770     776
     775     770     774     776     770     774     776     770     775
     778     777     779     778     777     780     778     777     781
     780     777     779     781     777     779     781     777     780
     777     778     782     777     778     783     777     778     784
     783     778     782     784     778     782     784     778     783
     786     785     787     786     785     788     786     785     789
     788     785     787     789     785     787     789     785     788
     785     786     790     785     786     791     785     786     792
     791     786     790     792     786     790     792     786     791
     794     793     795     794     793     796     794     793     797
     796     793     795     797     793     795     797     793     796
     793     794     798     793     794     799     793     794     800
     799     794     798     800     794     798     800     794     799
     802     801     803     802     801     804     802     801     805
     804     801     803     805     801     803     805     801     804
     801     802     806     801     802     807     801     802     808
     807     802     806     808     802     806     808     802     807
     810     809     811     810     809     812     810     809     813
     812     809     811     813     809     811     813     809     812
     809     810     814     809     810     815     809     810     816
     815     810     814     816     810     814     816     810     815
     818     817     819     818     817     820     818     817     821
     820     817     819     821     817     819     821     817     820
     817     818     822     817     818     823     817     818     824
     823     818     822     824     818     822     824     818     823
     826     825     827     826     825     828     826     825     829
     828     825     827     829     825     827     829     825     828
     825     826     830     825     826     831     825     826     832
     831     826     830     832     826     830     832     826     831
     834     833     835     834     833     836     834     833     837
     836     833     835     837     833     835     837     833     836
     833     834     838     833     834     839     833     834     840
     839     834     838     840     834     838     840     834     839
     842     841     843     842     841     844     842     841     845
     844     841     843     845     841     843     845     841     844
     841     842     846     841     842     847     841     842     848
     847     842     846     848     842     846     848     842     847
     850     849     851     850     849     852     850     849     853
     852     849     851     853     849     851     853     849     852
     849     850     854     849     850     855     849     850     856
     855     850     854     856     850     854     856     850     855
     858     857     859     858     857     860     858     857     861
     860     857     859     861     857     859     861     857     860
     857     858     862     857     858     863     857     858     864
     863     858     862     864     858     862     864     858     863
     866     865     867     866     865     868     866     865     869
     868     865     867     869     865     867     869     865     868
     865     866     870     865     866     871     865     866     872
     871     866     870     872     866     870     872     866     871
     874     873     875     874     873     876     874     873     877
     876     873     875     877     873     875     877     873     876
     873     874     878     873     874     879     873     874     880
     879     874     878     880     874     878     880     874     879
     882     881     883     882     881     884     882     881     885
     884     881     883     885     881     883     885     881     884
     881     882     886     881     882     887     881     882     888
     887     882     886     888     882     886     888     882     887
     890     889     891     890     889     892     890     889     893
     892     889     891     893     889     891     893     889     892
     889     890     894     889     890     895     889     890     896
     895     890     894     896     890     894     896     890     895
     898     897     899     898     897     900     898     897     901
     900     897     899     901     897     899     901     897     900
     897     898     902     897     898     903     897     898     904
     903     898     902     904     898     902     904     898     903
     906     905     907     906     905     908     906     905     909
     908     905     907     909     905     907     909     905     908
     905     906     910     905     906     911     905     906     912
     911     906     910     912     906     910     912     906     911
     914     913     915     914     913     916     914     913     917
     916     913     915     917     913     915     917     913     916
     913     914     918     913     914     919     913     914     920
     919     914     918     920     914     918     920     914     919
     922     921     923     922     921     924     922     921     925
     924     921     923     925     921     923     925     921     924
     921     922     926     921     922     927     921     922     928
     927     922     926     928     922     926     928     922     927
     930     929     931     930     929     932     930     929     933
     932     929     931     933     929     931     933     929     932
     929     930     934     929     930     935     929     930     936
     935     930     934     936     930     934     936     930     935
     938     937     939     938     937     940     938     937     941
     940     937     939     941     937     939     941     937     940
     937     938     942     937     938     943     937     938     944
     943     938     942     944     938     942     944     938     943
     946     945     947     946     945     948     946     945     949
     948     945     947     949     945     947     949     945     948
     945     946     950     945     946     951     945     946     952
     951     946     950     952     946     950     952     946     951
     954     953     955     954     953     956     954     953     957
     956     953     955     957     953     955     957     953     956
     953     954     958     953     954     959     953     954     960
     959     954     958     960     954     958     960     954     959
     962     961     963     962     961     964     962     961     965
     964     961     963     965     961     963     965     961     964
     961     962     966     961     962     967     961     962     968
     967     962     966     968     962     966     968     962     967
     970     969     971     970     969     972     970     969     973
     972     969     971     973     969     971     973     969     972
     969     970     974     969     970     975     969     970     976
     975     970     974     976     970     974     976     970     975
     978     977     979     978     977     980     978     977     981
     980     977     979     981     977     979     981     977     980
     977     978     982     977     978     983     977     978     984
     983     978     982     984     978     982     984     978     983
     986     985     987     986     985     988     986     985     989
     988     985     987     989     985     987     989     985     988
     985     986     990     985     986     991     985     986     992
     991     986     990     992     986     990     992     986     991
     994     993     995     994     993     996     994     993     997
     996     993     995     997     993     995     997     993     996
     993     994     998     993     994     999     993     994    1000
     999     994     998    1000     994     998    1000     994     999
    1002    1001    1003    1002    1001    1004    1002    1001    1005
    1004    1001    1003    1005    1001    1003    1005    1001    1004
    1001    1002    1006    1001    1002    1007    1001    1002    1008
    1007    1002    1006    1008    1002    1006    1008    1002    1007
    1010    1009    1011    1010    1009    1012    1010    1009    1013
    1012    1009    1011    1013    1009    1011    1013    1009    1012
    1009    1010    1014    1009    1010    1015    1009    1010    1016
    1015    1010    1014    1016    1010    1014    1016    1010    1015
    1018    1017    1019    1018    1017    1020    1018    1017    1021
    1020    1017    1019    1021    1017    1019    1021    1017    1020
    1017    1018    1022    1017    1018    1023    1017    1018    1024
    1023    1018    1022    1024    1018    1022    1024    1018    1023
    1026    1025    1027    1026    1025    1028    1026    1025    1029
    1028    1025    1027    1029    1025    1027    1029    1025    1028
    1025    1026    1030    1025    1026    1031    1025    1026    1032
    1031    1026    1030    1032    1026    1030    1032    1026    1031
    1034    1033    1035    1034    1033    1036    1034    1033    1037
    1036    1033    1035    1037    1033    1035    1037    1033    1036
    1033    1034    1038    1033    1034    1039    1033    1034    1040
    1039    1034    1038    1040    1034    1038    1040    1034    1039
    1042    1041    1043    1042    1041    1044    1042    1041    1045
    1044    1041    1043    1045    1041    1043    1045    1041    1044
    1041    1042    1046    1041    1042    1047    1041    1042    1048
    1047    1042    1046    1048    1042    1046    1048    1042    1047
    1050    1049    1051    1050    1049    1052    1050    1049    1053
    1052    1049    1051    1053    1049    1051    1053    1049    1052
    1049    1050    1054    1049    1050    1055    1049    1050    1056
    1055    1050    1054    1056    1050    1054    1056    1050    1055
    1058    1057    1059    1058    1057    1060    1058    1057    1061
    1060    1057    1059    1061    1057    1059    1061    1057    1060
    1057    1058    1062    1057    1058    1063    1057    1058    1064
    1063    1058    1062    1064    1058    1062    1064    1058    1063
    1066    1065    1067    1066    1065    1068    1066    1065    1069
    1068    1065    1067    1069    1065    1067    1069    1065    1068
    1065    1066    1070    1065    1066    1071    1065    1066    1072
    1071    1066    1070    1072    1066    1070    1072    1066    1071
    1074    1073    1075    1074    1073    1076    1074    1073    1077
    1076    1073    1075    1077    1073    1075    1077    1073    1076
    1073    1074    1078    1073    1074    1079    1073    1074    1080
    1079    1074    1078    1080    1074    1078    1080    1074    1079
    1082    1081    1083    1082    1081    1084    1082    1081    1085
    1084    1081    1083    1085    1081    1083    1085    1081    1084
    1081    1082    1086    1081    1082    1087    1081    1082    1088
    1087    1082    1086    1088    1082    1086    1088    1082    1087
    1090    1089    1091    1090    1089    1092    1090    1089    1093
    1092    1089    1091    1093    1089    1091    1093    1089    1092
    1089    1090    1094    1089    1090    1095    1089    1090    1096
    1095    1090    1094    1096    1090    1094    1096    1090    1095
    1098    1097    1099    1098    1097    1100    1098    1097    1101
    1100    1097    1099    1101    1097    1099    1101    1097    1100
    1097    1098    1102    1097    1098    1103    1097    1098    1104
    1103    1098    1102    1104    1098    1102    1104    1098    1103
    1106    1105    1107    1106    1105    1108    1106    1105    1109
    1108    1105    1107    1109    1105    1107    1109    1105    1108
    1105    1106    1110    1105    1106    1111    1105    1106    1112
    1111    1106    1110    1112    1106    1110    1112    1106    1111
    1114    1113    1115    1114    1113    1116    1114    1113    1117
    1116    1113    1115    1117    1113    1115    1117    1113    1116
    1113    1114    1118    1113    1114    1119    1113    1114    1120
    1119    1114    1118    1120    1114    1118    1120    1114    1119
    1122    1121    1123    1122    1121    1124    1122    1121    1125
    1124    1121    1123    1125    1121    1123    1125    1121    1124
    1121    1122    1126    1121    1122    1127    1121    1122    1128
    1127    1122    1126    1128    1122    1126    1128    1122    1127
    1130    1129    1131    1130    1129    1132    1130    1129    1133
    1132    1129    1131    1133    1129    1131    1133    1129    1132
    1129    1130    1134    1129    1130    1135    1129    1130    1136
    1135    1130    1134    1136    1130    1134    1136    1130    1135
    1138    1137    1139    1138    1137    1140    1138    1137    1141
    1140    1137    1139    1141    1137    1139    1141    1137    1140
    1137    1138    1142    1137    1138    1143    1137    1138    1144
    1143    1138    1142    1144    1138    1142    1144    1138    1143
    1146    1145    1147    1146    1145    1148    1146    1145    1149
    1148    1145    1147    1149    1145    1147    1149    1145    1148
    1145    1146    1150    1145    1146    1151    1145    1146    1152
    1151    1146    1150    1152    1146    1150    1152    1146    1151
    1154    1153    1155    1154    1153    1156    1154    1153    1157
    1156    1153    1155    1157    1153    1155    1157    1153    1156
    1153    1154    1158    1153    1154    1159    1153    1154    1160
    1159    1154    1158    1160    1154    1158    1160    1154    1159
    1162    1161    1163    1162    1161    1164    1162    1161    1165
    1164    1161    1163    1165    1161    1163    1165    1161    1164
    1161    1162    1166    1161    1162    1167    1161    1162    1168
    1167    1162    1166    1168    1162    1166    1168    1162    1167
    1170    1169    1171    1170    1169    1172    1170    1169    1173
    1172    1169    1171    1173    1169    1171    1173    1169    1172
    1169    1170    1174    1169    1170    1175    1169    1170    1176
    1175    1170    1174    1176    1170    1174    1176    1170    1175
    1178    1177    1179    1178    1177    1180    1178    1177    1181
    1180    1177    1179    1181    1177    1179    1181    1177    1180
    1177    1178    1182    1177    1178    1183    1177    1178    1184
    1183    1178    1182    1184    1178    1182    1184    1178    1183
    1186    1185    1187    1186    1185    1188    1186    1185    1189
    1188    1185    1187    1189    1185    1187    1189    1185    1188
    1185    1186    1190    1185    1186    1191    1185    1186    1192
    1191    1186    1190    1192    1186    1190    1192    1186    1191
    1194    1193    1195    1194    1193    1196    1194    1193    1197
    1196    1193    1195    1197    1193    1195    1197    1193    1196
    1193    1194    1198    1193    1194    1199    1193    1194    1200
    1199    1194    1198    1200    1194    1198    1200    1194    1199
    1202    1201    1203    1202    1201    1204    1202    1201    1205
    1204    1201    1203    1205    1201    1203    1205    1201    1204
    1201    1202    1206    1201    1202    1207    1201    1202    1208
    1207    1202    1206    1208    1202    1206    1208    1202    1207
    1210    1209    1211    1210    1209    1212    1210    1209    1213
    1212    1209    1211    1213    1209    1211    1213    1209    1212
    1209    1210    1214    1209    1210    1215    1209    1210    1216
    1215    1210    1214    1216    1210    1214    1216    1210    1215
    1218    1217    1219    1218    1217    1220    1218    1217    1221
    1220    1217    1219    1221    1217    1219    1221    1217    1220
    1217    1218    1222    1217    1218    1223    1217    1218    1224
    1223    1218    1222    1224    1218    1222    1224    1218    1223
    1226    1225    1227    1226    1225    1228    1226    1225    1229
    1228    1225    1227    1229    1225    1227    1229    1225    1228
    1225    1226    1230    1225    1226    1231    1225    1226    1232
    1231    1226    1230    1232    1226    1230    1232    1226    1231
    1234    1233    1235    1234    1233    1236    1234    1233    1237
    1236    1233    1235    1237    1233    1235    1237    1233    1236
    1233    1234    1238    1233    1234    1239    1233    1234    1240
    1239    1234    1238    1240    1234    1238    1240    1234    1239
    1242    1241    1243    1242    1241    1244    1242    1241    1245
    1244    1241    1243    1245    1241    1243    1245    1241    1244
    1241    1242    1246    1241    1242    1247    1241    1242    1248
    1247    1242    1246    1248    1242    1246    1248    1242    1247
    1250    1249    1251    1250    1249    1252    1250    1249    1253
    1252    1249    1251    1253    1249    1251    1253    1249    1252
    1249    1250    1254    1249    1250    1255    1249    1250    1256
    1255    1250    1254    1256    1250    1254    1256    1250    1255
    1258    1257    1259    1258    1257    1260    1258    1257    1261
    1260    1257    1259    1261    1257    1259    1261    1257    1260
    1257    1258    1262    1257    1258    1263    1257    1258    1264
    1263    1258    1262    1264    1258    1262    1264    1258    1263
    1266    1265    1267    1266    1265    1268    1266    1265    1269
    1268    1265    1267    1269    1265    1267    1269    1265    1268
    1265    1266    1270    1265    1266    1271    1265    1266    1272
    1271    1266    1270    1272    1266    1270    1272    1266    1271
    1274    1273    1275    1274    1273    1276    1274    1273    1277
    1276    1273    1275    1277    1273    1275    1277    1273    1276
    1273    1274    1278    1273    1274    1279    1273    1274    1280
    1279    1274    1278    1280    1274    1278    1280    1274    1279
    1282    1281    1283    1282    1281    1284    1282    1281    1285
    1284    1281    1283    1285    1281    1283    1285    1281    1284
    1281    1282    1286    1281    1282    1287    1281    1282    1288
    1287    1282    1286    1288    1282    1286    1288    1282    1287
    1290    1289    1291    1290    1289    1292    1290    1289    1293
    1292    1289    1291    1293    1289    1291    1293    1289    1292
    1289    1290    1294    1289    1290    1295    1289    1290    1296
    1295    1290    1294    1296    1290    1294    1296    1290    1295
    1298    1297    1299    1298    1297    1300    1298    1297    1301
    1300    1297    1299    1301    1297    1299    1301    1297    1300
    1297    1298    1302    1297    1298    1303    1297    1298    1304
    1303    1298    1302    1304    1298    1302    1304    1298    1303
    1306    1305    1307    1306    1305    1308    1306    1305    1309
    1308    1305    1307    1309    1305    1307    1309    1305    1308
    1305    1306    1310    1305    1306    1311    1305    1306    1312
    1311    1306    1310    1312    1306    1310    1312    1306    1311
    1314    1313    1315    1314    1313    1316    1314    1313    1317
    1316    1313    1315    1317    1313    1315    1317    1313    1316
    1313    1314    1318    1313    1314    1319    1313    1314    1320
    1319    1314    1318    1320    1314    1318    1320    1314    1319
    1322    1321    1323    1322    1321    1324    1322    1321    1325
    1324    1321    1323    1325    1321    1323    1325    1321    1324
    1321    1322    1326    1321    1322    1327    1321    1322    1328
    1327    1322    1326    1328    1322    1326    1328    1322    1327
    1330    1329    1331    1330    1329    1332    1330    1329    1333
    1332    1329    1331    1333    1329    1331    1333    1329    1332
    1329    1330    1334    1329    1330    1335    1329    1330    1336
    1335    1330    1334    1336    1330    1334    1336    1330    1335
    1338    1337    1339    1338    1337    1340    1338    1337    1341
    1340    1337    1339    1341    1337    1339    1341    1337    1340
    1337    1338    1342    1337    1338    1343    1337    1338    1344
    1343    1338    1342    1344    1338    1342    1344    1338    1343
    1346    1345    1347    1346    1345    1348    1346    1345    1349
    1348    1345    1347    1349    1345    1347    1349    1345    1348
    1345    1346    1350    1345    1346    1351    1345    1346    1352
    1351    1346    1350    1352    1346    1350    1352    1346    1351
    1354    1353    1355    1354    1353    1356    1354    1353    1357
    1356    1353    1355    1357    1353    1355    1357    1353    1356
    1353    1354    1358    1353    1354    1359    1353    1354    1360
    1359    1354    1358    1360    1354    1358    1360    1354    1359
    1362    1361    1363    1362    1361    1364    1362    1361    1365
    1364    1361    1363    1365    1361    1363    1365    1361    1364
    1361    1362    1366    1361    1362    1367    1361    1362    1368
    1367    1362    1366    1368    1362    1366    1368    1362    1367
    1370    1369    1371    1370    1369    1372    1370    1369    1373
    1372    1369    1371    1373    1369    1371    1373    1369    1372
    1369    1370    1374    1369    1370    1375    1369    1370    1376
    1375    1370    1374    1376    1370    1374    1376    1370    1375
    1378    1377    1379    1378    1377    1380    1378    1377    1381
    1380    1377    1379    1381    1377    1379    1381    1377    1380
    1377    1378    1382    1377    1378    1383    1377    1378    1384
    1383    1378    1382    1384    1378    1382    1384    1378    1383
    1386    1385    1387    1386    1385    1388    1386    1385    1389
    1388    1385    1387    1389    1385    1387    1389    1385    1388
    1385    1386    1390    1385    1386    1391    1385    1386    1392
    1391    1386    1390    1392    1386    1390    1392    1386    1391
    1394    1393    1395    1394    1393    1396    1394    1393    1397
    1396    1393    1395    1397    1393    1395    1397    1393    1396
    1393    1394    1398    1393    1394    1399    1393    1394    1400
    1399    1394    1398    1400    1394    1398    1400    1394    1399
    1402    1401    1403    1402    1401    1404    1402    1401    1405
    1404    1401    1403    1405    1401    1403    1405    1401    1404
    1401    1402    1406    1401    1402    1407    1401    1402    1408
    1407    1402    1406    1408    1402    1406    1408    1402    1407
    1410    1409    1411    1410    1409    1412    1410    1409    1413
    1412    1409    1411    1413    1409    1411    1413    1409    1412
    1409    1410    1414    1409    1410    1415    1409    1410    1416
    1415    1410    1414    1416    1410    1414    1416    1410    1415
    1418    1417    1419    1418    1417    1420    1418    1417    1421
    1420    1417    1419    1421    1417    1419    1421    1417    1420
    1417    1418    1422    1417    1418    1423    1417    1418    1424
    1423    1418    1422    1424    1418    1422    1424    1418    1423
    1426    1425    1427    1426    1425    1428    1426    1425    1429
    1428    1425    1427    1429    1425    1427    1429    1425    1428
    1425    1426    1430    1425    1426    1431    1425    1426    1432
    1431    1426    1430    1432    1426    1430    1432    1426    1431
    1434    1433    1435    1434    1433    1436    1434    1433    1437
    1436    1433    1435    1437    1433    1435    1437    1433    1436
    1433    1434    1438    1433    1434    1439    1433    1434    1440
    1439    1434    1438    1440    1434    1438    1440    1434    1439
    1442    1441    1443    1442    1441    1444    1442    1441    1445
    1444    1441    1443    1445    1441    1443    1445    1441    1444
    1441    1442    1446    1441    1442    1447    1441    1442    1448
    1447    1442    1446    1448    1442    1446    1448    1442    1447
    1450    1449    1451    1450    1449    1452    1450    1449    1453
    1452    1449    1451    1453    1449    1451    1453    1449    1452
    1449    1450    1454    1449    1450    1455    1449    1450    1456
    1455    1450    1454    1456    1450    1454    1456    1450    1455
    1458    1457    1459    1458    1457    1460    1458    1457    1461
    1460    1457    1459    1461    1457    1459    1461    1457    1460
    1457    1458    1462    1457    1458    1463    1457    1458    1464
    1463    1458    1462    1464    1458    1462    1464    1458    1463
    1466    1465    1467    1466    1465    1468    1466    1465    1469
    1468    1465    1467    1469    1465    1467    1469    1465    1468
    1465    1466    1470    1465    1466    1471    1465    1466    1472
    1471    1466    1470    1472    1466    1470    1472    1466    1471
    1474    1473    1475    1474    1473    1476    1474    1473    1477
    1476    1473    1475    1477    1473    1475    1477    1473    1476
    1473    1474    1478    1473    1474    1479    1473    1474    1480
    1479    1474    1478    1480    1474    1478    1480    1474    1479
    1482    1481    1483    1482    1481    1484    1482    1481    1485
    1484    1481    1483    1485    1481    1483    1485    1481    1484
    1481    1482    1486    1481    1482    1487    1481    1482    1488
    1487    1482    1486    1488    1482    1486    1488    1482    1487
    1490    1489    1491    1490    1489    1492    1490    1489    1493
    1492    1489    1491    1493    1489    1491    1493    1489    1492
    1489    1490    1494    1489    1490    1495    1489    1490    1496
    1495    1490    1494    1496    1490    1494    1496    1490    1495
    1498    1497    1499    1498    1497    1500    1498    1497    1501
    1500    1497    1499    1501    1497    1499    1501    1497    1500
    1497    1498    1502    1497    1498    1503    1497    1498    1504
    1503    1498    1502    1504    1498    1502    1504    1498    1503
    1506    1505    1507    1506    1505    1508    1506    1505    1509
    1508    1505    1507    1509    1505    1507    1509    1505    1508
    1505    1506    1510    1505    1506    1511    1505    1506    1512
    1511    1506    1510    1512    1506    1510    1512    1506    1511
    1514    1513    1515    1514    1513    1516    1514    1513    1517
    1516    1513    1515    1517    1513    1515    1517    1513    1516
    1513    1514    1518    1513    1514    1519    1513    1514    1520
    1519    1514    1518    1520    1514    1518    1520    1514    1519
    1522    1521    1523    1522    1521    1524    1522    1521    1525
    1524    1521    1523    1525    1521    1523    1525    1521    1524
    1521    1522    1526    1521    1522    1527    1521    1522    1528
    1527    1522    1526    1528    1522    1526    1528    1522    1527
    1530    1529    1531    1530    1529    1532    1530    1529    1533
    1532    1529    1531    1533    1529    1531    1533    1529    1532
    1529    1530    1534    1529    1530    1535    1529    1530    1536
    1535    1530    1534    1536    1530    1534    1536    1530    1535
    1538    1537    1539    1538    1537    1540    1538    1537    1541
    1540    1537    1539    1541    1537    1539    1541    1537    1540
    1537    1538    1542    1537    1538    1543    1537    1538    1544
    1543    1538    1542    1544    1538    1542    1544    1538    1543
    1546    1545    1547    1546    1545    1548    1546    1545    1549
    1548    1545    1547    1549    1545    1547    1549    1545    1548
    1545    1546    1550    1545    1546    1551    1545    1546    1552
    1551    1546    1550    1552    1546    1550    1552    1546    1551
    1554    1553    1555    1554    1553    1556    1554    1553    1557
    1556    1553    1555    1557    1553    1555    1557    1553    1556
    1553    1554    1558    1553    1554    1559    1553    1554    1560
    1559    1554    1558    1560    1554    1558    1560    1554    1559
    1562    1561    1563    1562    1561    1564    1562    1561    1565
    1564    1561    1563    1565    1561    1563    1565    1561    1564
    1561    1562    1566    1561    1562    1567    1561    1562    1568
    1567    1562    1566    1568    1562    1566    1568    1562    1567
    1570    1569    1571    1570    1569    1572    1570    1569    1573
    1572    1569    1571    1573    1569    1571    1573    1569    1572
    1569    1570    1574    1569    1570    1575    1569    1570    1576
    1575    1570    1574    1576    1570    1574    1576    1570    1575
    1578    1577    1579    1578    1577    1580    1578    1577    1581
    1580    1577    1579    1581    1577    1579    1581    1577    1580
    1577    1578    1582    1577    1578    1583    1577    1578    1584
    1583    1578    1582    1584    1578    1582    1584    1578    1583
    1586    1585    1587    1586    1585    1588    1586    1585    1589
    1588    1585    1587    1589    1585    1587    1589    1585    1588
    1585    1586    1590    1585    1586    1591    1585    1586    1592
    1591    1586    1590    1592    1586    1590    1592    1586    1591
    1594    1593    1595    1594    1593    1596    1594    1593    1597
    1596    1593    1595    1597    1593    1595    1597    1593    1596
    1593    1594    1598    1593    1594    1599    1593    1594    1600
    1599    1594    1598    1600    1594    1598    1600    1594    1599

    1800 !NPHI: dihedrals
       6       2       1       3       7       2       1       3
       8       2       1       3       6       2       1       4
       7       2       1       4       8       2       1       4
       6       2       1       5       7       2       1       5
       8       2       1       5      14      10       9      11
      15      10       9      11      16      10       9      11
      14      10       9      12      15      10       9      12
      16      10       9      12      14      10       9      13
      15      10       9      13      16      10       9      13
      22      18      17      19      23      18      17      19
      24      18      17      19      22      18      17      20
      23      18      17      20      24      18      17      20
      22      18      17      21      23      18      17      21
      24      18      17      21      30      26      25      27
      31      26      25      27      32      26      25      27
      30      26      25      28      31      26      25      28
      32      26      25      28      30      26      25      29
      31      26      25      29      32      26      25      29
      38      34      33      35      39      34      33      35
      40      34      33      35      38      34      33      36
      39      34      33      36      40      34      33      36
      38      34      33      37      39      34      33      37
      40      34      33      37      46      42      41      43
      47      42      41      43      48      42      41      43
      46      42      41      44      47      42      41      44
      48      42      41      44      46      42      41      45
      47      42      41      45      48      42      41      45
      54      50      49      51      55      50      49      51
      56      50      49      51      54      50      49      52
      55      50      49      52      56      50      49      52
      54      50      49      53      55      50      49      53
      56      50      49      53      62      58      57      59
      63      58      57      59      64      58      57      59
      62      58      57      60      63      58      57      60
      64      58      57      60      62      58      57      61
      63      58      57      61      64      58      57      61
      70      66      65      67      71      66      65      67
      72      66      65      67      70      66      65      68
      71      66      65      68      72      66      65      68
      70      66      65      69      71      66      65      69
      72      66      65      69      78      74      73      75
      79      74      73      75      80      74      73      75
      78      74      73      76      79      74      73      76
      80      74      73      76      78      74      73      77
      79      74      73      77      80      74      73      77
      86      82      81      83      87      82      81      83
      88      82      81      83      86      82      81      84
      87      82      81      84      88      82      81      84
      86      82      81      85      87      82      81      85
      88      82      81      85      94      90      89      91
      95      90      89      91      96      90      89      91
      94      90      89      92      95      90      89      92
      96      90      89      92      94      90      89      93
      95      90      89      93      96      90      89      93
     102      98      97      99     103      98      97      99
     104      98      97      99     102      98      97     100
     103      98      97     100     104      98      97     100
     102      98      97     101     103      98      97     101
     104      98      97     101     110     106     105     107
     111     106     105     107     112     106     105     107
     110     106     105     108     111     106     105     108
     112     106     105     108     110     106     105     109
     111     106     105     109     112     106     105     109
     118     114     113     115     119     114     113     115
     120     114     113     115     118     114     113     116
     119     114     113     116     120     114     113     116
     118     114     113     117     119     114     113     117
     120     114     113     117     126     122     121     123
     127     122     121     123     128     122     121     123
     126     122     121     124     127     122     121     124
     128     122     121     124     126     122     121     125
     127     122     121     125     128     122     121     125
     134     130     129     131     135     130     129     131
     136     130     129     131     134     130     129     132
     135     130     129     132     136     130     129     132
     134     130     129     133     135     130     129     133
     136     130     129     133     142     138     137     139
     143     138     137     139     144     138     137     139
     142     138     137     140     143     138     137     140
     144     138     137     140     142     138     137     141
     143     138     137     141     144     138     137     141
     150     146     145     147     151     146     145     147
     152     146     145     147     150     146     145     148
     151     146     145     148     152     146     145     148
     150     146     145     149     151     146     145     149
     152     146     145     149     158     154     153     155
     159     154     153     155     160     154     153     155
     158     154     153     156     159     154     153     156
     160     154     153     156     158     154     153     157
     159     154     153     157     160     154     153     157
     166     162     161     163     167     162     161     163
     168     162     161     163     166     162     161     164
     167     162     161     164     168     162     161     164
     166     162     161     165     167     162     161     165
     168     162     161     165     174     170     169     171
     175     170     169     171     176     170     169     171
     174     170     169     172     175     170     169     172
     176     170     169     172     174     170     169     173
     175     170     169     173     176     170     169     173
     182     178     177     179     183     178     177     179
     184     178     177     179     182     178     177     180
     183     178     177     180     184     178     177     180
     182     178     177     181     183     178     177     181
     184     178     177     181     190     186     185     187
     191     186     185     187     192     186     185     187
     190     186     185     188     191     186     185     188
     192     186     185     188     190     186     185     189
     191     186     185     189     192     186     185     189
     198     194     193     195     199     194     193     195
     200     194     193     195     198     194     193     196
     199     194     193     196     200     194     193     196
     198     194     193     197     199     194     193     197
     200     194     193     197     206     202     201     203
     207     202     201     203     208     202     201     203
     206     202     201     204     207     202     201     204
     208     202     201     204     206     202     201     205
     207     202     201     205     208     202     201     205
     214     210     209     211     215     210     209     211
     216     210     209     211     214     210     209     212
     215     210     209     212     216     210     209     212
     214     210     209     213     215     210     209     213
     216     210     209     213     222     218     217     219
     223     218     217     219     224     218     217     219
     222     218     217     220     223     218     217     220
     224     218     217     220     222     218     217     221
     223     218     217     221     224     218     217     221
     230     226     225     227     231     226     225     227
     232     226     225     227     230     226     225     228
     231     226     225     228     232     226     225     228
     230     226     225     229     231     226     225     229
     232     226     225     229     238     234     233     235
     239     234     233     235     240     234     233     235
     238     234     233     236     239     234     233     236
     240     234     233     236     238     234     233     237
     239     234     233     237     240     234     233     237
     246     242     241     243     247     242     241     243
     248     242     241     243     246     242     241     244
     247     242     241     244     248     242     241     244
     246     242     241     245     247     242     241     245
     248     242     241     245     254     250     249     251
     255     250     249     251     256     250     249     251
     254     250     249     252     255     250     249     252
     256     250     249     252     254     250     249     253
     255     250     249     253     256     250     249     253
     262     258     257     259     263     258     257     259
     264     258     257     259     262     258     257     260
     263     258     257     260     264     258     257     260
     262     258     257     261     263     258     257     261
     264     258     257     261     270     266     265     267
     271     266     265     267     272     266     265     267
     270     266     265     268     271     266     265     268
     272     266     265     268     270     266     265     269
     271     266     265     269     272     266     265     269
     278     274     273     275     279     274     273     275
     280     274     273     275     278     274     273     276
     279     274     273     276     280     274     273     276
     278     274     273     277     279     274     273     277
     280     274     273     277     286     282     281     283
     287     282     281     283     288     282     281     283
     286     282     281     284     287     282     281     284
     288     282     281     284     286     282     281     285
     287     282     281     285     288     282     281     285
     294     290     289     291     295     290     289     291
     296     290     289     291     294     290     289     292
     295     290     289     292     296     290     289     292
     294     290     289     293     295     290     289     293
     296     290     289     293     302     298     297     299
     303     298     297     299     304     298     297     299
     302     298     297     300     303     298     297     300
     304     298     297     300     302     298     297     301
     303     298     297     301     304     298     297     301
     310     306     305     307     311     306     305     307
     312     306     305     307     310     306     305     308
     311     306     305     308     312     306     305     308
     310     306     305     309     311     306     305     309
     312     306     305     309     318     314     313     315
     319     314     313     315     320     314     313     315
     318     314     313     316     319     314     313     316
     320     314     313     316     318     314     313     317
     319     314     313     317     320     314     313     317
     326     322     321     323     327     322     321     323
     328     322     321     323     326     322     321     324
     327     322     321     324     328     322     321     324
     326     322     321     325     327     322     321     325
     328     322     321     325     334     330     329     331
     335     330     329     331     336     330     329     331
     334     330     329     332     335     330     329     332
     336     330     329     332     334     330     329     333
     335     330     329     333     336     330     329     333
     342     338     337     339     343     338     337     339
     344     338     337     339     342     338     337     340
     343     338     337     340     344     338     337     340
     342     338     337     341     343     338     337     341
     344     338     337     341     350     346     345     347
     351     346     345     347     352     346     345     347
     350     346     345     348     351     346     345     348
     352     346     345     348     350     346     345     349
     351     346     345     349     352     346     345     349
     358     354     353     355     359     354     353     355
     360     354     353     355     358     354     353     356
     359     354     353     356     360     354     353     356
     358     354     353     357     359     354     353     357
     360     354     353     357     366     362     361     363
     367     362     361     363     368     362     361     363
     366     362     361     364     367     362     361     364
     368     362     361     364     366     362     361     365
     367     362     361     365     368     362     361     365
     374     370     369     371     375     370     369     371
     376     370     369     371     374     370     369     372
     375     370     369     372     376     370     369     372
     374     370     369     373     375     370     369     373
     376     370     369     373     382     378     377     379
     383     378     377     379     384     378     377     379
     382     378     377     380     383     378     377     380
     384     378     377     380     382     378     377     381
     383     378     377     381     384     378     377     381
     390     386     385     387     391     386     385     387
     392     386     385     387     390     386     385     388
     391     386     385     388     392     386     385     388
     390     386     385     389     391     386     385     389
     392     386     385     389     398     394     393     395
     399     394     393     395     400     394     393     395
     398     394     393     396     399     394     393     396
     400     394     393     396     398     394     393     397
     399     394     393     397     400     394     393     397
     406     402     401     403     407     402     401     403
     408     402     401     403     406     402     401     404
     407     402     401     404     408     402     401     404
     406     402     401     405     407     402     401     405
     408     402     401     405     414     410     409     411
     415     410     409     411     416     410     409     411
     414     410     409     412     415     410     409     412
     416     410     409     412     414     410     409     413
     415     410     409     413     416     410     409     413
     422     418     417     419     423     418     417     419
     424     418     417     419     422     418     417     420
     423     418     417     420     424     418     417     420
     422     418     417     421     423     418     417     421
     424     418     417     421     430     426     425     427
     431     426     425     427     432     426     425     427
     430     426     425     428     431     426     425     428
     432     426     425     428     430     426     425     429
     431     426     425     429     432     426     425     429
     438     434     433     435     439     434     433     435
     440     434     433     435     438     434     433     436
     439     434     433     436     440     434     433     436
     438     434     433     437     439     434     433     437
     440     434     433     437     446     442     441     443
     447     442     441     443     448     442     441     443
     446     442     441     444     447     442     441     444
     448     442     441     444     446     442     441     445
     447     442     441     445     448     442     441     445
     454     450     449     451     455     450     449     451
     456     450     449     451     454     450     449     452
     455     450     449     452     456     450     449     452
     454     450     449     453     455     450     449     453
     456     450     449     453     462     458     457     459
     463     458     457     459     464     458     457     459
     462     458     457     460     463     458     457     460
     464     458     457     460     462     458     457     461
     463     458     457     461     464     458     457     461
     470     466     465     467     471     466     465     467
     472     466     465     467     470     466     465     468
     471     466     465     468     472     466     465     468
     470     466     465     469     471     466     465     469
     472     466     465     469     478     474     473     475
     479     474     473     475     480     474     473     475
     478     474     473     476     479     474     473     476
     480     474     473     476     478     474     473     477
     479     474     473     477     480     474     473     477
     486     482     481     483     487     482     481     483
     488     482     481     483     486     482     481     484
     487     482     481     484     488     482     481     484
     486     482     481     485     487     482     481     485
     488     482     481     485     494     490     489     491
     495     490     489     491     496     490     489     491
     494     490     489     492     495     490     489     492
     496     490     489     492     494     490     489     493
     495     490     489     493     496     490     489     493
     502     498     497     499     503     498     497     499
     504     498     497     499     502     498     497     500
     503     498     497     500     504     498     497     500
     502     498     497     501     503     498     497     501
     504     498     497     501     510     506     505     507
     511     506     505     507     512     506     505     507
     510     506     505     508     511     506     505     508
     512     506     505     508     510     506     505     509
     511     506     505     509     512     506     505     509
     518     514     513     515     519     514     513     515
     520     514     513     515     518     514     513     516
     519     514     513     516     520     514     513     516
     518     514     513     517     519     514     513     517
     520     514     513     517     526     522     521     523
     527     522     521     523     528     522     521     523
     526     522     521     524     527     522     521     524
     528     522     521     524     526     522     521     525
     527     522     521     525     528     522     521     525
     534     530     529     531     535     530     529     531
     536     530     529     531     534     530     529     532
     535     530     529     532     536     530     529     532
     534     530     529     533     535     530     529     533
     536     530     529     533     542     538     537     539
     543     538     537     539     544     538     537     539
     542     538     537     540     543     538     537     540
     544     538     537     540     542     538     537     541
     543     538     537     541     544     538     537     541
     550     546     545     547     551     546     545     547
     552     546     545     547     550     546     545     548
     551     546     545     548     552     546     545     548
     550     546     545     549     551     546     545     549
     552     546     545     549     558     554     553     555
     559     554     553     555     560     554     553     555
     558     554     553     556     559     554     553     556
     560     554     553     556     558     554     553     557
     559     554     553     557     560     554     553     557
     566     562     561     563     567     562     561     563
     568     562     561     563     566     562     561     564
     567     562     561     564     568     562     561     564
     566     562     561     565     567     562     561     565
     568     562     561     565     574     570     569     571
     575     570     569     571     576     570     569     571
     574     570     569     572     575     570     569     572
     576     570     569     572     574     570     569     573
     575     570     569     573     576     570     569     573
     582     578     577     579     583     578     577     579
     584     578     577     579     582     578     577     580
     583     578     577     580     584     578     577     580
     582     578     577     581     583     578     577     581
     584     578     577     581     590     586     585     587
     591     586     585     587     592     586     585     587
     590     586     585     588     591     586     585     588
     592     586     585     588     590     586     585     589
     591     586     585     589     592     586     585     589
     598     594     593     595     599     594     593     595
     600     594     593     595     598     594     593     596
     599     594     593     596     600     594     593     596
     598     594     593     597     599     594     593     597
     600     594     593     597     606     602     601     603
     607     602     601     603     608     602     601     603
     606     602     601     604     607     602     601     604
     608     602     601     604     606     602     601     605
     607     602     601     605     608     602     601     605
     614     610     609     611     615     610     609     611
     616     610     609     611     614     610     609     612
     615     610     609     612     616     610     609     612
     614     610     609     613     615     610     609     613
     616     610     609     613     622     618     617     619
     623     618     617     619     624     618     617     619
     622     618     617     620     623     618     617     620
     624     618     617     620     622     618     617     621
     623     618     617     621     624     618     617     621
     630     626     625     627     631     626     625     627
     632     626     625     627     630     626     625     628
     631     626     625     628     632     626     625     628
     630     626     625     629     631     626     625     629
     632     626     625     629     638     634     633     635
     639     634     633     635     640     634     633     635
     638     634     633     636     639     634     633     636
     640     634     633     636     638     634     633     637
     639     634     633     637     640     634     633     637
     646     642     641     643     647     642     641     643
     648     642     641     643     646     642     641     644
     647     642     641     644     648     642     641     644
     646     642     641     645     647     642     641     645
     648     642     641     645     654     650     649     651
     655     650     649     651     656     650     649     651
     654     650     649     652     655     650     649     652
     656     650     649     652     654     650     649     653
     655     650     649     653     656     650     649     653
     662     658     657     659     663     658     657     659
     664     658     657     659     662     658     657     660
     663     658     657     660     664     658     657     660
     662     658     657     661     663     658     657     661
     664     658     657     661     670     666     665     667
     671     666     665     667     672     666     665     667
     670     666     665     668     671     666     665     668
     672     666     665     668     670     666     665     669
     671     666     665     669     672     666     665     669
     678     674     673     675     679     674     673     675
     680     674     673     675     678     674     673     676
     679     674     673     676     680     674     673     676
     678     674     673     677     679     674     673     677
     680     674     673     677     686     682     681     683
     687     682     681     683     688     682     681     683
     686     682     681     684     687     682     681     684
     688     682     681     684     686     682     681     685
     687     682     681     685     688     682     681     685
     694     690     689     691     695     690     689     691
     696     690     689     691     694     690     689     692
     695     690     689     692     696     690     689     692
     694     690     689     693     695     690     689     693
     696     690     689     693     702     698     697     699
     703     698     697     699     704     698     697     699
     702     698     697     700     703     698     697     700
     704     698     697     700     702     698     697     701
     703     698     697     701     704     698     697     701
     710     706     705     707     711     706     705     707
     712     706     705     707     710     706     705     708
     711     706     705     708     712     706     705     708
     710     706     705     709     711     706     705     709
     712     706     705     709     718     714     713     715
     719     714     713     715     720     714     713     715
     718     714     713     716     719     714     713     716
     720     714     713     716     718     714     713     717
     719     714     713     717     720     714     713     717
     726     722     721     723     727     722     721     723
     728     722     721     723     726     722     721     724
     727     722     721     724     728     722     721     724
     726     722     721     725     727     722     721     725
     728     722     721     725     734     730     729     731
     735     730     729     731     736     730     729     731
     734     730     729     732     735     730     729     732
     736     730     729     732     734     730     729     733
     735     730     729     733     736     730     729     733
     742     738     737     739     743     738     737     739
     744     738     737     739     742     738     737     740
     743     738     737     740     744     738     737     740
     742     738     737     741     743     738     737     741
     744     738     737     741     750     746     745     747
     751     746     745     747     752     746     745     747
     750     746     745     748     751     746     745     748
     752     746     745     748     750     746     745     749
     751     746     745     749     752     746     745     749
     758     754     753     755     759     754     753     755
     760     754     753     755     758     754     753     756
     759     754     753     756     760     754     753     756
     758     754     753     757     759     754     753     757
     760     754     753     757     766     762     761     763
     767     762     761     763     768     762     761     763
     766     762     761     764     767     762     761     764
     768     762     761     764     766     762     761     765
     767     762     761     765     768     762     761     765
     774     770     769     771     775     770     769     771
     776     770     769     771     774     770     769     772
     775     770     769     772     776     770     769     772
     774     770     769     773     775     770     769     773
     776     770     769     773     782     778     777     779
     783     778     777     779     784     778     777     779
     782     778     777     780     783     778     777     780
     784     778     777     780     782     778     777     781
     783     778     777     781     784     778     777     781
     790     786     785     787     791     786     785     787
     792     786     785     787     790     786     785     788
     791     786     785     788     792     786     785     788
     790     786     785     789     791     786     785     789
     792     786     785     789     798     794     793     795
     799     794     793     795     800     794     793     795
     798     794     793     796     799     794     793     796
     800     794     793     796     798     794     793     797
     799     794     793     797     800     794     793     797
     806     802     801     803     807     802     801     803
     808     802     801     803     806     802     801     804
     807     802     801     804     808     802     801     804
     806     802     801     805     807     802     801     805
     808     802     801     805     814     810     809     811
     815     810     809     811     816     810     809     811
     814     810     809     812     815     810     809     812
     816     810     809     812     814     810     809     813
     815     810     809     813     816     810     809     813
     822     818     817     819     823     818     817     819
     824     818     817     819     822     818     817     820
     823     818     817     820     824     818     817     820
     822     818     817     821     823     818     817     821
     824     818     817     821     830     826     825     827
     831     826     825     827     832     826     825     827
     830     826     825     828     831     826     825     828
     832     826     825     828     830     826     825     829
     831     826     825     829     832     826     825     829
     838     834     833     835     839     834     833     835
     840     834     833     835     838     834     833     836
     839     834     833     836     840     834     833     836
     838     834     833     837     839     834     833     837
     840     834     833     837     846     842     841     843
     847     842     841     843     848     842     841     843
     846     842     841     844     847     842     841     844
     848     842     841     844     846     842     841     845
     847     842     841     845     848     842     841     845
     854     850     849     851     855     850     849     851
     856     850     849     851     854     850     849     852
     855     850     849     852     856     850     849     852
     854     850     849     853     855     850     849     853
     856     850     849     853     862     858     857     859
     863     858     857     859     864     858     857     859
     862     858     857     860     863     858     857     860
     864     858     857     860     862     858     857     861
     863     858     857     861     864     858     857     861
     870     866     865     867     871     866     865     867
     872     866     865     867     870     866     865     868
     871     866     865     868     872     866     865     868
     870     866     865     869     871     866     865     869
     872     866     865     869     878     874     873     875
     879     874     873     875     880     874     873     875
     878     874     873     876     879     874     873     876
     880     874     873     876     878     874     873     877
     879     874     873     877     880     874     873     877
     886     882     881     883     887     882     881     883
     888     882     881     883     886     882     881     884
     887     882     881     884     888     882     881     884
     886     882     881     885     887     882     881     885
     888     882     881     885     894     890     889     891
     895     890     889     891     896     890     889     891
     894     890     889     892     895     890     889     892
     896     890     889     892     894     890     889     893
     895     890     889     893     896     890     889     893
     902     898     897     899     903     898     897     899
     904     898     897     899     902     898     897     900
     903     898     897     900     904     898     897     900
     902     898     897     901     903     898     897     901
     904     898     897     901     910     906     905     907
     911     906     905     907     912     906     905     907
     910     906     905     908     911     906     905     908
     912     906     905     908     910     906     905     909
     911     906     905     909     912     906     905     909
     918     914     913     915     919     914     913     915
     920     914     913     915     918     914     913     916
     919     914     913     916     920     914     913     916
     918     914     913     917     919     914     913     917
     920     914     913     917     926     922     921     923
     927     922     921     923     928     922     921     923
     926     922     921     924     927     922     921     924
     928     922     921     924     926     922     921     925
     927     922     921     925     928     922     921     925
     934     930     929     931     935     930     929     931
     936     930     929     931     934     930     929     932
     935     930     929     932     936     930     929     932
     934     930     929     933     935     930     929     933
     936     930     929     933     942     938     937     939
     943     938     937     939     944     938     937     939
     942     938     937     940     943     938     937     940
     944     938     937     940     942     938     937     941
     943     938     937     941     944     938     937     941
     950     946     945     947     951     946     945     947
     952     946     945     947     950     946     945     948
     951     946     945     948     952     946     945     948
     950     946     945     949     951     946     945     949
     952     946     945     949     958     954     953     955
     959     954     953     955     960     954     953     955
     958     954     953     956     959     954     953     956
     960     954     953     956     958     954     953     957
     959     954     953     957     960     954     953     957
     966     962     961     963     967     962     961     963
     968     962     961     963     966     962     961     964
     967     962     961     964     968     962     961     964
     966     962     961     965     967     962     961     965
     968     962     961     965     974     970     969     971
     975     970     969     971     976     970     969     971
     974     970     969     972     975     970     969     972
     976     970     969     972     974     970     969     973
     975     970     969     973     976     970     969     973
     982     978     977     979     983     978     977     979
     984     978     977     979     982     978     977     980
     983     978     977     980     984     978     977     980
     982     978     977     981     983     978     977     981
     984     978     977     981     990     986     985     987
     991     986     985     987     992     986     985     987
     990     986     985     988     991     986     985     988
     992     986     985     988     990     986     985     989
     991     986     985     989     992     986     985     989
     998     994     993     995     999     994     993     995
    1000     994     993     995     998     994     993     996
     999     994     993     996    1000     994     993     996
     998     994     993     997     999     994     993     997
    1000     994     993     997    1006    1002    1001    1003
    1007    1002    1001    1003    1008    1002    1001    1003
    1006    1002    1001    1004    1007    1002    1001    1004
    1008    1002    1001    1004    1006    1002    1001    1005
    1007    1002    1001    1005    1008    1002    1001    1005
    1014    1010    1009    1011    1015    1010    1009    1011
    1016    1010    1009    1011    1014    1010    1009    1012
    1015    1010    1009    1012    1016    1010    1009    1012
    1014    1010    1009    1013    1015    1010    1009    1013
    1016    1010    1009    1013    1022    1018    1017    1019
    1023    1018    1017    1019    1024    1018    1017    1019
    1022    1018    1017    1020    1023    1018    1017    1020
    1024    1018    1017    1020    1022    1018    1017    1021
    1023    1018    1017    1021    1024    1018    1017    1021
    1030    1026    1025    1027    1031    1026    1025    1027
    1032    1026    1025    1027    1030    1026    1025    1028
    1031    1026    1025    1028    1032    1026    1025    1028
    1030    1026    1025    1029    1031    1026    1025    1029
    1032    1026    1025    1029    1038    1034    1033    1035
    1039    1034    1033    1035    1040    1034    1033    1035
    1038    1034    1033    1036    1039    1034    1033    1036
    1040    1034    1033    1036    1038    1034    1033    1037
    1039    1034    1033    1037    1040    1034    1033    1037
    1046    1042    1041    1043    1047    1042    1041    1043
    1048    1042    1041    1043    1046    1042    1041    1044
    1047    1042    1041    1044    1048    1042    1041    1044
    1046    1042    1041    1045    1047    1042    1041    1045
    1048    1042    1041    1045    1054    1050    1049    1051
    1055    1050    1049    1051    1056    1050    1049    1051
    1054    1050    1049    1052    1055    1050    1049    1052
    1056    1050    1049    1052    1054    1050    1049    1053
    1055    1050    1049    1053    1056    1050    1049    1053
    1062    1058    1057    1059    1063    1058    1057    1059
    1064    1058    1057    1059    1062    1058    1057    1060
    1063    1058    1057    1060    1064    1058    1057    1060
    1062    1058    1057    1061    1063    1058    1057    1061
    1064    1058    1057    1061    1070    1066    1065    1067
    1071    1066    1065    1067    1072    1066    1065    1067
    1070    1066    1065    1068    1071    1066    1065    1068
    1072    1066    1065    1068    1070    1066    1065    1069
    1071    1066    1065    1069    1072    1066    1065    1069
    1078    1074    1073    1075    1079    1074    1073    1075
    1080    1074    1073    1075    1078    1074    1073    1076
    1079    1074    1073    1076    1080    1074    1073    1076
    1078    1074    1073    1077    1079    1074    1073    1077
    1080    1074    1073    1077    1086    1082    1081    1083
    1087    1082    1081    1083    1088    1082    1081    1083
    1086    1082    1081    1084    1087    1082    1081    1084
    1088    1082    1081    1084    1086    1082    1081    1085
    1087    1082    1081    1085    1088    1082    1081    1085
    1094    1090    1089    1091    1095    1090    1089    1091
    1096    1090    1089    1091    1094    1090    1089    1092
    1095    1090    1089    1092    1096    1090    1089    1092
    1094    1090    1089    1093    1095    1090    1089    1093
    1096    1090    1089    1093    1102    1098    1097    1099
    1103    1098    1097    1099    1104    1098    1097    1099
    1102    1098    1097    1100    1103    1098    1097    1100
    1104    1098    1097    1100    1102    1098    1097    1101
    1103    1098    1097    1101    1104    1098    1097    1101
    1110    1106    1105    1107    1111    1106    1105    1107
    1112    1106    1105    1107    1110    1106    1105    1108
    1111    1106    1105    1108    1112    1106    1105    1108
    1110    1106    1105    1109    1111    1106    1105    1109
    1112    1106    1105    1109    1118    1114    1113    1115
    1119    1114    1113    1115    1120    1114    1113    1115
    1118    1114    1113    1116    1119    1114    1113    1116
    1120    1114    1113    1116    1118    1114    1113    1117
    1119    1114    1113    1117    1120    1114    1113    1117
    1126    1122    1121    1123    1127    1122    1121    1123
    1128    1122    1121    1123    1126    1122    1121    1124
    1127    1122    1121    1124    1128    1122    1121    1124
    1126    1122    1121    1125    1127    1122    1121    1125
    1128    1122    1121    1125    1134    1130    1129    1131
    1135    1130    1129    1131    1136    1130    1129    1131
    1134    1130    1129    1132    1135    1130    1129    1132
    1136    1130    1129    1132    1134    1130    1129    1133
    1135    1130    1129    1133    1136    1130    1129    1133
    1142    1138    1137    1139    1143    1138    1137    1139
    1144    1138    1137    1139    1142    1138    1137    1140
    1143    1138    1137    1140    1144    1138    1137    1140
    1142    1138    1137    1141    1143    1138    1137    1141
    1144    1138    1137    1141    1150    1146    1145    1147
    1151    1146    1145    1147    1152    1146    1145    1147
    1150    1146    1145    1148    1151    1146    1145    1148
    1152    1146    1145    1148    1150    1146    1145    1149
    1151    1146    1145    1149    1152    1146    1145    1149
    1158    1154    1153    1155    1159    1154    1153    1155
    1160    1154    1153    1155    1158    1154    1153    1156
    1159    1154    1153    1156    1160    1154    1153    1156
    1158    1154    1153    1157    1159    1154    1153    1157
    1160    1154    1153    1157    1166    1162    1161    1163
    1167    1162    1161    1163    1168    1162    1161    1163
    1166    1162    1161    1164    1167    1162    1161    1164
    1168    1162    1161    1164    1166    1162    1161    1165
    1167    1162    1161    1165    1168    1162    1161    1165
    1174    1170    1169    1171    1175    1170    1169    1171
    1176    1170    1169    1171    1174    1170    1169    1172
    1175    1170    1169    1172    1176    1170    1169    1172
    1174    1170    1169    1173    1175    1170    1169    1173
    1176    1170    1169    1173    1182    1178    1177    1179
    1183    1178    1177    1179    1184    1178    1177    1179
    1182    1178    1177    1180    1183    1178    1177    1180
    1184    1178    1177    1180    1182    1178    1177    1181
    1183    1178    1177    1181    1184    1178    1177    1181
    1190    1186    1185    1187    1191    1186    1185    1187
    1192    1186    1185    1187    1190    1186    1185    1188
    1191    1186    1185    1188    1192    1186    1185    1188
    1190    1186    1185    1189    1191    1186    1185    1189
    1192    1186    1185    1189    1198    1194    1193    1195
    1199    1194    1193    1195    1200    1194    1193    1195
    1198    1194    1193    1196    1199    1194    1193    1196
    1200    1194    1193    1196    1198    1194    1193    1197
    1199    1194    1193    1197    1200    1194    1193    1197
    1206    1202    1201    1203    1207    1202    1201    1203
    1208    1202    1201    1203    1206    1202    1201    1204
    1207    1202    1201    1204    1208    1202    1201    1204
    1206    1202    1201    1205    1207    1202    1201    1205
    1208    1202    1201    1205    1214    1210    1209    1211
    1215    1210    1209    1211    1216    1210    1209    1211
    1214    1210    1209    1212    1215    1210    1209    1212
    1216    1210    1209    1212    1214    1210    1209    1213
    1215    1210    1209    1213    1216    1210    1209    1213
    1222    1218    1217    1219    1223    1218    1217    1219
    1224    1218    1217    1219    1222    1218    1217    1220
    1223    1218    1217    1220    1224    1218    1217    1220
    1222    1218    1217    1221    1223    1218    1217    1221
    1224    1218    1217    1221    1230    1226    1225    1227
    1231    1226    1225    1227    1232    1226    1225    1227
    1230    1226    1225    1228    1231    1226    1225    1228
    1232    1226    1225    1228    1230    1226    1225    1229
    1231    1226    1225    1229    1232    1226    1225    1229
    1238    1234    1233    1235    1239    1234    1233    1235
    1240    1234    1233    1235    1238    1234    1233    1236
    1239    1234    1233    1236    1240    1234    1233    1236
    1238    1234    1233    1237    1239    1234    1233    1237
    1240    1234    1233    1237    1246    1242    1241    1243
    1247    1242    1241    1243    1248    1242    1241    1243
    1246    1242    1241    1244    1247    1242    1241    1244
    1248    1242    1241    1244    1246    1242    1241    1245
    1247    1242    1241    1245    1248    1242    1241    1245
    1254    1250    1249    1251    1255    1250    1249    1251
    1256    1250    1249    1251    1254    1250    1249    1252
    1255    1250    1249    1252    1256    1250    1249    1252
    1254    1250    1249    1253    1255    1250    1249    1253
    1256    1250    1249    1253    1262    1258    1257    1259
    1263    1258    1257    1259    1264    1258    1257    1259
    1262    1258    1257    1260    1263    1258    1257    1260
    1264    1258    1257    1260    1262    1258    1257    1261
    1263    1258    1257    1261    1264    1258    1257    1261
    1270    1266    1265    1267    1271    1266    1265    1267
    1272    1266    1265    1267    1270    1266    1265    1268
    1271    1266    1265    1268    1272    1266    1265    1268
    1270    1266    1265    1269    1271    1266    1265    1269
    1272    1266    1265    1269    1278    1274    1273    1275
    1279    1274    1273    1275    1280    1274    1273    1275
    1278    1274    1273    1276    1279    1274    1273    1276
    1280    1274    1273    1276    1278    1274    1273    1277
    1279    1274    1273    1277    1280    1274    1273    1277
    1286    1282    1281    1283    1287    1282    1281    1283
    1288    1282    1281    1283    1286    1282    1281    1284
    1287    1282    1281    1284    1288    1282    1281    1284
    1286    1282    1281    1285    1287    1282    1281    1285
    1288    1282    1281    1285    1294    1290    1289    1291
    1295    1290    1289    1291    1296    1290    1289    1291
    1294    1290    1289    1292    1295    1290    1289    1292
    1296    1290    1289    1292    1294    1290    1289    1293
    1295    1290    1289    1293    1296    1290    1289    1293
    1302    1298    1297    1299    1303    1298    1297    1299
    1304    1298    1297    1299    1302    1298    1297    1300
    1303    1298    1297    1300    1304    1298    1297    1300
    1302    1298    1297    1301    1303    1298    1297    1301
    1304    1298    1297    1301    1310    1306    1305    1307
    1311    1306    1305    1307    1312    1306    1305    1307
    1310    1306    1305    1308    1311    1306    1305    1308
    1312    1306    1305    1308    1310    1306    1305    1309
    1311    1306    1305    1309    1312    1306    1305    1309
    1318    1314    1313    1315    1319    1314    1313    1315
    1320    1314    1313    1315    1318    1314    1313    1316
    1319    1314    1313    1316    1320    1314    1313    1316
    1318    1314    1313    1317    1319    1314    1313    1317
    1320    1314    1313    1317    1326    1322    1321    1323
    1327    1322    1321    1323    1328    1322    1321    1323
    1326    1322    1321    1324    1327    1322    1321    1324
    1328    1322    1321    1324    1326    1322    1321    1325
    1327    1322    1321    1325    1328    1322    1321    1325
    1334    1330    1329    1331    1335    1330    1329    1331
    1336    1330    1329    1331    1334    1330    1329    1332
    1335    1330    1329    1332    1336    1330    1329    1332
    1334    1330    1329    1333    1335    1330    1329    1333
    1336    1330    1329    1333    1342    1338    1337    1339
    1343    1338    1337    1339    1344    1338    1337    1339
    1342    1338    1337    1340    1343    1338    1337    1340
    1344    1338    1337    1340    1342    1338    1337    1341
    1343    1338    1337    1341    1344    1338    1337    1341
    1350    1346    1345    1347    1351    1346    1345    1347
    1352    1346    1345    1347    1350    1346    1345    1348
    1351    1346    1345    1348    1352    1346    1345    1348
    1350    1346    1345    1349    1351    1346    1345    1349
    1352    1346    1345    1349    1358    1354    1353    1355
    1359    1354    1353    1355    1360    1354    1353    1355
    1358    1354    1353    1356    1359    1354    1353    1356
    1360    1354    1353    1356    1358    1354    1353    1357
    1359    1354    1353    1357    1360    1354    1353    1357
    1366    1362    1361    1363    1367    1362    1361    1363
    1368    1362    1361    1363    1366    1362    1361    1364
    1367    1362    1361    1364    1368    1362    1361    1364
    1366    1362    1361    1365    1367    1362    1361    1365
    1368    1362    1361    1365    1374    1370    1369    1371
    1375    1370    1369    1371    1376    1370    1369    1371
    1374    1370    1369    1372    1375    1370    1369    1372
    1376    1370    1369    1372    1374    1370    1369    1373
    1375    1370    1369    1373    1376    1370    1369    1373
    1382    1378    1377    1379    1383    1378    1377    1379
    1384    1378    1377    1379    1382    1378    1377    1380
    1383    1378    1377    1380    1384    1378    1377    1380
    1382    1378    1377    1381    1383    1378    1377    1381
    1384    1378    1377    1381    1390    1386    1385    1387
    1391    1386    1385    1387    1392    1386    1385    1387
    1390    1386    1385    1388    1391    1386    1385    1388
    1392    1386    1385    1388    1390    1386    1385    1389
    1391    1386    1385    1389    1392    1386    1385    1389
    1398    1394    1393    1395    1399    1394    1393    1395
    1400    1394    1393    1395    1398    1394    1393    1396
    1399    1394    1393    1396    1400    1394    1393    1396
    1398    1394    1393    1397    1399    1394    1393    1397
    1400    1394    1393    1397    1406    1402    1401    1403
    1407    1402    1401    1403    1408    1402    1401    1403
    1406    1402    1401    1404    1407    1402    1401    1404
    1408    1402    1401    1404    1406    1402    1401    1405
    1407    1402    1401    1405    1408    1402    1401    1405
    1414    1410    1409    1411    1415    1410    1409    1411
    1416    1410    1409    1411    1414    1410    1409    1412
    1415    1410    1409    1412    1416    1410    1409    1412
    1414    1410    1409    1413    1415    1410    1409    1413
    1416    1410    1409    1413    1422    1418    1417    1419
    1423    1418    1417    1419    1424    1418    1417    1419
    1422    1418    1417    1420    1423    1418    1417    1420
    1424    1418    1417    1420    1422    1418    1417    1421
    1423    1418    1417    1421    1424    1418    1417    1421
    1430    1426    1425    1427    1431    1426    1425    1427
    1432    1426    1425    1427    1430    1426    1425    1428
    1431    1426    1425    1428    1432    1426    1425    1428
    1430    1426    1425    1429    1431    1426    1425    1429
    1432    1426    1425    1429    1438    1434    1433    1435
    1439    1434    1433    1435    1440    1434    1433    1435
    1438    1434    1433    1436    1439    1434    1433    1436
    1440    1434    1433    1436    1438    1434    1433    1437
    1439    1434    1433    1437    1440    1434    1433    1437
    1446    1442    1441    1443    1447    1442    1441    1443
    1448    1442    1441    1443    1446    1442    1441    1444
    1447    1442    1441    1444    1448    1442    1441    1444
    1446    1442    1441    1445    1447    1442    1441    1445
    1448    1442    1441    1445    1454    1450    1449    1451
    1455    1450    1449    1451    1456    1450    1449    1451
    1454    1450    1449    1452    1455    1450    1449    1452
    1456    1450    1449    1452    1454    1450    1449    1453
    1455    1450    1449    1453    1456    1450    1449    1453
    1462    1458    1457    1459    1463    1458    1457    1459
    1464    1458    1457    1459    1462    1458    1457    1460
    1463    1458    1457    1460    1464    1458    1457    1460
    1462    1458    1457    1461    1463    1458    1457    1461
    1464    1458    1457    1461    1470    1466    1465    1467
    1471    1466    1465    1467    1472    1466    1465    1467
    1470    1466    1465    1468    1471    1466    1465    1468
    1472    1466    1465    1468    1470    1466    1465    1469
    1471    1466    1465    1469    1472    1466    1465    1469
    1478    1474    1473    1475    1479    1474    1473    1475
    1480    1474    1473    1475    1478    1474    1473    1476
    1479    1474    1473    1476    1480    1474    1473    1476
    1478    1474    1473    1477    1479    1474    1473    1477
    1480    1474    1473    1477    1486    1482    1481    1483
    1487    1482    1481    1483    1488    1482    1481    1483
    1486    1482    1481    1484    1487    1482    1481    1484
    1488    1482    1481    1484    1486    1482    1481    1485
    1487    1482    1481    1485    1488    1482    1481    1485
    1494    1490    1489    1491    1495    1490    1489    1491
    1496    1490    1489    1491    1494    1490    1489    1492
    1495    1490    1489    1492    1496    1490    1489    1492
    1494    1490    1489    1493    1495    1490    1489    1493
    1496    1490    1489    1493    1502    1498    1497    1499
    1503    1498    1497    1499    1504    1498    1497    1499
    1502    1498    1497    1500    1503    1498    1497    1500
    1504    1498    1497    1500    1502    1498    1497    1501
    1503    1498    1497    1501    1504    1498    1497    1501
    1510    1506    1505    1507    1511    1506    1505    1507
    1512    1506    1505    1507    1510    1506    1505    1508
    1511    1506    1505    1508    1512    1506    1505    1508
    1510    1506    1505    1509    1511    1506    1505    1509
    1512    1506    1505    1509    1518    1514    1513    1515
    1519    1514    1513    1515    1520    1514    1513    1515
    1518    1514    1513    1516    1519    1514    1513    1516
    1520    1514    1513    1516    1518    1514    1513    1517
    1519    1514    1513    1517    1520    1514    1513    1517
    1526    1522    1521    1523    1527    1522    1521    1523
    1528    1522    1521    1523    1526    1522    1521    1524
    1527    1522    1521    1524    1528    1522    1521    1524
    1526    1522    1521    1525    1527    1522    1521    1525
    1528    1522    1521    1525    1534    1530    1529    1531
    1535    1530    1529    1531    1536    1530    1529    1531
    1534    1530    1529    1532    1535    1530    1529    1532
    1536    1530    1529    1532    1534    1530    1529    1533
    1535    1530    1529    1533    1536    1530    1529    1533
    1542    1538    1537    1539    1543    1538    1537    1539
    1544    1538    1537    1539    1542    1538    1537    1540
    1543    1538    1537    1540    1544    1538    1537    1540
    1542    1538    1537    1541    1543    1538    1537    1541
    1544    1538    1537    1541    1550    1546    1545    1547
    1551    1546    1545    1547    1552    1546    1545    1547
    1550    1546    1545    1548    1551    1546    1545    1548
    1552    1546    1545    1548    1550    1546    1545    1549
    1551    1546    1545    1549    1552    1546    1545    1549
    1558    1554    1553    1555    1559    1554    1553    1555
    1560    1554    1553    1555    1558    1554    1553    1556
    1559    1554    1553    1556    1560    1554    1553    1556
    1558    1554    1553    1557    1559    1554    1553    1557
    1560    1554    1553    1557    1566    1562    1561    1563
    1567    1562    1561    1563    1568    1562    1561    1563
    1566    1562    1561    1564    1567    1562    1561    1564
    1568    1562    1561    1564    1566    1562    1561    1565
    1567    1562    1561    1565    1568    1562    1561    1565
    1574    1570    1569    1571    1575    1570    1569    1571
    1576    1570    1569    1571    1574    1570    1569    1572
    1575    1570    1569    1572    1576    1570    1569    1572
    1574    1570    1569    1573    1575    1570    1569    1573
    1576    1570    1569    1573    1582    1578    1577    1579
    1583    1578    1577    1579    1584    1578    1577    1579
    1582    1578    1577    1580    1583    1578    1577    1580
    1584    1578    1577    1580    1582    1578    1577    1581
    1583    1578    1577    1581    1584    1578    1577    1581
    1590    1586    1585    1587    1591    1586    1585    1587
    1592    1586    1585    1587    1590    1586    1585    1588
    1591    1586    1585    1588    1592    1586    1585    1588
    1590    1586    1585    1589    1591    1586    1585    1589
    1592    1586    1585    1589    1598    1594    1593    1595
    1599    1594    1593    1595    1600    1594    1593    1595
    1598    1594    1593    1596    1599    1594    1593    1596
    1600    1594    1593    1596    1598    1594    1593    1597
    1599    1594    1593    1597    1600    1594    1593    1597

       0 !NIMPHI: impropers


       0 !NDON: donors

       0 !NACC: acceptors

       0 !NNB

       0 !NGRP 

