PSF 

       3 !NTITLE
 REMARKS this file butane_GCMC_N1000_box1 - created by using MoSDeF-GOMC. 
 REMARKS parameters from the {'BUT': '/home/ia5498/opc_water/gmx-units-trappe-mie.xml'} force field via MoSDef
 REMARKS created on 2026-08-06 15:36:01.424067


     400 !NATOM
       1 A    1    BUT  BD1  CH30     0.000000       15.0344           
       2 A    1    BUT  BD2  CH20     0.000000       14.0266           
       3 A    1    BUT  BD3  CH20     0.000000       14.0266           
       4 A    1    BUT  BD4  CH30     0.000000       15.0344           
       5 A    2    BUT  BD1  CH30     0.000000       15.0344           
       6 A    2    BUT  BD2  CH20     0.000000       14.0266           
       7 A    2    BUT  BD3  CH20     0.000000       14.0266           
       8 A    2    BUT  BD4  CH30     0.000000       15.0344           
       9 A    3    BUT  BD1  CH30     0.000000       15.0344           
      10 A    3    BUT  BD2  CH20     0.000000       14.0266           
      11 A    3    BUT  BD3  CH20     0.000000       14.0266           
      12 A    3    BUT  BD4  CH30     0.000000       15.0344           
      13 A    4    BUT  BD1  CH30     0.000000       15.0344           
      14 A    4    BUT  BD2  CH20     0.000000       14.0266           
      15 A    4    BUT  BD3  CH20     0.000000       14.0266           
      16 A    4    BUT  BD4  CH30     0.000000       15.0344           
      17 A    5    BUT  BD1  CH30     0.000000       15.0344           
      18 A    5    BUT  BD2  CH20     0.000000       14.0266           
      19 A    5    BUT  BD3  CH20     0.000000       14.0266           
      20 A    5    BUT  BD4  CH30     0.000000       15.0344           
      21 A    6    BUT  BD1  CH30     0.000000       15.0344           
      22 A    6    BUT  BD2  CH20     0.000000       14.0266           
      23 A    6    BUT  BD3  CH20     0.000000       14.0266           
      24 A    6    BUT  BD4  CH30     0.000000       15.0344           
      25 A    7    BUT  BD1  CH30     0.000000       15.0344           
      26 A    7    BUT  BD2  CH20     0.000000       14.0266           
      27 A    7    BUT  BD3  CH20     0.000000       14.0266           
      28 A    7    BUT  BD4  CH30     0.000000       15.0344           
      29 A    8    BUT  BD1  CH30     0.000000       15.0344           
      30 A    8    BUT  BD2  CH20     0.000000       14.0266           
      31 A    8    BUT  BD3  CH20     0.000000       14.0266           
      32 A    8    BUT  BD4  CH30     0.000000       15.0344           
      33 A    9    BUT  BD1  CH30     0.000000       15.0344           
      34 A    9    BUT  BD2  CH20     0.000000       14.0266           
      35 A    9    BUT  BD3  CH20     0.000000       14.0266           
      36 A    9    BUT  BD4  CH30     0.000000       15.0344           
      37 A    10   BUT  BD1  CH30     0.000000       15.0344           
      38 A    10   BUT  BD2  CH20     0.000000       14.0266           
      39 A    10   BUT  BD3  CH20     0.000000       14.0266           
      40 A    10   BUT  BD4  CH30     0.000000       15.0344           
      41 A    11   BUT  BD1  CH30     0.000000       15.0344           
      42 A    11   BUT  BD2  CH20     0.000000       14.0266           
      43 A    11   BUT  BD3  CH20     0.000000       14.0266           
      44 A    11   BUT  BD4  CH30     0.000000       15.0344           
      45 A    12   BUT  BD1  CH30     0.000000       15.0344           
      46 A    12   BUT  BD2  CH20     0.000000       14.0266           
      47 A    12   BUT  BD3  CH20     0.000000       14.0266           
      48 A    12   BUT  BD4  CH30     0.000000       15.0344           
      49 A    13   BUT  BD1  CH30     0.000000       15.0344           
      50 A    13   BUT  BD2  CH20     0.000000       14.0266           
      51 A    13   BUT  BD3  CH20     0.000000       14.0266           
      52 A    13   BUT  BD4  CH30     0.000000       15.0344           
      53 A    14   BUT  BD1  CH30     0.000000       15.0344           
      54 A    14   BUT  BD2  CH20     0.000000       14.0266           
      55 A    14   BUT  BD3  CH20     0.000000       14.0266           
      56 A    14   BUT  BD4  CH30     0.000000       15.0344           
      57 A    15   BUT  BD1  CH30     0.000000       15.0344           
      58 A    15   BUT  BD2  CH20     0.000000       14.0266           
      59 A    15   BUT  BD3  CH20     0.000000       14.0266           
      60 A    15   BUT  BD4  CH30     0.000000       15.0344           
      61 A    16   BUT  BD1  CH30     0.000000       15.0344           
      62 A    16   BUT  BD2  CH20     0.000000       14.0266           
      63 A    16   BUT  BD3  CH20     0.000000       14.0266           
      64 A    16   BUT  BD4  CH30     0.000000       15.0344           
      65 A    17   BUT  BD1  CH30     0.000000       15.0344           
      66 A    17   BUT  BD2  CH20     0.000000       14.0266           
      67 A    17   BUT  BD3  CH20     0.000000       14.0266           
      68 A    17   BUT  BD4  CH30     0.000000       15.0344           
      69 A    18   BUT  BD1  CH30     0.000000       15.0344           
      70 A    18   BUT  BD2  CH20     0.000000       14.0266           
      71 A    18   BUT  BD3  CH20     0.000000       14.0266           
      72 A    18   BUT  BD4  CH30     0.000000       15.0344           
      73 A    19   BUT  BD1  CH30     0.000000       15.0344           
      74 A    19   BUT  BD2  CH20     0.000000       14.0266           
      75 A    19   BUT  BD3  CH20     0.000000       14.0266           
      76 A    19   BUT  BD4  CH30     0.000000       15.0344           
      77 A    20   BUT  BD1  CH30     0.000000       15.0344           
      78 A    20   BUT  BD2  CH20     0.000000       14.0266           
      79 A    20   BUT  BD3  CH20     0.000000       14.0266           
      80 A    20   BUT  BD4  CH30     0.000000       15.0344           
      81 A    21   BUT  BD1  CH30     0.000000       15.0344           
      82 A    21   BUT  BD2  CH20     0.000000       14.0266           
      83 A    21   BUT  BD3  CH20     0.000000       14.0266           
      84 A    21   BUT  BD4  CH30     0.000000       15.0344           
      85 A    22   BUT  BD1  CH30     0.000000       15.0344           
      86 A    22   BUT  BD2  CH20     0.000000       14.0266           
      87 A    22   BUT  BD3  CH20     0.000000       14.0266           
      88 A    22   BUT  BD4  CH30     0.000000       15.0344           
      89 A    23   BUT  BD1  CH30     0.000000       15.0344           
      90 A    23   BUT  BD2  CH20     0.000000       14.0266           
      91 A    23   BUT  BD3  CH20     0.000000       14.0266           
      92 A    23   BUT  BD4  CH30     0.000000       15.0344           
      93 A    24   BUT  BD1  CH30     0.000000       15.0344           
      94 A    24   BUT  BD2  CH20     0.000000       14.0266           
      95 A    24   BUT  BD3  CH20     0.000000       14.0266           
      96 A    24   BUT  BD4  CH30     0.000000       15.0344           
      97 A    25   BUT  BD1  CH30     0.000000       15.0344           
      98 A    25   BUT  BD2  CH20     0.000000       14.0266           
      99 A    25   BUT  BD3  CH20     0.000000       14.0266           
     100 A    25   BUT  BD4  CH30     0.000000       15.0344           
     101 A    26   BUT  BD1  CH30     0.000000       15.0344           
     102 A    26   BUT  BD2  CH20     0.000000       14.0266           
     103 A    26   BUT  BD3  CH20     0.000000       14.0266           
     104 A    26   BUT  BD4  CH30     0.000000       15.0344           
     105 A    27   BUT  BD1  CH30     0.000000       15.0344           
     106 A    27   BUT  BD2  CH20     0.000000       14.0266           
     107 A    27   BUT  BD3  CH20     0.000000       14.0266           
     108 A    27   BUT  BD4  CH30     0.000000       15.0344           
     109 A    28   BUT  BD1  CH30     0.000000       15.0344           
     110 A    28   BUT  BD2  CH20     0.000000       14.0266           
     111 A    28   BUT  BD3  CH20     0.000000       14.0266           
     112 A    28   BUT  BD4  CH30     0.000000       15.0344           
     113 A    29   BUT  BD1  CH30     0.000000       15.0344           
     114 A    29   BUT  BD2  CH20     0.000000       14.0266           
     115 A    29   BUT  BD3  CH20     0.000000       14.0266           
     116 A    29   BUT  BD4  CH30     0.000000       15.0344           
     117 A    30   BUT  BD1  CH30     0.000000       15.0344           
     118 A    30   BUT  BD2  CH20     0.000000       14.0266           
     119 A    30   BUT  BD3  CH20     0.000000       14.0266           
     120 A    30   BUT  BD4  CH30     0.000000       15.0344           
     121 A    31   BUT  BD1  CH30     0.000000       15.0344           
     122 A    31   BUT  BD2  CH20     0.000000       14.0266           
     123 A    31   BUT  BD3  CH20     0.000000       14.0266           
     124 A    31   BUT  BD4  CH30     0.000000       15.0344           
     125 A    32   BUT  BD1  CH30     0.000000       15.0344           
     126 A    32   BUT  BD2  CH20     0.000000       14.0266           
     127 A    32   BUT  BD3  CH20     0.000000       14.0266           
     128 A    32   BUT  BD4  CH30     0.000000       15.0344           
     129 A    33   BUT  BD1  CH30     0.000000       15.0344           
     130 A    33   BUT  BD2  CH20     0.000000       14.0266           
     131 A    33   BUT  BD3  CH20     0.000000       14.0266           
     132 A    33   BUT  BD4  CH30     0.000000       15.0344           
     133 A    34   BUT  BD1  CH30     0.000000       15.0344           
     134 A    34   BUT  BD2  CH20     0.000000       14.0266           
     135 A    34   BUT  BD3  CH20     0.000000       14.0266           
     136 A    34   BUT  BD4  CH30     0.000000       15.0344           
     137 A    35   BUT  BD1  CH30     0.000000       15.0344           
     138 A    35   BUT  BD2  CH20     0.000000       14.0266           
     139 A    35   BUT  BD3  CH20     0.000000       14.0266           
     140 A    35   BUT  BD4  CH30     0.000000       15.0344           
     141 A    36   BUT  BD1  CH30     0.000000       15.0344           
     142 A    36   BUT  BD2  CH20     0.000000       14.0266           
     143 A    36   BUT  BD3  CH20     0.000000       14.0266           
     144 A    36   BUT  BD4  CH30     0.000000       15.0344           
     145 A    37   BUT  BD1  CH30     0.000000       15.0344           
     146 A    37   BUT  BD2  CH20     0.000000       14.0266           
     147 A    37   BUT  BD3  CH20     0.000000       14.0266           
     148 A    37   BUT  BD4  CH30     0.000000       15.0344           
     149 A    38   BUT  BD1  CH30     0.000000       15.0344           
     150 A    38   BUT  BD2  CH20     0.000000       14.0266           
     151 A    38   BUT  BD3  CH20     0.000000       14.0266           
     152 A    38   BUT  BD4  CH30     0.000000       15.0344           
     153 A    39   BUT  BD1  CH30     0.000000       15.0344           
     154 A    39   BUT  BD2  CH20     0.000000       14.0266           
     155 A    39   BUT  BD3  CH20     0.000000       14.0266           
     156 A    39   BUT  BD4  CH30     0.000000       15.0344           
     157 A    40   BUT  BD1  CH30     0.000000       15.0344           
     158 A    40   BUT  BD2  CH20     0.000000       14.0266           
     159 A    40   BUT  BD3  CH20     0.000000       14.0266           
     160 A    40   BUT  BD4  CH30     0.000000       15.0344           
     161 A    41   BUT  BD1  CH30     0.000000       15.0344           
     162 A    41   BUT  BD2  CH20     0.000000       14.0266           
     163 A    41   BUT  BD3  CH20     0.000000       14.0266           
     164 A    41   BUT  BD4  CH30     0.000000       15.0344           
     165 A    42   BUT  BD1  CH30     0.000000       15.0344           
     166 A    42   BUT  BD2  CH20     0.000000       14.0266           
     167 A    42   BUT  BD3  CH20     0.000000       14.0266           
     168 A    42   BUT  BD4  CH30     0.000000       15.0344           
     169 A    43   BUT  BD1  CH30     0.000000       15.0344           
     170 A    43   BUT  BD2  CH20     0.000000       14.0266           
     171 A    43   BUT  BD3  CH20     0.000000       14.0266           
     172 A    43   BUT  BD4  CH30     0.000000       15.0344           
     173 A    44   BUT  BD1  CH30     0.000000       15.0344           
     174 A    44   BUT  BD2  CH20     0.000000       14.0266           
     175 A    44   BUT  BD3  CH20     0.000000       14.0266           
     176 A    44   BUT  BD4  CH30     0.000000       15.0344           
     177 A    45   BUT  BD1  CH30     0.000000       15.0344           
     178 A    45   BUT  BD2  CH20     0.000000       14.0266           
     179 A    45   BUT  BD3  CH20     0.000000       14.0266           
     180 A    45   BUT  BD4  CH30     0.000000       15.0344           
     181 A    46   BUT  BD1  CH30     0.000000       15.0344           
     182 A    46   BUT  BD2  CH20     0.000000       14.0266           
     183 A    46   BUT  BD3  CH20     0.000000       14.0266           
     184 A    46   BUT  BD4  CH30     0.000000       15.0344           
     185 A    47   BUT  BD1  CH30     0.000000       15.0344           
     186 A    47   BUT  BD2  CH20     0.000000       14.0266           
     187 A    47   BUT  BD3  CH20     0.000000       14.0266           
     188 A    47   BUT  BD4  CH30     0.000000       15.0344           
     189 A    48   BUT  BD1  CH30     0.000000       15.0344           
     190 A    48   BUT  BD2  CH20     0.000000       14.0266           
     191 A    48   BUT  BD3  CH20     0.000000       14.0266           
     192 A    48   BUT  BD4  CH30     0.000000       15.0344           
     193 A    49   BUT  BD1  CH30     0.000000       15.0344           
     194 A    49   BUT  BD2  CH20     0.000000       14.0266           
     195 A    49   BUT  BD3  CH20     0.000000       14.0266           
     196 A    49   BUT  BD4  CH30     0.000000       15.0344           
     197 A    50   BUT  BD1  CH30     0.000000       15.0344           
     198 A    50   BUT  BD2  CH20     0.000000       14.0266           
     199 A    50   BUT  BD3  CH20     0.000000       14.0266           
     200 A    50   BUT  BD4  CH30     0.000000       15.0344           
     201 A    51   BUT  BD1  CH30     0.000000       15.0344           
     202 A    51   BUT  BD2  CH20     0.000000       14.0266           
     203 A    51   BUT  BD3  CH20     0.000000       14.0266           
     204 A    51   BUT  BD4  CH30     0.000000       15.0344           
     205 A    52   BUT  BD1  CH30     0.000000       15.0344           
     206 A    52   BUT  BD2  CH20     0.000000       14.0266           
     207 A    52   BUT  BD3  CH20     0.000000       14.0266           
     208 A    52   BUT  BD4  CH30     0.000000       15.0344           
     209 A    53   BUT  BD1  CH30     0.000000       15.0344           
     210 A    53   BUT  BD2  CH20     0.000000       14.0266           
     211 A    53   BUT  BD3  CH20     0.000000       14.0266           
     212 A    53   BUT  BD4  CH30     0.000000       15.0344           
     213 A    54   BUT  BD1  CH30     0.000000       15.0344           
     214 A    54   BUT  BD2  CH20     0.000000       14.0266           
     215 A    54   BUT  BD3  CH20     0.000000       14.0266           
     216 A    54   BUT  BD4  CH30     0.000000       15.0344           
     217 A    55   BUT  BD1  CH30     0.000000       15.0344           
     218 A    55   BUT  BD2  CH20     0.000000       14.0266           
     219 A    55   BUT  BD3  CH20     0.000000       14.0266           
     220 A    55   BUT  BD4  CH30     0.000000       15.0344           
     221 A    56   BUT  BD1  CH30     0.000000       15.0344           
     222 A    56   BUT  BD2  CH20     0.000000       14.0266           
     223 A    56   BUT  BD3  CH20     0.000000       14.0266           
     224 A    56   BUT  BD4  CH30     0.000000       15.0344           
     225 A    57   BUT  BD1  CH30     0.000000       15.0344           
     226 A    57   BUT  BD2  CH20     0.000000       14.0266           
     227 A    57   BUT  BD3  CH20     0.000000       14.0266           
     228 A    57   BUT  BD4  CH30     0.000000       15.0344           
     229 A    58   BUT  BD1  CH30     0.000000       15.0344           
     230 A    58   BUT  BD2  CH20     0.000000       14.0266           
     231 A    58   BUT  BD3  CH20     0.000000       14.0266           
     232 A    58   BUT  BD4  CH30     0.000000       15.0344           
     233 A    59   BUT  BD1  CH30     0.000000       15.0344           
     234 A    59   BUT  BD2  CH20     0.000000       14.0266           
     235 A    59   BUT  BD3  CH20     0.000000       14.0266           
     236 A    59   BUT  BD4  CH30     0.000000       15.0344           
     237 A    60   BUT  BD1  CH30     0.000000       15.0344           
     238 A    60   BUT  BD2  CH20     0.000000       14.0266           
     239 A    60   BUT  BD3  CH20     0.000000       14.0266           
     240 A    60   BUT  BD4  CH30     0.000000       15.0344           
     241 A    61   BUT  BD1  CH30     0.000000       15.0344           
     242 A    61   BUT  BD2  CH20     0.000000       14.0266           
     243 A    61   BUT  BD3  CH20     0.000000       14.0266           
     244 A    61   BUT  BD4  CH30     0.000000       15.0344           
     245 A    62   BUT  BD1  CH30     0.000000       15.0344           
     246 A    62   BUT  BD2  CH20     0.000000       14.0266           
     247 A    62   BUT  BD3  CH20     0.000000       14.0266           
     248 A    62   BUT  BD4  CH30     0.000000       15.0344           
     249 A    63   BUT  BD1  CH30     0.000000       15.0344           
     250 A    63   BUT  BD2  CH20     0.000000       14.0266           
     251 A    63   BUT  BD3  CH20     0.000000       14.0266           
     252 A    63   BUT  BD4  CH30     0.000000       15.0344           
     253 A    64   BUT  BD1  CH30     0.000000       15.0344           
     254 A    64   BUT  BD2  CH20     0.000000       14.0266           
     255 A    64   BUT  BD3  CH20     0.000000       14.0266           
     256 A    64   BUT  BD4  CH30     0.000000       15.0344           
     257 A    65   BUT  BD1  CH30     0.000000       15.0344           
     258 A    65   BUT  BD2  CH20     0.000000       14.0266           
     259 A    65   BUT  BD3  CH20     0.000000       14.0266           
     260 A    65   BUT  BD4  CH30     0.000000       15.0344           
     261 A    66   BUT  BD1  CH30     0.000000       15.0344           
     262 A    66   BUT  BD2  CH20     0.000000       14.0266           
     263 A    66   BUT  BD3  CH20     0.000000       14.0266           
     264 A    66   BUT  BD4  CH30     0.000000       15.0344           
     265 A    67   BUT  BD1  CH30     0.000000       15.0344           
     266 A    67   BUT  BD2  CH20     0.000000       14.0266           
     267 A    67   BUT  BD3  CH20     0.000000       14.0266           
     268 A    67   BUT  BD4  CH30     0.000000       15.0344           
     269 A    68   BUT  BD1  CH30     0.000000       15.0344           
     270 A    68   BUT  BD2  CH20     0.000000       14.0266           
     271 A    68   BUT  BD3  CH20     0.000000       14.0266           
     272 A    68   BUT  BD4  CH30     0.000000       15.0344           
     273 A    69   BUT  BD1  CH30     0.000000       15.0344           
     274 A    69   BUT  BD2  CH20     0.000000       14.0266           
     275 A    69   BUT  BD3  CH20     0.000000       14.0266           
     276 A    69   BUT  BD4  CH30     0.000000       15.0344           
     277 A    70   BUT  BD1  CH30     0.000000       15.0344           
     278 A    70   BUT  BD2  CH20     0.000000       14.0266           
     279 A    70   BUT  BD3  CH20     0.000000       14.0266           
     280 A    70   BUT  BD4  CH30     0.000000       15.0344           
     281 A    71   BUT  BD1  CH30     0.000000       15.0344           
     282 A    71   BUT  BD2  CH20     0.000000       14.0266           
     283 A    71   BUT  BD3  CH20     0.000000       14.0266           
     284 A    71   BUT  BD4  CH30     0.000000       15.0344           
     285 A    72   BUT  BD1  CH30     0.000000       15.0344           
     286 A    72   BUT  BD2  CH20     0.000000       14.0266           
     287 A    72   BUT  BD3  CH20     0.000000       14.0266           
     288 A    72   BUT  BD4  CH30     0.000000       15.0344           
     289 A    73   BUT  BD1  CH30     0.000000       15.0344           
     290 A    73   BUT  BD2  CH20     0.000000       14.0266           
     291 A    73   BUT  BD3  CH20     0.000000       14.0266           
     292 A    73   BUT  BD4  CH30     0.000000       15.0344           
     293 A    74   BUT  BD1  CH30     0.000000       15.0344           
     294 A    74   BUT  BD2  CH20     0.000000       14.0266           
     295 A    74   BUT  BD3  CH20     0.000000       14.0266           
     296 A    74   BUT  BD4  CH30     0.000000       15.0344           
     297 A    75   BUT  BD1  CH30     0.000000       15.0344           
     298 A    75   BUT  BD2  CH20     0.000000       14.0266           
     299 A    75   BUT  BD3  CH20     0.000000       14.0266           
     300 A    75   BUT  BD4  CH30     0.000000       15.0344           
     301 A    76   BUT  BD1  CH30     0.000000       15.0344           
     302 A    76   BUT  BD2  CH20     0.000000       14.0266           
     303 A    76   BUT  BD3  CH20     0.000000       14.0266           
     304 A    76   BUT  BD4  CH30     0.000000       15.0344           
     305 A    77   BUT  BD1  CH30     0.000000       15.0344           
     306 A    77   BUT  BD2  CH20     0.000000       14.0266           
     307 A    77   BUT  BD3  CH20     0.000000       14.0266           
     308 A    77   BUT  BD4  CH30     0.000000       15.0344           
     309 A    78   BUT  BD1  CH30     0.000000       15.0344           
     310 A    78   BUT  BD2  CH20     0.000000       14.0266           
     311 A    78   BUT  BD3  CH20     0.000000       14.0266           
     312 A    78   BUT  BD4  CH30     0.000000       15.0344           
     313 A    79   BUT  BD1  CH30     0.000000       15.0344           
     314 A    79   BUT  BD2  CH20     0.000000       14.0266           
     315 A    79   BUT  BD3  CH20     0.000000       14.0266           
     316 A    79   BUT  BD4  CH30     0.000000       15.0344           
     317 A    80   BUT  BD1  CH30     0.000000       15.0344           
     318 A    80   BUT  BD2  CH20     0.000000       14.0266           
     319 A    80   BUT  BD3  CH20     0.000000       14.0266           
     320 A    80   BUT  BD4  CH30     0.000000       15.0344           
     321 A    81   BUT  BD1  CH30     0.000000       15.0344           
     322 A    81   BUT  BD2  CH20     0.000000       14.0266           
     323 A    81   BUT  BD3  CH20     0.000000       14.0266           
     324 A    81   BUT  BD4  CH30     0.000000       15.0344           
     325 A    82   BUT  BD1  CH30     0.000000       15.0344           
     326 A    82   BUT  BD2  CH20     0.000000       14.0266           
     327 A    82   BUT  BD3  CH20     0.000000       14.0266           
     328 A    82   BUT  BD4  CH30     0.000000       15.0344           
     329 A    83   BUT  BD1  CH30     0.000000       15.0344           
     330 A    83   BUT  BD2  CH20     0.000000       14.0266           
     331 A    83   BUT  BD3  CH20     0.000000       14.0266           
     332 A    83   BUT  BD4  CH30     0.000000       15.0344           
     333 A    84   BUT  BD1  CH30     0.000000       15.0344           
     334 A    84   BUT  BD2  CH20     0.000000       14.0266           
     335 A    84   BUT  BD3  CH20     0.000000       14.0266           
     336 A    84   BUT  BD4  CH30     0.000000       15.0344           
     337 A    85   BUT  BD1  CH30     0.000000       15.0344           
     338 A    85   BUT  BD2  CH20     0.000000       14.0266           
     339 A    85   BUT  BD3  CH20     0.000000       14.0266           
     340 A    85   BUT  BD4  CH30     0.000000       15.0344           
     341 A    86   BUT  BD1  CH30     0.000000       15.0344           
     342 A    86   BUT  BD2  CH20     0.000000       14.0266           
     343 A    86   BUT  BD3  CH20     0.000000       14.0266           
     344 A    86   BUT  BD4  CH30     0.000000       15.0344           
     345 A    87   BUT  BD1  CH30     0.000000       15.0344           
     346 A    87   BUT  BD2  CH20     0.000000       14.0266           
     347 A    87   BUT  BD3  CH20     0.000000       14.0266           
     348 A    87   BUT  BD4  CH30     0.000000       15.0344           
     349 A    88   BUT  BD1  CH30     0.000000       15.0344           
     350 A    88   BUT  BD2  CH20     0.000000       14.0266           
     351 A    88   BUT  BD3  CH20     0.000000       14.0266           
     352 A    88   BUT  BD4  CH30     0.000000       15.0344           
     353 A    89   BUT  BD1  CH30     0.000000       15.0344           
     354 A    89   BUT  BD2  CH20     0.000000       14.0266           
     355 A    89   BUT  BD3  CH20     0.000000       14.0266           
     356 A    89   BUT  BD4  CH30     0.000000       15.0344           
     357 A    90   BUT  BD1  CH30     0.000000       15.0344           
     358 A    90   BUT  BD2  CH20     0.000000       14.0266           
     359 A    90   BUT  BD3  CH20     0.000000       14.0266           
     360 A    90   BUT  BD4  CH30     0.000000       15.0344           
     361 A    91   BUT  BD1  CH30     0.000000       15.0344           
     362 A    91   BUT  BD2  CH20     0.000000       14.0266           
     363 A    91   BUT  BD3  CH20     0.000000       14.0266           
     364 A    91   BUT  BD4  CH30     0.000000       15.0344           
     365 A    92   BUT  BD1  CH30     0.000000       15.0344           
     366 A    92   BUT  BD2  CH20     0.000000       14.0266           
     367 A    92   BUT  BD3  CH20     0.000000       14.0266           
     368 A    92   BUT  BD4  CH30     0.000000       15.0344           
     369 A    93   BUT  BD1  CH30     0.000000       15.0344           
     370 A    93   BUT  BD2  CH20     0.000000       14.0266           
     371 A    93   BUT  BD3  CH20     0.000000       14.0266           
     372 A    93   BUT  BD4  CH30     0.000000       15.0344           
     373 A    94   BUT  BD1  CH30     0.000000       15.0344           
     374 A    94   BUT  BD2  CH20     0.000000       14.0266           
     375 A    94   BUT  BD3  CH20     0.000000       14.0266           
     376 A    94   BUT  BD4  CH30     0.000000       15.0344           
     377 A    95   BUT  BD1  CH30     0.000000       15.0344           
     378 A    95   BUT  BD2  CH20     0.000000       14.0266           
     379 A    95   BUT  BD3  CH20     0.000000       14.0266           
     380 A    95   BUT  BD4  CH30     0.000000       15.0344           
     381 A    96   BUT  BD1  CH30     0.000000       15.0344           
     382 A    96   BUT  BD2  CH20     0.000000       14.0266           
     383 A    96   BUT  BD3  CH20     0.000000       14.0266           
     384 A    96   BUT  BD4  CH30     0.000000       15.0344           
     385 A    97   BUT  BD1  CH30     0.000000       15.0344           
     386 A    97   BUT  BD2  CH20     0.000000       14.0266           
     387 A    97   BUT  BD3  CH20     0.000000       14.0266           
     388 A    97   BUT  BD4  CH30     0.000000       15.0344           
     389 A    98   BUT  BD1  CH30     0.000000       15.0344           
     390 A    98   BUT  BD2  CH20     0.000000       14.0266           
     391 A    98   BUT  BD3  CH20     0.000000       14.0266           
     392 A    98   BUT  BD4  CH30     0.000000       15.0344           
     393 A    99   BUT  BD1  CH30     0.000000       15.0344           
     394 A    99   BUT  BD2  CH20     0.000000       14.0266           
     395 A    99   BUT  BD3  CH20     0.000000       14.0266           
     396 A    99   BUT  BD4  CH30     0.000000       15.0344           
     397 A    100  BUT  BD1  CH30     0.000000       15.0344           
     398 A    100  BUT  BD2  CH20     0.000000       14.0266           
     399 A    100  BUT  BD3  CH20     0.000000       14.0266           
     400 A    100  BUT  BD4  CH30     0.000000       15.0344           

     300 !NBOND: bonds
       1       2       3       2       4       3       5       6
       7       6       8       7       9      10      11      10
      12      11      13      14      15      14      16      15
      17      18      19      18      20      19      21      22
      23      22      24      23      25      26      27      26
      28      27      29      30      31      30      32      31
      33      34      35      34      36      35      37      38
      39      38      40      39      41      42      43      42
      44      43      45      46      47      46      48      47
      49      50      51      50      52      51      53      54
      55      54      56      55      57      58      59      58
      60      59      61      62      63      62      64      63
      65      66      67      66      68      67      69      70
      71      70      72      71      73      74      75      74
      76      75      77      78      79      78      80      79
      81      82      83      82      84      83      85      86
      87      86      88      87      89      90      91      90
      92      91      93      94      95      94      96      95
      97      98      99      98     100      99     101     102
     103     102     104     103     105     106     107     106
     108     107     109     110     111     110     112     111
     113     114     115     114     116     115     117     118
     119     118     120     119     121     122     123     122
     124     123     125     126     127     126     128     127
     129     130     131     130     132     131     133     134
     135     134     136     135     137     138     139     138
     140     139     141     142     143     142     144     143
     145     146     147     146     148     147     149     150
     151     150     152     151     153     154     155     154
     156     155     157     158     159     158     160     159
     161     162     163     162     164     163     165     166
     167     166     168     167     169     170     171     170
     172     171     173     174     175     174     176     175
     177     178     179     178     180     179     181     182
     183     182     184     183     185     186     187     186
     188     187     189     190     191     190     192     191
     193     194     195     194     196     195     197     198
     199     198     200     199     201     202     203     202
     204     203     205     206     207     206     208     207
     209     210     211     210     212     211     213     214
     215     214     216     215     217     218     219     218
     220     219     221     222     223     222     224     223
     225     226     227     226     228     227     229     230
     231     230     232     231     233     234     235     234
     236     235     237     238     239     238     240     239
     241     242     243     242     244     243     245     246
     247     246     248     247     249     250     251     250
     252     251     253     254     255     254     256     255
     257     258     259     258     260     259     261     262
     263     262     264     263     265     266     267     266
     268     267     269     270     271     270     272     271
     273     274     275     274     276     275     277     278
     279     278     280     279     281     282     283     282
     284     283     285     286     287     286     288     287
     289     290     291     290     292     291     293     294
     295     294     296     295     297     298     299     298
     300     299     301     302     303     302     304     303
     305     306     307     306     308     307     309     310
     311     310     312     311     313     314     315     314
     316     315     317     318     319     318     320     319
     321     322     323     322     324     323     325     326
     327     326     328     327     329     330     331     330
     332     331     333     334     335     334     336     335
     337     338     339     338     340     339     341     342
     343     342     344     343     345     346     347     346
     348     347     349     350     351     350     352     351
     353     354     355     354     356     355     357     358
     359     358     360     359     361     362     363     362
     364     363     365     366     367     366     368     367
     369     370     371     370     372     371     373     374
     375     374     376     375     377     378     379     378
     380     379     381     382     383     382     384     383
     385     386     387     386     388     387     389     390
     391     390     392     391     393     394     395     394
     396     395     397     398     399     398     400     399

     200 !NTHETA: angles
       1       2       3       4       3       2       5       6       7
       8       7       6       9      10      11      12      11      10
      13      14      15      16      15      14      17      18      19
      20      19      18      21      22      23      24      23      22
      25      26      27      28      27      26      29      30      31
      32      31      30      33      34      35      36      35      34
      37      38      39      40      39      38      41      42      43
      44      43      42      45      46      47      48      47      46
      49      50      51      52      51      50      53      54      55
      56      55      54      57      58      59      60      59      58
      61      62      63      64      63      62      65      66      67
      68      67      66      69      70      71      72      71      70
      73      74      75      76      75      74      77      78      79
      80      79      78      81      82      83      84      83      82
      85      86      87      88      87      86      89      90      91
      92      91      90      93      94      95      96      95      94
      97      98      99     100      99      98     101     102     103
     104     103     102     105     106     107     108     107     106
     109     110     111     112     111     110     113     114     115
     116     115     114     117     118     119     120     119     118
     121     122     123     124     123     122     125     126     127
     128     127     126     129     130     131     132     131     130
     133     134     135     136     135     134     137     138     139
     140     139     138     141     142     143     144     143     142
     145     146     147     148     147     146     149     150     151
     152     151     150     153     154     155     156     155     154
     157     158     159     160     159     158     161     162     163
     164     163     162     165     166     167     168     167     166
     169     170     171     172     171     170     173     174     175
     176     175     174     177     178     179     180     179     178
     181     182     183     184     183     182     185     186     187
     188     187     186     189     190     191     192     191     190
     193     194     195     196     195     194     197     198     199
     200     199     198     201     202     203     204     203     202
     205     206     207     208     207     206     209     210     211
     212     211     210     213     214     215     216     215     214
     217     218     219     220     219     218     221     222     223
     224     223     222     225     226     227     228     227     226
     229     230     231     232     231     230     233     234     235
     236     235     234     237     238     239     240     239     238
     241     242     243     244     243     242     245     246     247
     248     247     246     249     250     251     252     251     250
     253     254     255     256     255     254     257     258     259
     260     259     258     261     262     263     264     263     262
     265     266     267     268     267     266     269     270     271
     272     271     270     273     274     275     276     275     274
     277     278     279     280     279     278     281     282     283
     284     283     282     285     286     287     288     287     286
     289     290     291     292     291     290     293     294     295
     296     295     294     297     298     299     300     299     298
     301     302     303     304     303     302     305     306     307
     308     307     306     309     310     311     312     311     310
     313     314     315     316     315     314     317     318     319
     320     319     318     321     322     323     324     323     322
     325     326     327     328     327     326     329     330     331
     332     331     330     333     334     335     336     335     334
     337     338     339     340     339     338     341     342     343
     344     343     342     345     346     347     348     347     346
     349     350     351     352     351     350     353     354     355
     356     355     354     357     358     359     360     359     358
     361     362     363     364     363     362     365     366     367
     368     367     366     369     370     371     372     371     370
     373     374     375     376     375     374     377     378     379
     380     379     378     381     382     383     384     383     382
     385     386     387     388     387     386     389     390     391
     392     391     390     393     394     395     396     395     394
     397     398     399     400     399     398

     100 !NPHI: dihedrals
       4       3       2       1       8       7       6       5
      12      11      10       9      16      15      14      13
      20      19      18      17      24      23      22      21
      28      27      26      25      32      31      30      29
      36      35      34      33      40      39      38      37
      44      43      42      41      48      47      46      45
      52      51      50      49      56      55      54      53
      60      59      58      57      64      63      62      61
      68      67      66      65      72      71      70      69
      76      75      74      73      80      79      78      77
      84      83      82      81      88      87      86      85
      92      91      90      89      96      95      94      93
     100      99      98      97     104     103     102     101
     108     107     106     105     112     111     110     109
     116     115     114     113     120     119     118     117
     124     123     122     121     128     127     126     125
     132     131     130     129     136     135     134     133
     140     139     138     137     144     143     142     141
     148     147     146     145     152     151     150     149
     156     155     154     153     160     159     158     157
     164     163     162     161     168     167     166     165
     172     171     170     169     176     175     174     173
     180     179     178     177     184     183     182     181
     188     187     186     185     192     191     190     189
     196     195     194     193     200     199     198     197
     204     203     202     201     208     207     206     205
     212     211     210     209     216     215     214     213
     220     219     218     217     224     223     222     221
     228     227     226     225     232     231     230     229
     236     235     234     233     240     239     238     237
     244     243     242     241     248     247     246     245
     252     251     250     249     256     255     254     253
     260     259     258     257     264     263     262     261
     268     267     266     265     272     271     270     269
     276     275     274     273     280     279     278     277
     284     283     282     281     288     287     286     285
     292     291     290     289     296     295     294     293
     300     299     298     297     304     303     302     301
     308     307     306     305     312     311     310     309
     316     315     314     313     320     319     318     317
     324     323     322     321     328     327     326     325
     332     331     330     329     336     335     334     333
     340     339     338     337     344     343     342     341
     348     347     346     345     352     351     350     349
     356     355     354     353     360     359     358     357
     364     363     362     361     368     367     366     365
     372     371     370     369     376     375     374     373
     380     379     378     377     384     383     382     381
     388     387     386     385     392     391     390     389
     396     395     394     393     400     399     398     397

       0 !NIMPHI: impropers


       0 !NDON: donors

       0 !NACC: acceptors

       0 !NNB

       0 !NGRP 

