PSF 

       3 !NTITLE
 REMARKS this file butane_GCMC_N1000_box0 - created by using MoSDeF-GOMC. 
 REMARKS parameters from the {'BUT': '/home/ia5498/opc_water/gmx-units-trappe-mie.xml'} force field via MoSDef
 REMARKS created on 2026-08-06 15:36:00.551753


    4000 !NATOM
       1 A    1    BUT  BD1  CH30     0.000000       15.0344           
       2 A    1    BUT  BD2  CH20     0.000000       14.0266           
       3 A    1    BUT  BD3  CH20     0.000000       14.0266           
       4 A    1    BUT  BD4  CH30     0.000000       15.0344           
       5 A    2    BUT  BD1  CH30     0.000000       15.0344           
       6 A    2    BUT  BD2  CH20     0.000000       14.0266           
       7 A    2    BUT  BD3  CH20     0.000000       14.0266           
       8 A    2    BUT  BD4  CH30     0.000000       15.0344           
       9 A    3    BUT  BD1  CH30     0.000000       15.0344           
      10 A    3    BUT  BD2  CH20     0.000000       14.0266           
      11 A    3    BUT  BD3  CH20     0.000000       14.0266           
      12 A    3    BUT  BD4  CH30     0.000000       15.0344           
      13 A    4    BUT  BD1  CH30     0.000000       15.0344           
      14 A    4    BUT  BD2  CH20     0.000000       14.0266           
      15 A    4    BUT  BD3  CH20     0.000000       14.0266           
      16 A    4    BUT  BD4  CH30     0.000000       15.0344           
      17 A    5    BUT  BD1  CH30     0.000000       15.0344           
      18 A    5    BUT  BD2  CH20     0.000000       14.0266           
      19 A    5    BUT  BD3  CH20     0.000000       14.0266           
      20 A    5    BUT  BD4  CH30     0.000000       15.0344           
      21 A    6    BUT  BD1  CH30     0.000000       15.0344           
      22 A    6    BUT  BD2  CH20     0.000000       14.0266           
      23 A    6    BUT  BD3  CH20     0.000000       14.0266           
      24 A    6    BUT  BD4  CH30     0.000000       15.0344           
      25 A    7    BUT  BD1  CH30     0.000000       15.0344           
      26 A    7    BUT  BD2  CH20     0.000000       14.0266           
      27 A    7    BUT  BD3  CH20     0.000000       14.0266           
      28 A    7    BUT  BD4  CH30     0.000000       15.0344           
      29 A    8    BUT  BD1  CH30     0.000000       15.0344           
      30 A    8    BUT  BD2  CH20     0.000000       14.0266           
      31 A    8    BUT  BD3  CH20     0.000000       14.0266           
      32 A    8    BUT  BD4  CH30     0.000000       15.0344           
      33 A    9    BUT  BD1  CH30     0.000000       15.0344           
      34 A    9    BUT  BD2  CH20     0.000000       14.0266           
      35 A    9    BUT  BD3  CH20     0.000000       14.0266           
      36 A    9    BUT  BD4  CH30     0.000000       15.0344           
      37 A    10   BUT  BD1  CH30     0.000000       15.0344           
      38 A    10   BUT  BD2  CH20     0.000000       14.0266           
      39 A    10   BUT  BD3  CH20     0.000000       14.0266           
      40 A    10   BUT  BD4  CH30     0.000000       15.0344           
      41 A    11   BUT  BD1  CH30     0.000000       15.0344           
      42 A    11   BUT  BD2  CH20     0.000000       14.0266           
      43 A    11   BUT  BD3  CH20     0.000000       14.0266           
      44 A    11   BUT  BD4  CH30     0.000000       15.0344           
      45 A    12   BUT  BD1  CH30     0.000000       15.0344           
      46 A    12   BUT  BD2  CH20     0.000000       14.0266           
      47 A    12   BUT  BD3  CH20     0.000000       14.0266           
      48 A    12   BUT  BD4  CH30     0.000000       15.0344           
      49 A    13   BUT  BD1  CH30     0.000000       15.0344           
      50 A    13   BUT  BD2  CH20     0.000000       14.0266           
      51 A    13   BUT  BD3  CH20     0.000000       14.0266           
      52 A    13   BUT  BD4  CH30     0.000000       15.0344           
      53 A    14   BUT  BD1  CH30     0.000000       15.0344           
      54 A    14   BUT  BD2  CH20     0.000000       14.0266           
      55 A    14   BUT  BD3  CH20     0.000000       14.0266           
      56 A    14   BUT  BD4  CH30     0.000000       15.0344           
      57 A    15   BUT  BD1  CH30     0.000000       15.0344           
      58 A    15   BUT  BD2  CH20     0.000000       14.0266           
      59 A    15   BUT  BD3  CH20     0.000000       14.0266           
      60 A    15   BUT  BD4  CH30     0.000000       15.0344           
      61 A    16   BUT  BD1  CH30     0.000000       15.0344           
      62 A    16   BUT  BD2  CH20     0.000000       14.0266           
      63 A    16   BUT  BD3  CH20     0.000000       14.0266           
      64 A    16   BUT  BD4  CH30     0.000000       15.0344           
      65 A    17   BUT  BD1  CH30     0.000000       15.0344           
      66 A    17   BUT  BD2  CH20     0.000000       14.0266           
      67 A    17   BUT  BD3  CH20     0.000000       14.0266           
      68 A    17   BUT  BD4  CH30     0.000000       15.0344           
      69 A    18   BUT  BD1  CH30     0.000000       15.0344           
      70 A    18   BUT  BD2  CH20     0.000000       14.0266           
      71 A    18   BUT  BD3  CH20     0.000000       14.0266           
      72 A    18   BUT  BD4  CH30     0.000000       15.0344           
      73 A    19   BUT  BD1  CH30     0.000000       15.0344           
      74 A    19   BUT  BD2  CH20     0.000000       14.0266           
      75 A    19   BUT  BD3  CH20     0.000000       14.0266           
      76 A    19   BUT  BD4  CH30     0.000000       15.0344           
      77 A    20   BUT  BD1  CH30     0.000000       15.0344           
      78 A    20   BUT  BD2  CH20     0.000000       14.0266           
      79 A    20   BUT  BD3  CH20     0.000000       14.0266           
      80 A    20   BUT  BD4  CH30     0.000000       15.0344           
      81 A    21   BUT  BD1  CH30     0.000000       15.0344           
      82 A    21   BUT  BD2  CH20     0.000000       14.0266           
      83 A    21   BUT  BD3  CH20     0.000000       14.0266           
      84 A    21   BUT  BD4  CH30     0.000000       15.0344           
      85 A    22   BUT  BD1  CH30     0.000000       15.0344           
      86 A    22   BUT  BD2  CH20     0.000000       14.0266           
      87 A    22   BUT  BD3  CH20     0.000000       14.0266           
      88 A    22   BUT  BD4  CH30     0.000000       15.0344           
      89 A    23   BUT  BD1  CH30     0.000000       15.0344           
      90 A    23   BUT  BD2  CH20     0.000000       14.0266           
      91 A    23   BUT  BD3  CH20     0.000000       14.0266           
      92 A    23   BUT  BD4  CH30     0.000000       15.0344           
      93 A    24   BUT  BD1  CH30     0.000000       15.0344           
      94 A    24   BUT  BD2  CH20     0.000000       14.0266           
      95 A    24   BUT  BD3  CH20     0.000000       14.0266           
      96 A    24   BUT  BD4  CH30     0.000000       15.0344           
      97 A    25   BUT  BD1  CH30     0.000000       15.0344           
      98 A    25   BUT  BD2  CH20     0.000000       14.0266           
      99 A    25   BUT  BD3  CH20     0.000000       14.0266           
     100 A    25   BUT  BD4  CH30     0.000000       15.0344           
     101 A    26   BUT  BD1  CH30     0.000000       15.0344           
     102 A    26   BUT  BD2  CH20     0.000000       14.0266           
     103 A    26   BUT  BD3  CH20     0.000000       14.0266           
     104 A    26   BUT  BD4  CH30     0.000000       15.0344           
     105 A    27   BUT  BD1  CH30     0.000000       15.0344           
     106 A    27   BUT  BD2  CH20     0.000000       14.0266           
     107 A    27   BUT  BD3  CH20     0.000000       14.0266           
     108 A    27   BUT  BD4  CH30     0.000000       15.0344           
     109 A    28   BUT  BD1  CH30     0.000000       15.0344           
     110 A    28   BUT  BD2  CH20     0.000000       14.0266           
     111 A    28   BUT  BD3  CH20     0.000000       14.0266           
     112 A    28   BUT  BD4  CH30     0.000000       15.0344           
     113 A    29   BUT  BD1  CH30     0.000000       15.0344           
     114 A    29   BUT  BD2  CH20     0.000000       14.0266           
     115 A    29   BUT  BD3  CH20     0.000000       14.0266           
     116 A    29   BUT  BD4  CH30     0.000000       15.0344           
     117 A    30   BUT  BD1  CH30     0.000000       15.0344           
     118 A    30   BUT  BD2  CH20     0.000000       14.0266           
     119 A    30   BUT  BD3  CH20     0.000000       14.0266           
     120 A    30   BUT  BD4  CH30     0.000000       15.0344           
     121 A    31   BUT  BD1  CH30     0.000000       15.0344           
     122 A    31   BUT  BD2  CH20     0.000000       14.0266           
     123 A    31   BUT  BD3  CH20     0.000000       14.0266           
     124 A    31   BUT  BD4  CH30     0.000000       15.0344           
     125 A    32   BUT  BD1  CH30     0.000000       15.0344           
     126 A    32   BUT  BD2  CH20     0.000000       14.0266           
     127 A    32   BUT  BD3  CH20     0.000000       14.0266           
     128 A    32   BUT  BD4  CH30     0.000000       15.0344           
     129 A    33   BUT  BD1  CH30     0.000000       15.0344           
     130 A    33   BUT  BD2  CH20     0.000000       14.0266           
     131 A    33   BUT  BD3  CH20     0.000000       14.0266           
     132 A    33   BUT  BD4  CH30     0.000000       15.0344           
     133 A    34   BUT  BD1  CH30     0.000000       15.0344           
     134 A    34   BUT  BD2  CH20     0.000000       14.0266           
     135 A    34   BUT  BD3  CH20     0.000000       14.0266           
     136 A    34   BUT  BD4  CH30     0.000000       15.0344           
     137 A    35   BUT  BD1  CH30     0.000000       15.0344           
     138 A    35   BUT  BD2  CH20     0.000000       14.0266           
     139 A    35   BUT  BD3  CH20     0.000000       14.0266           
     140 A    35   BUT  BD4  CH30     0.000000       15.0344           
     141 A    36   BUT  BD1  CH30     0.000000       15.0344           
     142 A    36   BUT  BD2  CH20     0.000000       14.0266           
     143 A    36   BUT  BD3  CH20     0.000000       14.0266           
     144 A    36   BUT  BD4  CH30     0.000000       15.0344           
     145 A    37   BUT  BD1  CH30     0.000000       15.0344           
     146 A    37   BUT  BD2  CH20     0.000000       14.0266           
     147 A    37   BUT  BD3  CH20     0.000000       14.0266           
     148 A    37   BUT  BD4  CH30     0.000000       15.0344           
     149 A    38   BUT  BD1  CH30     0.000000       15.0344           
     150 A    38   BUT  BD2  CH20     0.000000       14.0266           
     151 A    38   BUT  BD3  CH20     0.000000       14.0266           
     152 A    38   BUT  BD4  CH30     0.000000       15.0344           
     153 A    39   BUT  BD1  CH30     0.000000       15.0344           
     154 A    39   BUT  BD2  CH20     0.000000       14.0266           
     155 A    39   BUT  BD3  CH20     0.000000       14.0266           
     156 A    39   BUT  BD4  CH30     0.000000       15.0344           
     157 A    40   BUT  BD1  CH30     0.000000       15.0344           
     158 A    40   BUT  BD2  CH20     0.000000       14.0266           
     159 A    40   BUT  BD3  CH20     0.000000       14.0266           
     160 A    40   BUT  BD4  CH30     0.000000       15.0344           
     161 A    41   BUT  BD1  CH30     0.000000       15.0344           
     162 A    41   BUT  BD2  CH20     0.000000       14.0266           
     163 A    41   BUT  BD3  CH20     0.000000       14.0266           
     164 A    41   BUT  BD4  CH30     0.000000       15.0344           
     165 A    42   BUT  BD1  CH30     0.000000       15.0344           
     166 A    42   BUT  BD2  CH20     0.000000       14.0266           
     167 A    42   BUT  BD3  CH20     0.000000       14.0266           
     168 A    42   BUT  BD4  CH30     0.000000       15.0344           
     169 A    43   BUT  BD1  CH30     0.000000       15.0344           
     170 A    43   BUT  BD2  CH20     0.000000       14.0266           
     171 A    43   BUT  BD3  CH20     0.000000       14.0266           
     172 A    43   BUT  BD4  CH30     0.000000       15.0344           
     173 A    44   BUT  BD1  CH30     0.000000       15.0344           
     174 A    44   BUT  BD2  CH20     0.000000       14.0266           
     175 A    44   BUT  BD3  CH20     0.000000       14.0266           
     176 A    44   BUT  BD4  CH30     0.000000       15.0344           
     177 A    45   BUT  BD1  CH30     0.000000       15.0344           
     178 A    45   BUT  BD2  CH20     0.000000       14.0266           
     179 A    45   BUT  BD3  CH20     0.000000       14.0266           
     180 A    45   BUT  BD4  CH30     0.000000       15.0344           
     181 A    46   BUT  BD1  CH30     0.000000       15.0344           
     182 A    46   BUT  BD2  CH20     0.000000       14.0266           
     183 A    46   BUT  BD3  CH20     0.000000       14.0266           
     184 A    46   BUT  BD4  CH30     0.000000       15.0344           
     185 A    47   BUT  BD1  CH30     0.000000       15.0344           
     186 A    47   BUT  BD2  CH20     0.000000       14.0266           
     187 A    47   BUT  BD3  CH20     0.000000       14.0266           
     188 A    47   BUT  BD4  CH30     0.000000       15.0344           
     189 A    48   BUT  BD1  CH30     0.000000       15.0344           
     190 A    48   BUT  BD2  CH20     0.000000       14.0266           
     191 A    48   BUT  BD3  CH20     0.000000       14.0266           
     192 A    48   BUT  BD4  CH30     0.000000       15.0344           
     193 A    49   BUT  BD1  CH30     0.000000       15.0344           
     194 A    49   BUT  BD2  CH20     0.000000       14.0266           
     195 A    49   BUT  BD3  CH20     0.000000       14.0266           
     196 A    49   BUT  BD4  CH30     0.000000       15.0344           
     197 A    50   BUT  BD1  CH30     0.000000       15.0344           
     198 A    50   BUT  BD2  CH20     0.000000       14.0266           
     199 A    50   BUT  BD3  CH20     0.000000       14.0266           
     200 A    50   BUT  BD4  CH30     0.000000       15.0344           
     201 A    51   BUT  BD1  CH30     0.000000       15.0344           
     202 A    51   BUT  BD2  CH20     0.000000       14.0266           
     203 A    51   BUT  BD3  CH20     0.000000       14.0266           
     204 A    51   BUT  BD4  CH30     0.000000       15.0344           
     205 A    52   BUT  BD1  CH30     0.000000       15.0344           
     206 A    52   BUT  BD2  CH20     0.000000       14.0266           
     207 A    52   BUT  BD3  CH20     0.000000       14.0266           
     208 A    52   BUT  BD4  CH30     0.000000       15.0344           
     209 A    53   BUT  BD1  CH30     0.000000       15.0344           
     210 A    53   BUT  BD2  CH20     0.000000       14.0266           
     211 A    53   BUT  BD3  CH20     0.000000       14.0266           
     212 A    53   BUT  BD4  CH30     0.000000       15.0344           
     213 A    54   BUT  BD1  CH30     0.000000       15.0344           
     214 A    54   BUT  BD2  CH20     0.000000       14.0266           
     215 A    54   BUT  BD3  CH20     0.000000       14.0266           
     216 A    54   BUT  BD4  CH30     0.000000       15.0344           
     217 A    55   BUT  BD1  CH30     0.000000       15.0344           
     218 A    55   BUT  BD2  CH20     0.000000       14.0266           
     219 A    55   BUT  BD3  CH20     0.000000       14.0266           
     220 A    55   BUT  BD4  CH30     0.000000       15.0344           
     221 A    56   BUT  BD1  CH30     0.000000       15.0344           
     222 A    56   BUT  BD2  CH20     0.000000       14.0266           
     223 A    56   BUT  BD3  CH20     0.000000       14.0266           
     224 A    56   BUT  BD4  CH30     0.000000       15.0344           
     225 A    57   BUT  BD1  CH30     0.000000       15.0344           
     226 A    57   BUT  BD2  CH20     0.000000       14.0266           
     227 A    57   BUT  BD3  CH20     0.000000       14.0266           
     228 A    57   BUT  BD4  CH30     0.000000       15.0344           
     229 A    58   BUT  BD1  CH30     0.000000       15.0344           
     230 A    58   BUT  BD2  CH20     0.000000       14.0266           
     231 A    58   BUT  BD3  CH20     0.000000       14.0266           
     232 A    58   BUT  BD4  CH30     0.000000       15.0344           
     233 A    59   BUT  BD1  CH30     0.000000       15.0344           
     234 A    59   BUT  BD2  CH20     0.000000       14.0266           
     235 A    59   BUT  BD3  CH20     0.000000       14.0266           
     236 A    59   BUT  BD4  CH30     0.000000       15.0344           
     237 A    60   BUT  BD1  CH30     0.000000       15.0344           
     238 A    60   BUT  BD2  CH20     0.000000       14.0266           
     239 A    60   BUT  BD3  CH20     0.000000       14.0266           
     240 A    60   BUT  BD4  CH30     0.000000       15.0344           
     241 A    61   BUT  BD1  CH30     0.000000       15.0344           
     242 A    61   BUT  BD2  CH20     0.000000       14.0266           
     243 A    61   BUT  BD3  CH20     0.000000       14.0266           
     244 A    61   BUT  BD4  CH30     0.000000       15.0344           
     245 A    62   BUT  BD1  CH30     0.000000       15.0344           
     246 A    62   BUT  BD2  CH20     0.000000       14.0266           
     247 A    62   BUT  BD3  CH20     0.000000       14.0266           
     248 A    62   BUT  BD4  CH30     0.000000       15.0344           
     249 A    63   BUT  BD1  CH30     0.000000       15.0344           
     250 A    63   BUT  BD2  CH20     0.000000       14.0266           
     251 A    63   BUT  BD3  CH20     0.000000       14.0266           
     252 A    63   BUT  BD4  CH30     0.000000       15.0344           
     253 A    64   BUT  BD1  CH30     0.000000       15.0344           
     254 A    64   BUT  BD2  CH20     0.000000       14.0266           
     255 A    64   BUT  BD3  CH20     0.000000       14.0266           
     256 A    64   BUT  BD4  CH30     0.000000       15.0344           
     257 A    65   BUT  BD1  CH30     0.000000       15.0344           
     258 A    65   BUT  BD2  CH20     0.000000       14.0266           
     259 A    65   BUT  BD3  CH20     0.000000       14.0266           
     260 A    65   BUT  BD4  CH30     0.000000       15.0344           
     261 A    66   BUT  BD1  CH30     0.000000       15.0344           
     262 A    66   BUT  BD2  CH20     0.000000       14.0266           
     263 A    66   BUT  BD3  CH20     0.000000       14.0266           
     264 A    66   BUT  BD4  CH30     0.000000       15.0344           
     265 A    67   BUT  BD1  CH30     0.000000       15.0344           
     266 A    67   BUT  BD2  CH20     0.000000       14.0266           
     267 A    67   BUT  BD3  CH20     0.000000       14.0266           
     268 A    67   BUT  BD4  CH30     0.000000       15.0344           
     269 A    68   BUT  BD1  CH30     0.000000       15.0344           
     270 A    68   BUT  BD2  CH20     0.000000       14.0266           
     271 A    68   BUT  BD3  CH20     0.000000       14.0266           
     272 A    68   BUT  BD4  CH30     0.000000       15.0344           
     273 A    69   BUT  BD1  CH30     0.000000       15.0344           
     274 A    69   BUT  BD2  CH20     0.000000       14.0266           
     275 A    69   BUT  BD3  CH20     0.000000       14.0266           
     276 A    69   BUT  BD4  CH30     0.000000       15.0344           
     277 A    70   BUT  BD1  CH30     0.000000       15.0344           
     278 A    70   BUT  BD2  CH20     0.000000       14.0266           
     279 A    70   BUT  BD3  CH20     0.000000       14.0266           
     280 A    70   BUT  BD4  CH30     0.000000       15.0344           
     281 A    71   BUT  BD1  CH30     0.000000       15.0344           
     282 A    71   BUT  BD2  CH20     0.000000       14.0266           
     283 A    71   BUT  BD3  CH20     0.000000       14.0266           
     284 A    71   BUT  BD4  CH30     0.000000       15.0344           
     285 A    72   BUT  BD1  CH30     0.000000       15.0344           
     286 A    72   BUT  BD2  CH20     0.000000       14.0266           
     287 A    72   BUT  BD3  CH20     0.000000       14.0266           
     288 A    72   BUT  BD4  CH30     0.000000       15.0344           
     289 A    73   BUT  BD1  CH30     0.000000       15.0344           
     290 A    73   BUT  BD2  CH20     0.000000       14.0266           
     291 A    73   BUT  BD3  CH20     0.000000       14.0266           
     292 A    73   BUT  BD4  CH30     0.000000       15.0344           
     293 A    74   BUT  BD1  CH30     0.000000       15.0344           
     294 A    74   BUT  BD2  CH20     0.000000       14.0266           
     295 A    74   BUT  BD3  CH20     0.000000       14.0266           
     296 A    74   BUT  BD4  CH30     0.000000       15.0344           
     297 A    75   BUT  BD1  CH30     0.000000       15.0344           
     298 A    75   BUT  BD2  CH20     0.000000       14.0266           
     299 A    75   BUT  BD3  CH20     0.000000       14.0266           
     300 A    75   BUT  BD4  CH30     0.000000       15.0344           
     301 A    76   BUT  BD1  CH30     0.000000       15.0344           
     302 A    76   BUT  BD2  CH20     0.000000       14.0266           
     303 A    76   BUT  BD3  CH20     0.000000       14.0266           
     304 A    76   BUT  BD4  CH30     0.000000       15.0344           
     305 A    77   BUT  BD1  CH30     0.000000       15.0344           
     306 A    77   BUT  BD2  CH20     0.000000       14.0266           
     307 A    77   BUT  BD3  CH20     0.000000       14.0266           
     308 A    77   BUT  BD4  CH30     0.000000       15.0344           
     309 A    78   BUT  BD1  CH30     0.000000       15.0344           
     310 A    78   BUT  BD2  CH20     0.000000       14.0266           
     311 A    78   BUT  BD3  CH20     0.000000       14.0266           
     312 A    78   BUT  BD4  CH30     0.000000       15.0344           
     313 A    79   BUT  BD1  CH30     0.000000       15.0344           
     314 A    79   BUT  BD2  CH20     0.000000       14.0266           
     315 A    79   BUT  BD3  CH20     0.000000       14.0266           
     316 A    79   BUT  BD4  CH30     0.000000       15.0344           
     317 A    80   BUT  BD1  CH30     0.000000       15.0344           
     318 A    80   BUT  BD2  CH20     0.000000       14.0266           
     319 A    80   BUT  BD3  CH20     0.000000       14.0266           
     320 A    80   BUT  BD4  CH30     0.000000       15.0344           
     321 A    81   BUT  BD1  CH30     0.000000       15.0344           
     322 A    81   BUT  BD2  CH20     0.000000       14.0266           
     323 A    81   BUT  BD3  CH20     0.000000       14.0266           
     324 A    81   BUT  BD4  CH30     0.000000       15.0344           
     325 A    82   BUT  BD1  CH30     0.000000       15.0344           
     326 A    82   BUT  BD2  CH20     0.000000       14.0266           
     327 A    82   BUT  BD3  CH20     0.000000       14.0266           
     328 A    82   BUT  BD4  CH30     0.000000       15.0344           
     329 A    83   BUT  BD1  CH30     0.000000       15.0344           
     330 A    83   BUT  BD2  CH20     0.000000       14.0266           
     331 A    83   BUT  BD3  CH20     0.000000       14.0266           
     332 A    83   BUT  BD4  CH30     0.000000       15.0344           
     333 A    84   BUT  BD1  CH30     0.000000       15.0344           
     334 A    84   BUT  BD2  CH20     0.000000       14.0266           
     335 A    84   BUT  BD3  CH20     0.000000       14.0266           
     336 A    84   BUT  BD4  CH30     0.000000       15.0344           
     337 A    85   BUT  BD1  CH30     0.000000       15.0344           
     338 A    85   BUT  BD2  CH20     0.000000       14.0266           
     339 A    85   BUT  BD3  CH20     0.000000       14.0266           
     340 A    85   BUT  BD4  CH30     0.000000       15.0344           
     341 A    86   BUT  BD1  CH30     0.000000       15.0344           
     342 A    86   BUT  BD2  CH20     0.000000       14.0266           
     343 A    86   BUT  BD3  CH20     0.000000       14.0266           
     344 A    86   BUT  BD4  CH30     0.000000       15.0344           
     345 A    87   BUT  BD1  CH30     0.000000       15.0344           
     346 A    87   BUT  BD2  CH20     0.000000       14.0266           
     347 A    87   BUT  BD3  CH20     0.000000       14.0266           
     348 A    87   BUT  BD4  CH30     0.000000       15.0344           
     349 A    88   BUT  BD1  CH30     0.000000       15.0344           
     350 A    88   BUT  BD2  CH20     0.000000       14.0266           
     351 A    88   BUT  BD3  CH20     0.000000       14.0266           
     352 A    88   BUT  BD4  CH30     0.000000       15.0344           
     353 A    89   BUT  BD1  CH30     0.000000       15.0344           
     354 A    89   BUT  BD2  CH20     0.000000       14.0266           
     355 A    89   BUT  BD3  CH20     0.000000       14.0266           
     356 A    89   BUT  BD4  CH30     0.000000       15.0344           
     357 A    90   BUT  BD1  CH30     0.000000       15.0344           
     358 A    90   BUT  BD2  CH20     0.000000       14.0266           
     359 A    90   BUT  BD3  CH20     0.000000       14.0266           
     360 A    90   BUT  BD4  CH30     0.000000       15.0344           
     361 A    91   BUT  BD1  CH30     0.000000       15.0344           
     362 A    91   BUT  BD2  CH20     0.000000       14.0266           
     363 A    91   BUT  BD3  CH20     0.000000       14.0266           
     364 A    91   BUT  BD4  CH30     0.000000       15.0344           
     365 A    92   BUT  BD1  CH30     0.000000       15.0344           
     366 A    92   BUT  BD2  CH20     0.000000       14.0266           
     367 A    92   BUT  BD3  CH20     0.000000       14.0266           
     368 A    92   BUT  BD4  CH30     0.000000       15.0344           
     369 A    93   BUT  BD1  CH30     0.000000       15.0344           
     370 A    93   BUT  BD2  CH20     0.000000       14.0266           
     371 A    93   BUT  BD3  CH20     0.000000       14.0266           
     372 A    93   BUT  BD4  CH30     0.000000       15.0344           
     373 A    94   BUT  BD1  CH30     0.000000       15.0344           
     374 A    94   BUT  BD2  CH20     0.000000       14.0266           
     375 A    94   BUT  BD3  CH20     0.000000       14.0266           
     376 A    94   BUT  BD4  CH30     0.000000       15.0344           
     377 A    95   BUT  BD1  CH30     0.000000       15.0344           
     378 A    95   BUT  BD2  CH20     0.000000       14.0266           
     379 A    95   BUT  BD3  CH20     0.000000       14.0266           
     380 A    95   BUT  BD4  CH30     0.000000       15.0344           
     381 A    96   BUT  BD1  CH30     0.000000       15.0344           
     382 A    96   BUT  BD2  CH20     0.000000       14.0266           
     383 A    96   BUT  BD3  CH20     0.000000       14.0266           
     384 A    96   BUT  BD4  CH30     0.000000       15.0344           
     385 A    97   BUT  BD1  CH30     0.000000       15.0344           
     386 A    97   BUT  BD2  CH20     0.000000       14.0266           
     387 A    97   BUT  BD3  CH20     0.000000       14.0266           
     388 A    97   BUT  BD4  CH30     0.000000       15.0344           
     389 A    98   BUT  BD1  CH30     0.000000       15.0344           
     390 A    98   BUT  BD2  CH20     0.000000       14.0266           
     391 A    98   BUT  BD3  CH20     0.000000       14.0266           
     392 A    98   BUT  BD4  CH30     0.000000       15.0344           
     393 A    99   BUT  BD1  CH30     0.000000       15.0344           
     394 A    99   BUT  BD2  CH20     0.000000       14.0266           
     395 A    99   BUT  BD3  CH20     0.000000       14.0266           
     396 A    99   BUT  BD4  CH30     0.000000       15.0344           
     397 A    100  BUT  BD1  CH30     0.000000       15.0344           
     398 A    100  BUT  BD2  CH20     0.000000       14.0266           
     399 A    100  BUT  BD3  CH20     0.000000       14.0266           
     400 A    100  BUT  BD4  CH30     0.000000       15.0344           
     401 A    101  BUT  BD1  CH30     0.000000       15.0344           
     402 A    101  BUT  BD2  CH20     0.000000       14.0266           
     403 A    101  BUT  BD3  CH20     0.000000       14.0266           
     404 A    101  BUT  BD4  CH30     0.000000       15.0344           
     405 A    102  BUT  BD1  CH30     0.000000       15.0344           
     406 A    102  BUT  BD2  CH20     0.000000       14.0266           
     407 A    102  BUT  BD3  CH20     0.000000       14.0266           
     408 A    102  BUT  BD4  CH30     0.000000       15.0344           
     409 A    103  BUT  BD1  CH30     0.000000       15.0344           
     410 A    103  BUT  BD2  CH20     0.000000       14.0266           
     411 A    103  BUT  BD3  CH20     0.000000       14.0266           
     412 A    103  BUT  BD4  CH30     0.000000       15.0344           
     413 A    104  BUT  BD1  CH30     0.000000       15.0344           
     414 A    104  BUT  BD2  CH20     0.000000       14.0266           
     415 A    104  BUT  BD3  CH20     0.000000       14.0266           
     416 A    104  BUT  BD4  CH30     0.000000       15.0344           
     417 A    105  BUT  BD1  CH30     0.000000       15.0344           
     418 A    105  BUT  BD2  CH20     0.000000       14.0266           
     419 A    105  BUT  BD3  CH20     0.000000       14.0266           
     420 A    105  BUT  BD4  CH30     0.000000       15.0344           
     421 A    106  BUT  BD1  CH30     0.000000       15.0344           
     422 A    106  BUT  BD2  CH20     0.000000       14.0266           
     423 A    106  BUT  BD3  CH20     0.000000       14.0266           
     424 A    106  BUT  BD4  CH30     0.000000       15.0344           
     425 A    107  BUT  BD1  CH30     0.000000       15.0344           
     426 A    107  BUT  BD2  CH20     0.000000       14.0266           
     427 A    107  BUT  BD3  CH20     0.000000       14.0266           
     428 A    107  BUT  BD4  CH30     0.000000       15.0344           
     429 A    108  BUT  BD1  CH30     0.000000       15.0344           
     430 A    108  BUT  BD2  CH20     0.000000       14.0266           
     431 A    108  BUT  BD3  CH20     0.000000       14.0266           
     432 A    108  BUT  BD4  CH30     0.000000       15.0344           
     433 A    109  BUT  BD1  CH30     0.000000       15.0344           
     434 A    109  BUT  BD2  CH20     0.000000       14.0266           
     435 A    109  BUT  BD3  CH20     0.000000       14.0266           
     436 A    109  BUT  BD4  CH30     0.000000       15.0344           
     437 A    110  BUT  BD1  CH30     0.000000       15.0344           
     438 A    110  BUT  BD2  CH20     0.000000       14.0266           
     439 A    110  BUT  BD3  CH20     0.000000       14.0266           
     440 A    110  BUT  BD4  CH30     0.000000       15.0344           
     441 A    111  BUT  BD1  CH30     0.000000       15.0344           
     442 A    111  BUT  BD2  CH20     0.000000       14.0266           
     443 A    111  BUT  BD3  CH20     0.000000       14.0266           
     444 A    111  BUT  BD4  CH30     0.000000       15.0344           
     445 A    112  BUT  BD1  CH30     0.000000       15.0344           
     446 A    112  BUT  BD2  CH20     0.000000       14.0266           
     447 A    112  BUT  BD3  CH20     0.000000       14.0266           
     448 A    112  BUT  BD4  CH30     0.000000       15.0344           
     449 A    113  BUT  BD1  CH30     0.000000       15.0344           
     450 A    113  BUT  BD2  CH20     0.000000       14.0266           
     451 A    113  BUT  BD3  CH20     0.000000       14.0266           
     452 A    113  BUT  BD4  CH30     0.000000       15.0344           
     453 A    114  BUT  BD1  CH30     0.000000       15.0344           
     454 A    114  BUT  BD2  CH20     0.000000       14.0266           
     455 A    114  BUT  BD3  CH20     0.000000       14.0266           
     456 A    114  BUT  BD4  CH30     0.000000       15.0344           
     457 A    115  BUT  BD1  CH30     0.000000       15.0344           
     458 A    115  BUT  BD2  CH20     0.000000       14.0266           
     459 A    115  BUT  BD3  CH20     0.000000       14.0266           
     460 A    115  BUT  BD4  CH30     0.000000       15.0344           
     461 A    116  BUT  BD1  CH30     0.000000       15.0344           
     462 A    116  BUT  BD2  CH20     0.000000       14.0266           
     463 A    116  BUT  BD3  CH20     0.000000       14.0266           
     464 A    116  BUT  BD4  CH30     0.000000       15.0344           
     465 A    117  BUT  BD1  CH30     0.000000       15.0344           
     466 A    117  BUT  BD2  CH20     0.000000       14.0266           
     467 A    117  BUT  BD3  CH20     0.000000       14.0266           
     468 A    117  BUT  BD4  CH30     0.000000       15.0344           
     469 A    118  BUT  BD1  CH30     0.000000       15.0344           
     470 A    118  BUT  BD2  CH20     0.000000       14.0266           
     471 A    118  BUT  BD3  CH20     0.000000       14.0266           
     472 A    118  BUT  BD4  CH30     0.000000       15.0344           
     473 A    119  BUT  BD1  CH30     0.000000       15.0344           
     474 A    119  BUT  BD2  CH20     0.000000       14.0266           
     475 A    119  BUT  BD3  CH20     0.000000       14.0266           
     476 A    119  BUT  BD4  CH30     0.000000       15.0344           
     477 A    120  BUT  BD1  CH30     0.000000       15.0344           
     478 A    120  BUT  BD2  CH20     0.000000       14.0266           
     479 A    120  BUT  BD3  CH20     0.000000       14.0266           
     480 A    120  BUT  BD4  CH30     0.000000       15.0344           
     481 A    121  BUT  BD1  CH30     0.000000       15.0344           
     482 A    121  BUT  BD2  CH20     0.000000       14.0266           
     483 A    121  BUT  BD3  CH20     0.000000       14.0266           
     484 A    121  BUT  BD4  CH30     0.000000       15.0344           
     485 A    122  BUT  BD1  CH30     0.000000       15.0344           
     486 A    122  BUT  BD2  CH20     0.000000       14.0266           
     487 A    122  BUT  BD3  CH20     0.000000       14.0266           
     488 A    122  BUT  BD4  CH30     0.000000       15.0344           
     489 A    123  BUT  BD1  CH30     0.000000       15.0344           
     490 A    123  BUT  BD2  CH20     0.000000       14.0266           
     491 A    123  BUT  BD3  CH20     0.000000       14.0266           
     492 A    123  BUT  BD4  CH30     0.000000       15.0344           
     493 A    124  BUT  BD1  CH30     0.000000       15.0344           
     494 A    124  BUT  BD2  CH20     0.000000       14.0266           
     495 A    124  BUT  BD3  CH20     0.000000       14.0266           
     496 A    124  BUT  BD4  CH30     0.000000       15.0344           
     497 A    125  BUT  BD1  CH30     0.000000       15.0344           
     498 A    125  BUT  BD2  CH20     0.000000       14.0266           
     499 A    125  BUT  BD3  CH20     0.000000       14.0266           
     500 A    125  BUT  BD4  CH30     0.000000       15.0344           
     501 A    126  BUT  BD1  CH30     0.000000       15.0344           
     502 A    126  BUT  BD2  CH20     0.000000       14.0266           
     503 A    126  BUT  BD3  CH20     0.000000       14.0266           
     504 A    126  BUT  BD4  CH30     0.000000       15.0344           
     505 A    127  BUT  BD1  CH30     0.000000       15.0344           
     506 A    127  BUT  BD2  CH20     0.000000       14.0266           
     507 A    127  BUT  BD3  CH20     0.000000       14.0266           
     508 A    127  BUT  BD4  CH30     0.000000       15.0344           
     509 A    128  BUT  BD1  CH30     0.000000       15.0344           
     510 A    128  BUT  BD2  CH20     0.000000       14.0266           
     511 A    128  BUT  BD3  CH20     0.000000       14.0266           
     512 A    128  BUT  BD4  CH30     0.000000       15.0344           
     513 A    129  BUT  BD1  CH30     0.000000       15.0344           
     514 A    129  BUT  BD2  CH20     0.000000       14.0266           
     515 A    129  BUT  BD3  CH20     0.000000       14.0266           
     516 A    129  BUT  BD4  CH30     0.000000       15.0344           
     517 A    130  BUT  BD1  CH30     0.000000       15.0344           
     518 A    130  BUT  BD2  CH20     0.000000       14.0266           
     519 A    130  BUT  BD3  CH20     0.000000       14.0266           
     520 A    130  BUT  BD4  CH30     0.000000       15.0344           
     521 A    131  BUT  BD1  CH30     0.000000       15.0344           
     522 A    131  BUT  BD2  CH20     0.000000       14.0266           
     523 A    131  BUT  BD3  CH20     0.000000       14.0266           
     524 A    131  BUT  BD4  CH30     0.000000       15.0344           
     525 A    132  BUT  BD1  CH30     0.000000       15.0344           
     526 A    132  BUT  BD2  CH20     0.000000       14.0266           
     527 A    132  BUT  BD3  CH20     0.000000       14.0266           
     528 A    132  BUT  BD4  CH30     0.000000       15.0344           
     529 A    133  BUT  BD1  CH30     0.000000       15.0344           
     530 A    133  BUT  BD2  CH20     0.000000       14.0266           
     531 A    133  BUT  BD3  CH20     0.000000       14.0266           
     532 A    133  BUT  BD4  CH30     0.000000       15.0344           
     533 A    134  BUT  BD1  CH30     0.000000       15.0344           
     534 A    134  BUT  BD2  CH20     0.000000       14.0266           
     535 A    134  BUT  BD3  CH20     0.000000       14.0266           
     536 A    134  BUT  BD4  CH30     0.000000       15.0344           
     537 A    135  BUT  BD1  CH30     0.000000       15.0344           
     538 A    135  BUT  BD2  CH20     0.000000       14.0266           
     539 A    135  BUT  BD3  CH20     0.000000       14.0266           
     540 A    135  BUT  BD4  CH30     0.000000       15.0344           
     541 A    136  BUT  BD1  CH30     0.000000       15.0344           
     542 A    136  BUT  BD2  CH20     0.000000       14.0266           
     543 A    136  BUT  BD3  CH20     0.000000       14.0266           
     544 A    136  BUT  BD4  CH30     0.000000       15.0344           
     545 A    137  BUT  BD1  CH30     0.000000       15.0344           
     546 A    137  BUT  BD2  CH20     0.000000       14.0266           
     547 A    137  BUT  BD3  CH20     0.000000       14.0266           
     548 A    137  BUT  BD4  CH30     0.000000       15.0344           
     549 A    138  BUT  BD1  CH30     0.000000       15.0344           
     550 A    138  BUT  BD2  CH20     0.000000       14.0266           
     551 A    138  BUT  BD3  CH20     0.000000       14.0266           
     552 A    138  BUT  BD4  CH30     0.000000       15.0344           
     553 A    139  BUT  BD1  CH30     0.000000       15.0344           
     554 A    139  BUT  BD2  CH20     0.000000       14.0266           
     555 A    139  BUT  BD3  CH20     0.000000       14.0266           
     556 A    139  BUT  BD4  CH30     0.000000       15.0344           
     557 A    140  BUT  BD1  CH30     0.000000       15.0344           
     558 A    140  BUT  BD2  CH20     0.000000       14.0266           
     559 A    140  BUT  BD3  CH20     0.000000       14.0266           
     560 A    140  BUT  BD4  CH30     0.000000       15.0344           
     561 A    141  BUT  BD1  CH30     0.000000       15.0344           
     562 A    141  BUT  BD2  CH20     0.000000       14.0266           
     563 A    141  BUT  BD3  CH20     0.000000       14.0266           
     564 A    141  BUT  BD4  CH30     0.000000       15.0344           
     565 A    142  BUT  BD1  CH30     0.000000       15.0344           
     566 A    142  BUT  BD2  CH20     0.000000       14.0266           
     567 A    142  BUT  BD3  CH20     0.000000       14.0266           
     568 A    142  BUT  BD4  CH30     0.000000       15.0344           
     569 A    143  BUT  BD1  CH30     0.000000       15.0344           
     570 A    143  BUT  BD2  CH20     0.000000       14.0266           
     571 A    143  BUT  BD3  CH20     0.000000       14.0266           
     572 A    143  BUT  BD4  CH30     0.000000       15.0344           
     573 A    144  BUT  BD1  CH30     0.000000       15.0344           
     574 A    144  BUT  BD2  CH20     0.000000       14.0266           
     575 A    144  BUT  BD3  CH20     0.000000       14.0266           
     576 A    144  BUT  BD4  CH30     0.000000       15.0344           
     577 A    145  BUT  BD1  CH30     0.000000       15.0344           
     578 A    145  BUT  BD2  CH20     0.000000       14.0266           
     579 A    145  BUT  BD3  CH20     0.000000       14.0266           
     580 A    145  BUT  BD4  CH30     0.000000       15.0344           
     581 A    146  BUT  BD1  CH30     0.000000       15.0344           
     582 A    146  BUT  BD2  CH20     0.000000       14.0266           
     583 A    146  BUT  BD3  CH20     0.000000       14.0266           
     584 A    146  BUT  BD4  CH30     0.000000       15.0344           
     585 A    147  BUT  BD1  CH30     0.000000       15.0344           
     586 A    147  BUT  BD2  CH20     0.000000       14.0266           
     587 A    147  BUT  BD3  CH20     0.000000       14.0266           
     588 A    147  BUT  BD4  CH30     0.000000       15.0344           
     589 A    148  BUT  BD1  CH30     0.000000       15.0344           
     590 A    148  BUT  BD2  CH20     0.000000       14.0266           
     591 A    148  BUT  BD3  CH20     0.000000       14.0266           
     592 A    148  BUT  BD4  CH30     0.000000       15.0344           
     593 A    149  BUT  BD1  CH30     0.000000       15.0344           
     594 A    149  BUT  BD2  CH20     0.000000       14.0266           
     595 A    149  BUT  BD3  CH20     0.000000       14.0266           
     596 A    149  BUT  BD4  CH30     0.000000       15.0344           
     597 A    150  BUT  BD1  CH30     0.000000       15.0344           
     598 A    150  BUT  BD2  CH20     0.000000       14.0266           
     599 A    150  BUT  BD3  CH20     0.000000       14.0266           
     600 A    150  BUT  BD4  CH30     0.000000       15.0344           
     601 A    151  BUT  BD1  CH30     0.000000       15.0344           
     602 A    151  BUT  BD2  CH20     0.000000       14.0266           
     603 A    151  BUT  BD3  CH20     0.000000       14.0266           
     604 A    151  BUT  BD4  CH30     0.000000       15.0344           
     605 A    152  BUT  BD1  CH30     0.000000       15.0344           
     606 A    152  BUT  BD2  CH20     0.000000       14.0266           
     607 A    152  BUT  BD3  CH20     0.000000       14.0266           
     608 A    152  BUT  BD4  CH30     0.000000       15.0344           
     609 A    153  BUT  BD1  CH30     0.000000       15.0344           
     610 A    153  BUT  BD2  CH20     0.000000       14.0266           
     611 A    153  BUT  BD3  CH20     0.000000       14.0266           
     612 A    153  BUT  BD4  CH30     0.000000       15.0344           
     613 A    154  BUT  BD1  CH30     0.000000       15.0344           
     614 A    154  BUT  BD2  CH20     0.000000       14.0266           
     615 A    154  BUT  BD3  CH20     0.000000       14.0266           
     616 A    154  BUT  BD4  CH30     0.000000       15.0344           
     617 A    155  BUT  BD1  CH30     0.000000       15.0344           
     618 A    155  BUT  BD2  CH20     0.000000       14.0266           
     619 A    155  BUT  BD3  CH20     0.000000       14.0266           
     620 A    155  BUT  BD4  CH30     0.000000       15.0344           
     621 A    156  BUT  BD1  CH30     0.000000       15.0344           
     622 A    156  BUT  BD2  CH20     0.000000       14.0266           
     623 A    156  BUT  BD3  CH20     0.000000       14.0266           
     624 A    156  BUT  BD4  CH30     0.000000       15.0344           
     625 A    157  BUT  BD1  CH30     0.000000       15.0344           
     626 A    157  BUT  BD2  CH20     0.000000       14.0266           
     627 A    157  BUT  BD3  CH20     0.000000       14.0266           
     628 A    157  BUT  BD4  CH30     0.000000       15.0344           
     629 A    158  BUT  BD1  CH30     0.000000       15.0344           
     630 A    158  BUT  BD2  CH20     0.000000       14.0266           
     631 A    158  BUT  BD3  CH20     0.000000       14.0266           
     632 A    158  BUT  BD4  CH30     0.000000       15.0344           
     633 A    159  BUT  BD1  CH30     0.000000       15.0344           
     634 A    159  BUT  BD2  CH20     0.000000       14.0266           
     635 A    159  BUT  BD3  CH20     0.000000       14.0266           
     636 A    159  BUT  BD4  CH30     0.000000       15.0344           
     637 A    160  BUT  BD1  CH30     0.000000       15.0344           
     638 A    160  BUT  BD2  CH20     0.000000       14.0266           
     639 A    160  BUT  BD3  CH20     0.000000       14.0266           
     640 A    160  BUT  BD4  CH30     0.000000       15.0344           
     641 A    161  BUT  BD1  CH30     0.000000       15.0344           
     642 A    161  BUT  BD2  CH20     0.000000       14.0266           
     643 A    161  BUT  BD3  CH20     0.000000       14.0266           
     644 A    161  BUT  BD4  CH30     0.000000       15.0344           
     645 A    162  BUT  BD1  CH30     0.000000       15.0344           
     646 A    162  BUT  BD2  CH20     0.000000       14.0266           
     647 A    162  BUT  BD3  CH20     0.000000       14.0266           
     648 A    162  BUT  BD4  CH30     0.000000       15.0344           
     649 A    163  BUT  BD1  CH30     0.000000       15.0344           
     650 A    163  BUT  BD2  CH20     0.000000       14.0266           
     651 A    163  BUT  BD3  CH20     0.000000       14.0266           
     652 A    163  BUT  BD4  CH30     0.000000       15.0344           
     653 A    164  BUT  BD1  CH30     0.000000       15.0344           
     654 A    164  BUT  BD2  CH20     0.000000       14.0266           
     655 A    164  BUT  BD3  CH20     0.000000       14.0266           
     656 A    164  BUT  BD4  CH30     0.000000       15.0344           
     657 A    165  BUT  BD1  CH30     0.000000       15.0344           
     658 A    165  BUT  BD2  CH20     0.000000       14.0266           
     659 A    165  BUT  BD3  CH20     0.000000       14.0266           
     660 A    165  BUT  BD4  CH30     0.000000       15.0344           
     661 A    166  BUT  BD1  CH30     0.000000       15.0344           
     662 A    166  BUT  BD2  CH20     0.000000       14.0266           
     663 A    166  BUT  BD3  CH20     0.000000       14.0266           
     664 A    166  BUT  BD4  CH30     0.000000       15.0344           
     665 A    167  BUT  BD1  CH30     0.000000       15.0344           
     666 A    167  BUT  BD2  CH20     0.000000       14.0266           
     667 A    167  BUT  BD3  CH20     0.000000       14.0266           
     668 A    167  BUT  BD4  CH30     0.000000       15.0344           
     669 A    168  BUT  BD1  CH30     0.000000       15.0344           
     670 A    168  BUT  BD2  CH20     0.000000       14.0266           
     671 A    168  BUT  BD3  CH20     0.000000       14.0266           
     672 A    168  BUT  BD4  CH30     0.000000       15.0344           
     673 A    169  BUT  BD1  CH30     0.000000       15.0344           
     674 A    169  BUT  BD2  CH20     0.000000       14.0266           
     675 A    169  BUT  BD3  CH20     0.000000       14.0266           
     676 A    169  BUT  BD4  CH30     0.000000       15.0344           
     677 A    170  BUT  BD1  CH30     0.000000       15.0344           
     678 A    170  BUT  BD2  CH20     0.000000       14.0266           
     679 A    170  BUT  BD3  CH20     0.000000       14.0266           
     680 A    170  BUT  BD4  CH30     0.000000       15.0344           
     681 A    171  BUT  BD1  CH30     0.000000       15.0344           
     682 A    171  BUT  BD2  CH20     0.000000       14.0266           
     683 A    171  BUT  BD3  CH20     0.000000       14.0266           
     684 A    171  BUT  BD4  CH30     0.000000       15.0344           
     685 A    172  BUT  BD1  CH30     0.000000       15.0344           
     686 A    172  BUT  BD2  CH20     0.000000       14.0266           
     687 A    172  BUT  BD3  CH20     0.000000       14.0266           
     688 A    172  BUT  BD4  CH30     0.000000       15.0344           
     689 A    173  BUT  BD1  CH30     0.000000       15.0344           
     690 A    173  BUT  BD2  CH20     0.000000       14.0266           
     691 A    173  BUT  BD3  CH20     0.000000       14.0266           
     692 A    173  BUT  BD4  CH30     0.000000       15.0344           
     693 A    174  BUT  BD1  CH30     0.000000       15.0344           
     694 A    174  BUT  BD2  CH20     0.000000       14.0266           
     695 A    174  BUT  BD3  CH20     0.000000       14.0266           
     696 A    174  BUT  BD4  CH30     0.000000       15.0344           
     697 A    175  BUT  BD1  CH30     0.000000       15.0344           
     698 A    175  BUT  BD2  CH20     0.000000       14.0266           
     699 A    175  BUT  BD3  CH20     0.000000       14.0266           
     700 A    175  BUT  BD4  CH30     0.000000       15.0344           
     701 A    176  BUT  BD1  CH30     0.000000       15.0344           
     702 A    176  BUT  BD2  CH20     0.000000       14.0266           
     703 A    176  BUT  BD3  CH20     0.000000       14.0266           
     704 A    176  BUT  BD4  CH30     0.000000       15.0344           
     705 A    177  BUT  BD1  CH30     0.000000       15.0344           
     706 A    177  BUT  BD2  CH20     0.000000       14.0266           
     707 A    177  BUT  BD3  CH20     0.000000       14.0266           
     708 A    177  BUT  BD4  CH30     0.000000       15.0344           
     709 A    178  BUT  BD1  CH30     0.000000       15.0344           
     710 A    178  BUT  BD2  CH20     0.000000       14.0266           
     711 A    178  BUT  BD3  CH20     0.000000       14.0266           
     712 A    178  BUT  BD4  CH30     0.000000       15.0344           
     713 A    179  BUT  BD1  CH30     0.000000       15.0344           
     714 A    179  BUT  BD2  CH20     0.000000       14.0266           
     715 A    179  BUT  BD3  CH20     0.000000       14.0266           
     716 A    179  BUT  BD4  CH30     0.000000       15.0344           
     717 A    180  BUT  BD1  CH30     0.000000       15.0344           
     718 A    180  BUT  BD2  CH20     0.000000       14.0266           
     719 A    180  BUT  BD3  CH20     0.000000       14.0266           
     720 A    180  BUT  BD4  CH30     0.000000       15.0344           
     721 A    181  BUT  BD1  CH30     0.000000       15.0344           
     722 A    181  BUT  BD2  CH20     0.000000       14.0266           
     723 A    181  BUT  BD3  CH20     0.000000       14.0266           
     724 A    181  BUT  BD4  CH30     0.000000       15.0344           
     725 A    182  BUT  BD1  CH30     0.000000       15.0344           
     726 A    182  BUT  BD2  CH20     0.000000       14.0266           
     727 A    182  BUT  BD3  CH20     0.000000       14.0266           
     728 A    182  BUT  BD4  CH30     0.000000       15.0344           
     729 A    183  BUT  BD1  CH30     0.000000       15.0344           
     730 A    183  BUT  BD2  CH20     0.000000       14.0266           
     731 A    183  BUT  BD3  CH20     0.000000       14.0266           
     732 A    183  BUT  BD4  CH30     0.000000       15.0344           
     733 A    184  BUT  BD1  CH30     0.000000       15.0344           
     734 A    184  BUT  BD2  CH20     0.000000       14.0266           
     735 A    184  BUT  BD3  CH20     0.000000       14.0266           
     736 A    184  BUT  BD4  CH30     0.000000       15.0344           
     737 A    185  BUT  BD1  CH30     0.000000       15.0344           
     738 A    185  BUT  BD2  CH20     0.000000       14.0266           
     739 A    185  BUT  BD3  CH20     0.000000       14.0266           
     740 A    185  BUT  BD4  CH30     0.000000       15.0344           
     741 A    186  BUT  BD1  CH30     0.000000       15.0344           
     742 A    186  BUT  BD2  CH20     0.000000       14.0266           
     743 A    186  BUT  BD3  CH20     0.000000       14.0266           
     744 A    186  BUT  BD4  CH30     0.000000       15.0344           
     745 A    187  BUT  BD1  CH30     0.000000       15.0344           
     746 A    187  BUT  BD2  CH20     0.000000       14.0266           
     747 A    187  BUT  BD3  CH20     0.000000       14.0266           
     748 A    187  BUT  BD4  CH30     0.000000       15.0344           
     749 A    188  BUT  BD1  CH30     0.000000       15.0344           
     750 A    188  BUT  BD2  CH20     0.000000       14.0266           
     751 A    188  BUT  BD3  CH20     0.000000       14.0266           
     752 A    188  BUT  BD4  CH30     0.000000       15.0344           
     753 A    189  BUT  BD1  CH30     0.000000       15.0344           
     754 A    189  BUT  BD2  CH20     0.000000       14.0266           
     755 A    189  BUT  BD3  CH20     0.000000       14.0266           
     756 A    189  BUT  BD4  CH30     0.000000       15.0344           
     757 A    190  BUT  BD1  CH30     0.000000       15.0344           
     758 A    190  BUT  BD2  CH20     0.000000       14.0266           
     759 A    190  BUT  BD3  CH20     0.000000       14.0266           
     760 A    190  BUT  BD4  CH30     0.000000       15.0344           
     761 A    191  BUT  BD1  CH30     0.000000       15.0344           
     762 A    191  BUT  BD2  CH20     0.000000       14.0266           
     763 A    191  BUT  BD3  CH20     0.000000       14.0266           
     764 A    191  BUT  BD4  CH30     0.000000       15.0344           
     765 A    192  BUT  BD1  CH30     0.000000       15.0344           
     766 A    192  BUT  BD2  CH20     0.000000       14.0266           
     767 A    192  BUT  BD3  CH20     0.000000       14.0266           
     768 A    192  BUT  BD4  CH30     0.000000       15.0344           
     769 A    193  BUT  BD1  CH30     0.000000       15.0344           
     770 A    193  BUT  BD2  CH20     0.000000       14.0266           
     771 A    193  BUT  BD3  CH20     0.000000       14.0266           
     772 A    193  BUT  BD4  CH30     0.000000       15.0344           
     773 A    194  BUT  BD1  CH30     0.000000       15.0344           
     774 A    194  BUT  BD2  CH20     0.000000       14.0266           
     775 A    194  BUT  BD3  CH20     0.000000       14.0266           
     776 A    194  BUT  BD4  CH30     0.000000       15.0344           
     777 A    195  BUT  BD1  CH30     0.000000       15.0344           
     778 A    195  BUT  BD2  CH20     0.000000       14.0266           
     779 A    195  BUT  BD3  CH20     0.000000       14.0266           
     780 A    195  BUT  BD4  CH30     0.000000       15.0344           
     781 A    196  BUT  BD1  CH30     0.000000       15.0344           
     782 A    196  BUT  BD2  CH20     0.000000       14.0266           
     783 A    196  BUT  BD3  CH20     0.000000       14.0266           
     784 A    196  BUT  BD4  CH30     0.000000       15.0344           
     785 A    197  BUT  BD1  CH30     0.000000       15.0344           
     786 A    197  BUT  BD2  CH20     0.000000       14.0266           
     787 A    197  BUT  BD3  CH20     0.000000       14.0266           
     788 A    197  BUT  BD4  CH30     0.000000       15.0344           
     789 A    198  BUT  BD1  CH30     0.000000       15.0344           
     790 A    198  BUT  BD2  CH20     0.000000       14.0266           
     791 A    198  BUT  BD3  CH20     0.000000       14.0266           
     792 A    198  BUT  BD4  CH30     0.000000       15.0344           
     793 A    199  BUT  BD1  CH30     0.000000       15.0344           
     794 A    199  BUT  BD2  CH20     0.000000       14.0266           
     795 A    199  BUT  BD3  CH20     0.000000       14.0266           
     796 A    199  BUT  BD4  CH30     0.000000       15.0344           
     797 A    200  BUT  BD1  CH30     0.000000       15.0344           
     798 A    200  BUT  BD2  CH20     0.000000       14.0266           
     799 A    200  BUT  BD3  CH20     0.000000       14.0266           
     800 A    200  BUT  BD4  CH30     0.000000       15.0344           
     801 A    201  BUT  BD1  CH30     0.000000       15.0344           
     802 A    201  BUT  BD2  CH20     0.000000       14.0266           
     803 A    201  BUT  BD3  CH20     0.000000       14.0266           
     804 A    201  BUT  BD4  CH30     0.000000       15.0344           
     805 A    202  BUT  BD1  CH30     0.000000       15.0344           
     806 A    202  BUT  BD2  CH20     0.000000       14.0266           
     807 A    202  BUT  BD3  CH20     0.000000       14.0266           
     808 A    202  BUT  BD4  CH30     0.000000       15.0344           
     809 A    203  BUT  BD1  CH30     0.000000       15.0344           
     810 A    203  BUT  BD2  CH20     0.000000       14.0266           
     811 A    203  BUT  BD3  CH20     0.000000       14.0266           
     812 A    203  BUT  BD4  CH30     0.000000       15.0344           
     813 A    204  BUT  BD1  CH30     0.000000       15.0344           
     814 A    204  BUT  BD2  CH20     0.000000       14.0266           
     815 A    204  BUT  BD3  CH20     0.000000       14.0266           
     816 A    204  BUT  BD4  CH30     0.000000       15.0344           
     817 A    205  BUT  BD1  CH30     0.000000       15.0344           
     818 A    205  BUT  BD2  CH20     0.000000       14.0266           
     819 A    205  BUT  BD3  CH20     0.000000       14.0266           
     820 A    205  BUT  BD4  CH30     0.000000       15.0344           
     821 A    206  BUT  BD1  CH30     0.000000       15.0344           
     822 A    206  BUT  BD2  CH20     0.000000       14.0266           
     823 A    206  BUT  BD3  CH20     0.000000       14.0266           
     824 A    206  BUT  BD4  CH30     0.000000       15.0344           
     825 A    207  BUT  BD1  CH30     0.000000       15.0344           
     826 A    207  BUT  BD2  CH20     0.000000       14.0266           
     827 A    207  BUT  BD3  CH20     0.000000       14.0266           
     828 A    207  BUT  BD4  CH30     0.000000       15.0344           
     829 A    208  BUT  BD1  CH30     0.000000       15.0344           
     830 A    208  BUT  BD2  CH20     0.000000       14.0266           
     831 A    208  BUT  BD3  CH20     0.000000       14.0266           
     832 A    208  BUT  BD4  CH30     0.000000       15.0344           
     833 A    209  BUT  BD1  CH30     0.000000       15.0344           
     834 A    209  BUT  BD2  CH20     0.000000       14.0266           
     835 A    209  BUT  BD3  CH20     0.000000       14.0266           
     836 A    209  BUT  BD4  CH30     0.000000       15.0344           
     837 A    210  BUT  BD1  CH30     0.000000       15.0344           
     838 A    210  BUT  BD2  CH20     0.000000       14.0266           
     839 A    210  BUT  BD3  CH20     0.000000       14.0266           
     840 A    210  BUT  BD4  CH30     0.000000       15.0344           
     841 A    211  BUT  BD1  CH30     0.000000       15.0344           
     842 A    211  BUT  BD2  CH20     0.000000       14.0266           
     843 A    211  BUT  BD3  CH20     0.000000       14.0266           
     844 A    211  BUT  BD4  CH30     0.000000       15.0344           
     845 A    212  BUT  BD1  CH30     0.000000       15.0344           
     846 A    212  BUT  BD2  CH20     0.000000       14.0266           
     847 A    212  BUT  BD3  CH20     0.000000       14.0266           
     848 A    212  BUT  BD4  CH30     0.000000       15.0344           
     849 A    213  BUT  BD1  CH30     0.000000       15.0344           
     850 A    213  BUT  BD2  CH20     0.000000       14.0266           
     851 A    213  BUT  BD3  CH20     0.000000       14.0266           
     852 A    213  BUT  BD4  CH30     0.000000       15.0344           
     853 A    214  BUT  BD1  CH30     0.000000       15.0344           
     854 A    214  BUT  BD2  CH20     0.000000       14.0266           
     855 A    214  BUT  BD3  CH20     0.000000       14.0266           
     856 A    214  BUT  BD4  CH30     0.000000       15.0344           
     857 A    215  BUT  BD1  CH30     0.000000       15.0344           
     858 A    215  BUT  BD2  CH20     0.000000       14.0266           
     859 A    215  BUT  BD3  CH20     0.000000       14.0266           
     860 A    215  BUT  BD4  CH30     0.000000       15.0344           
     861 A    216  BUT  BD1  CH30     0.000000       15.0344           
     862 A    216  BUT  BD2  CH20     0.000000       14.0266           
     863 A    216  BUT  BD3  CH20     0.000000       14.0266           
     864 A    216  BUT  BD4  CH30     0.000000       15.0344           
     865 A    217  BUT  BD1  CH30     0.000000       15.0344           
     866 A    217  BUT  BD2  CH20     0.000000       14.0266           
     867 A    217  BUT  BD3  CH20     0.000000       14.0266           
     868 A    217  BUT  BD4  CH30     0.000000       15.0344           
     869 A    218  BUT  BD1  CH30     0.000000       15.0344           
     870 A    218  BUT  BD2  CH20     0.000000       14.0266           
     871 A    218  BUT  BD3  CH20     0.000000       14.0266           
     872 A    218  BUT  BD4  CH30     0.000000       15.0344           
     873 A    219  BUT  BD1  CH30     0.000000       15.0344           
     874 A    219  BUT  BD2  CH20     0.000000       14.0266           
     875 A    219  BUT  BD3  CH20     0.000000       14.0266           
     876 A    219  BUT  BD4  CH30     0.000000       15.0344           
     877 A    220  BUT  BD1  CH30     0.000000       15.0344           
     878 A    220  BUT  BD2  CH20     0.000000       14.0266           
     879 A    220  BUT  BD3  CH20     0.000000       14.0266           
     880 A    220  BUT  BD4  CH30     0.000000       15.0344           
     881 A    221  BUT  BD1  CH30     0.000000       15.0344           
     882 A    221  BUT  BD2  CH20     0.000000       14.0266           
     883 A    221  BUT  BD3  CH20     0.000000       14.0266           
     884 A    221  BUT  BD4  CH30     0.000000       15.0344           
     885 A    222  BUT  BD1  CH30     0.000000       15.0344           
     886 A    222  BUT  BD2  CH20     0.000000       14.0266           
     887 A    222  BUT  BD3  CH20     0.000000       14.0266           
     888 A    222  BUT  BD4  CH30     0.000000       15.0344           
     889 A    223  BUT  BD1  CH30     0.000000       15.0344           
     890 A    223  BUT  BD2  CH20     0.000000       14.0266           
     891 A    223  BUT  BD3  CH20     0.000000       14.0266           
     892 A    223  BUT  BD4  CH30     0.000000       15.0344           
     893 A    224  BUT  BD1  CH30     0.000000       15.0344           
     894 A    224  BUT  BD2  CH20     0.000000       14.0266           
     895 A    224  BUT  BD3  CH20     0.000000       14.0266           
     896 A    224  BUT  BD4  CH30     0.000000       15.0344           
     897 A    225  BUT  BD1  CH30     0.000000       15.0344           
     898 A    225  BUT  BD2  CH20     0.000000       14.0266           
     899 A    225  BUT  BD3  CH20     0.000000       14.0266           
     900 A    225  BUT  BD4  CH30     0.000000       15.0344           
     901 A    226  BUT  BD1  CH30     0.000000       15.0344           
     902 A    226  BUT  BD2  CH20     0.000000       14.0266           
     903 A    226  BUT  BD3  CH20     0.000000       14.0266           
     904 A    226  BUT  BD4  CH30     0.000000       15.0344           
     905 A    227  BUT  BD1  CH30     0.000000       15.0344           
     906 A    227  BUT  BD2  CH20     0.000000       14.0266           
     907 A    227  BUT  BD3  CH20     0.000000       14.0266           
     908 A    227  BUT  BD4  CH30     0.000000       15.0344           
     909 A    228  BUT  BD1  CH30     0.000000       15.0344           
     910 A    228  BUT  BD2  CH20     0.000000       14.0266           
     911 A    228  BUT  BD3  CH20     0.000000       14.0266           
     912 A    228  BUT  BD4  CH30     0.000000       15.0344           
     913 A    229  BUT  BD1  CH30     0.000000       15.0344           
     914 A    229  BUT  BD2  CH20     0.000000       14.0266           
     915 A    229  BUT  BD3  CH20     0.000000       14.0266           
     916 A    229  BUT  BD4  CH30     0.000000       15.0344           
     917 A    230  BUT  BD1  CH30     0.000000       15.0344           
     918 A    230  BUT  BD2  CH20     0.000000       14.0266           
     919 A    230  BUT  BD3  CH20     0.000000       14.0266           
     920 A    230  BUT  BD4  CH30     0.000000       15.0344           
     921 A    231  BUT  BD1  CH30     0.000000       15.0344           
     922 A    231  BUT  BD2  CH20     0.000000       14.0266           
     923 A    231  BUT  BD3  CH20     0.000000       14.0266           
     924 A    231  BUT  BD4  CH30     0.000000       15.0344           
     925 A    232  BUT  BD1  CH30     0.000000       15.0344           
     926 A    232  BUT  BD2  CH20     0.000000       14.0266           
     927 A    232  BUT  BD3  CH20     0.000000       14.0266           
     928 A    232  BUT  BD4  CH30     0.000000       15.0344           
     929 A    233  BUT  BD1  CH30     0.000000       15.0344           
     930 A    233  BUT  BD2  CH20     0.000000       14.0266           
     931 A    233  BUT  BD3  CH20     0.000000       14.0266           
     932 A    233  BUT  BD4  CH30     0.000000       15.0344           
     933 A    234  BUT  BD1  CH30     0.000000       15.0344           
     934 A    234  BUT  BD2  CH20     0.000000       14.0266           
     935 A    234  BUT  BD3  CH20     0.000000       14.0266           
     936 A    234  BUT  BD4  CH30     0.000000       15.0344           
     937 A    235  BUT  BD1  CH30     0.000000       15.0344           
     938 A    235  BUT  BD2  CH20     0.000000       14.0266           
     939 A    235  BUT  BD3  CH20     0.000000       14.0266           
     940 A    235  BUT  BD4  CH30     0.000000       15.0344           
     941 A    236  BUT  BD1  CH30     0.000000       15.0344           
     942 A    236  BUT  BD2  CH20     0.000000       14.0266           
     943 A    236  BUT  BD3  CH20     0.000000       14.0266           
     944 A    236  BUT  BD4  CH30     0.000000       15.0344           
     945 A    237  BUT  BD1  CH30     0.000000       15.0344           
     946 A    237  BUT  BD2  CH20     0.000000       14.0266           
     947 A    237  BUT  BD3  CH20     0.000000       14.0266           
     948 A    237  BUT  BD4  CH30     0.000000       15.0344           
     949 A    238  BUT  BD1  CH30     0.000000       15.0344           
     950 A    238  BUT  BD2  CH20     0.000000       14.0266           
     951 A    238  BUT  BD3  CH20     0.000000       14.0266           
     952 A    238  BUT  BD4  CH30     0.000000       15.0344           
     953 A    239  BUT  BD1  CH30     0.000000       15.0344           
     954 A    239  BUT  BD2  CH20     0.000000       14.0266           
     955 A    239  BUT  BD3  CH20     0.000000       14.0266           
     956 A    239  BUT  BD4  CH30     0.000000       15.0344           
     957 A    240  BUT  BD1  CH30     0.000000       15.0344           
     958 A    240  BUT  BD2  CH20     0.000000       14.0266           
     959 A    240  BUT  BD3  CH20     0.000000       14.0266           
     960 A    240  BUT  BD4  CH30     0.000000       15.0344           
     961 A    241  BUT  BD1  CH30     0.000000       15.0344           
     962 A    241  BUT  BD2  CH20     0.000000       14.0266           
     963 A    241  BUT  BD3  CH20     0.000000       14.0266           
     964 A    241  BUT  BD4  CH30     0.000000       15.0344           
     965 A    242  BUT  BD1  CH30     0.000000       15.0344           
     966 A    242  BUT  BD2  CH20     0.000000       14.0266           
     967 A    242  BUT  BD3  CH20     0.000000       14.0266           
     968 A    242  BUT  BD4  CH30     0.000000       15.0344           
     969 A    243  BUT  BD1  CH30     0.000000       15.0344           
     970 A    243  BUT  BD2  CH20     0.000000       14.0266           
     971 A    243  BUT  BD3  CH20     0.000000       14.0266           
     972 A    243  BUT  BD4  CH30     0.000000       15.0344           
     973 A    244  BUT  BD1  CH30     0.000000       15.0344           
     974 A    244  BUT  BD2  CH20     0.000000       14.0266           
     975 A    244  BUT  BD3  CH20     0.000000       14.0266           
     976 A    244  BUT  BD4  CH30     0.000000       15.0344           
     977 A    245  BUT  BD1  CH30     0.000000       15.0344           
     978 A    245  BUT  BD2  CH20     0.000000       14.0266           
     979 A    245  BUT  BD3  CH20     0.000000       14.0266           
     980 A    245  BUT  BD4  CH30     0.000000       15.0344           
     981 A    246  BUT  BD1  CH30     0.000000       15.0344           
     982 A    246  BUT  BD2  CH20     0.000000       14.0266           
     983 A    246  BUT  BD3  CH20     0.000000       14.0266           
     984 A    246  BUT  BD4  CH30     0.000000       15.0344           
     985 A    247  BUT  BD1  CH30     0.000000       15.0344           
     986 A    247  BUT  BD2  CH20     0.000000       14.0266           
     987 A    247  BUT  BD3  CH20     0.000000       14.0266           
     988 A    247  BUT  BD4  CH30     0.000000       15.0344           
     989 A    248  BUT  BD1  CH30     0.000000       15.0344           
     990 A    248  BUT  BD2  CH20     0.000000       14.0266           
     991 A    248  BUT  BD3  CH20     0.000000       14.0266           
     992 A    248  BUT  BD4  CH30     0.000000       15.0344           
     993 A    249  BUT  BD1  CH30     0.000000       15.0344           
     994 A    249  BUT  BD2  CH20     0.000000       14.0266           
     995 A    249  BUT  BD3  CH20     0.000000       14.0266           
     996 A    249  BUT  BD4  CH30     0.000000       15.0344           
     997 A    250  BUT  BD1  CH30     0.000000       15.0344           
     998 A    250  BUT  BD2  CH20     0.000000       14.0266           
     999 A    250  BUT  BD3  CH20     0.000000       14.0266           
    1000 A    250  BUT  BD4  CH30     0.000000       15.0344           
    1001 A    251  BUT  BD1  CH30     0.000000       15.0344           
    1002 A    251  BUT  BD2  CH20     0.000000       14.0266           
    1003 A    251  BUT  BD3  CH20     0.000000       14.0266           
    1004 A    251  BUT  BD4  CH30     0.000000       15.0344           
    1005 A    252  BUT  BD1  CH30     0.000000       15.0344           
    1006 A    252  BUT  BD2  CH20     0.000000       14.0266           
    1007 A    252  BUT  BD3  CH20     0.000000       14.0266           
    1008 A    252  BUT  BD4  CH30     0.000000       15.0344           
    1009 A    253  BUT  BD1  CH30     0.000000       15.0344           
    1010 A    253  BUT  BD2  CH20     0.000000       14.0266           
    1011 A    253  BUT  BD3  CH20     0.000000       14.0266           
    1012 A    253  BUT  BD4  CH30     0.000000       15.0344           
    1013 A    254  BUT  BD1  CH30     0.000000       15.0344           
    1014 A    254  BUT  BD2  CH20     0.000000       14.0266           
    1015 A    254  BUT  BD3  CH20     0.000000       14.0266           
    1016 A    254  BUT  BD4  CH30     0.000000       15.0344           
    1017 A    255  BUT  BD1  CH30     0.000000       15.0344           
    1018 A    255  BUT  BD2  CH20     0.000000       14.0266           
    1019 A    255  BUT  BD3  CH20     0.000000       14.0266           
    1020 A    255  BUT  BD4  CH30     0.000000       15.0344           
    1021 A    256  BUT  BD1  CH30     0.000000       15.0344           
    1022 A    256  BUT  BD2  CH20     0.000000       14.0266           
    1023 A    256  BUT  BD3  CH20     0.000000       14.0266           
    1024 A    256  BUT  BD4  CH30     0.000000       15.0344           
    1025 A    257  BUT  BD1  CH30     0.000000       15.0344           
    1026 A    257  BUT  BD2  CH20     0.000000       14.0266           
    1027 A    257  BUT  BD3  CH20     0.000000       14.0266           
    1028 A    257  BUT  BD4  CH30     0.000000       15.0344           
    1029 A    258  BUT  BD1  CH30     0.000000       15.0344           
    1030 A    258  BUT  BD2  CH20     0.000000       14.0266           
    1031 A    258  BUT  BD3  CH20     0.000000       14.0266           
    1032 A    258  BUT  BD4  CH30     0.000000       15.0344           
    1033 A    259  BUT  BD1  CH30     0.000000       15.0344           
    1034 A    259  BUT  BD2  CH20     0.000000       14.0266           
    1035 A    259  BUT  BD3  CH20     0.000000       14.0266           
    1036 A    259  BUT  BD4  CH30     0.000000       15.0344           
    1037 A    260  BUT  BD1  CH30     0.000000       15.0344           
    1038 A    260  BUT  BD2  CH20     0.000000       14.0266           
    1039 A    260  BUT  BD3  CH20     0.000000       14.0266           
    1040 A    260  BUT  BD4  CH30     0.000000       15.0344           
    1041 A    261  BUT  BD1  CH30     0.000000       15.0344           
    1042 A    261  BUT  BD2  CH20     0.000000       14.0266           
    1043 A    261  BUT  BD3  CH20     0.000000       14.0266           
    1044 A    261  BUT  BD4  CH30     0.000000       15.0344           
    1045 A    262  BUT  BD1  CH30     0.000000       15.0344           
    1046 A    262  BUT  BD2  CH20     0.000000       14.0266           
    1047 A    262  BUT  BD3  CH20     0.000000       14.0266           
    1048 A    262  BUT  BD4  CH30     0.000000       15.0344           
    1049 A    263  BUT  BD1  CH30     0.000000       15.0344           
    1050 A    263  BUT  BD2  CH20     0.000000       14.0266           
    1051 A    263  BUT  BD3  CH20     0.000000       14.0266           
    1052 A    263  BUT  BD4  CH30     0.000000       15.0344           
    1053 A    264  BUT  BD1  CH30     0.000000       15.0344           
    1054 A    264  BUT  BD2  CH20     0.000000       14.0266           
    1055 A    264  BUT  BD3  CH20     0.000000       14.0266           
    1056 A    264  BUT  BD4  CH30     0.000000       15.0344           
    1057 A    265  BUT  BD1  CH30     0.000000       15.0344           
    1058 A    265  BUT  BD2  CH20     0.000000       14.0266           
    1059 A    265  BUT  BD3  CH20     0.000000       14.0266           
    1060 A    265  BUT  BD4  CH30     0.000000       15.0344           
    1061 A    266  BUT  BD1  CH30     0.000000       15.0344           
    1062 A    266  BUT  BD2  CH20     0.000000       14.0266           
    1063 A    266  BUT  BD3  CH20     0.000000       14.0266           
    1064 A    266  BUT  BD4  CH30     0.000000       15.0344           
    1065 A    267  BUT  BD1  CH30     0.000000       15.0344           
    1066 A    267  BUT  BD2  CH20     0.000000       14.0266           
    1067 A    267  BUT  BD3  CH20     0.000000       14.0266           
    1068 A    267  BUT  BD4  CH30     0.000000       15.0344           
    1069 A    268  BUT  BD1  CH30     0.000000       15.0344           
    1070 A    268  BUT  BD2  CH20     0.000000       14.0266           
    1071 A    268  BUT  BD3  CH20     0.000000       14.0266           
    1072 A    268  BUT  BD4  CH30     0.000000       15.0344           
    1073 A    269  BUT  BD1  CH30     0.000000       15.0344           
    1074 A    269  BUT  BD2  CH20     0.000000       14.0266           
    1075 A    269  BUT  BD3  CH20     0.000000       14.0266           
    1076 A    269  BUT  BD4  CH30     0.000000       15.0344           
    1077 A    270  BUT  BD1  CH30     0.000000       15.0344           
    1078 A    270  BUT  BD2  CH20     0.000000       14.0266           
    1079 A    270  BUT  BD3  CH20     0.000000       14.0266           
    1080 A    270  BUT  BD4  CH30     0.000000       15.0344           
    1081 A    271  BUT  BD1  CH30     0.000000       15.0344           
    1082 A    271  BUT  BD2  CH20     0.000000       14.0266           
    1083 A    271  BUT  BD3  CH20     0.000000       14.0266           
    1084 A    271  BUT  BD4  CH30     0.000000       15.0344           
    1085 A    272  BUT  BD1  CH30     0.000000       15.0344           
    1086 A    272  BUT  BD2  CH20     0.000000       14.0266           
    1087 A    272  BUT  BD3  CH20     0.000000       14.0266           
    1088 A    272  BUT  BD4  CH30     0.000000       15.0344           
    1089 A    273  BUT  BD1  CH30     0.000000       15.0344           
    1090 A    273  BUT  BD2  CH20     0.000000       14.0266           
    1091 A    273  BUT  BD3  CH20     0.000000       14.0266           
    1092 A    273  BUT  BD4  CH30     0.000000       15.0344           
    1093 A    274  BUT  BD1  CH30     0.000000       15.0344           
    1094 A    274  BUT  BD2  CH20     0.000000       14.0266           
    1095 A    274  BUT  BD3  CH20     0.000000       14.0266           
    1096 A    274  BUT  BD4  CH30     0.000000       15.0344           
    1097 A    275  BUT  BD1  CH30     0.000000       15.0344           
    1098 A    275  BUT  BD2  CH20     0.000000       14.0266           
    1099 A    275  BUT  BD3  CH20     0.000000       14.0266           
    1100 A    275  BUT  BD4  CH30     0.000000       15.0344           
    1101 A    276  BUT  BD1  CH30     0.000000       15.0344           
    1102 A    276  BUT  BD2  CH20     0.000000       14.0266           
    1103 A    276  BUT  BD3  CH20     0.000000       14.0266           
    1104 A    276  BUT  BD4  CH30     0.000000       15.0344           
    1105 A    277  BUT  BD1  CH30     0.000000       15.0344           
    1106 A    277  BUT  BD2  CH20     0.000000       14.0266           
    1107 A    277  BUT  BD3  CH20     0.000000       14.0266           
    1108 A    277  BUT  BD4  CH30     0.000000       15.0344           
    1109 A    278  BUT  BD1  CH30     0.000000       15.0344           
    1110 A    278  BUT  BD2  CH20     0.000000       14.0266           
    1111 A    278  BUT  BD3  CH20     0.000000       14.0266           
    1112 A    278  BUT  BD4  CH30     0.000000       15.0344           
    1113 A    279  BUT  BD1  CH30     0.000000       15.0344           
    1114 A    279  BUT  BD2  CH20     0.000000       14.0266           
    1115 A    279  BUT  BD3  CH20     0.000000       14.0266           
    1116 A    279  BUT  BD4  CH30     0.000000       15.0344           
    1117 A    280  BUT  BD1  CH30     0.000000       15.0344           
    1118 A    280  BUT  BD2  CH20     0.000000       14.0266           
    1119 A    280  BUT  BD3  CH20     0.000000       14.0266           
    1120 A    280  BUT  BD4  CH30     0.000000       15.0344           
    1121 A    281  BUT  BD1  CH30     0.000000       15.0344           
    1122 A    281  BUT  BD2  CH20     0.000000       14.0266           
    1123 A    281  BUT  BD3  CH20     0.000000       14.0266           
    1124 A    281  BUT  BD4  CH30     0.000000       15.0344           
    1125 A    282  BUT  BD1  CH30     0.000000       15.0344           
    1126 A    282  BUT  BD2  CH20     0.000000       14.0266           
    1127 A    282  BUT  BD3  CH20     0.000000       14.0266           
    1128 A    282  BUT  BD4  CH30     0.000000       15.0344           
    1129 A    283  BUT  BD1  CH30     0.000000       15.0344           
    1130 A    283  BUT  BD2  CH20     0.000000       14.0266           
    1131 A    283  BUT  BD3  CH20     0.000000       14.0266           
    1132 A    283  BUT  BD4  CH30     0.000000       15.0344           
    1133 A    284  BUT  BD1  CH30     0.000000       15.0344           
    1134 A    284  BUT  BD2  CH20     0.000000       14.0266           
    1135 A    284  BUT  BD3  CH20     0.000000       14.0266           
    1136 A    284  BUT  BD4  CH30     0.000000       15.0344           
    1137 A    285  BUT  BD1  CH30     0.000000       15.0344           
    1138 A    285  BUT  BD2  CH20     0.000000       14.0266           
    1139 A    285  BUT  BD3  CH20     0.000000       14.0266           
    1140 A    285  BUT  BD4  CH30     0.000000       15.0344           
    1141 A    286  BUT  BD1  CH30     0.000000       15.0344           
    1142 A    286  BUT  BD2  CH20     0.000000       14.0266           
    1143 A    286  BUT  BD3  CH20     0.000000       14.0266           
    1144 A    286  BUT  BD4  CH30     0.000000       15.0344           
    1145 A    287  BUT  BD1  CH30     0.000000       15.0344           
    1146 A    287  BUT  BD2  CH20     0.000000       14.0266           
    1147 A    287  BUT  BD3  CH20     0.000000       14.0266           
    1148 A    287  BUT  BD4  CH30     0.000000       15.0344           
    1149 A    288  BUT  BD1  CH30     0.000000       15.0344           
    1150 A    288  BUT  BD2  CH20     0.000000       14.0266           
    1151 A    288  BUT  BD3  CH20     0.000000       14.0266           
    1152 A    288  BUT  BD4  CH30     0.000000       15.0344           
    1153 A    289  BUT  BD1  CH30     0.000000       15.0344           
    1154 A    289  BUT  BD2  CH20     0.000000       14.0266           
    1155 A    289  BUT  BD3  CH20     0.000000       14.0266           
    1156 A    289  BUT  BD4  CH30     0.000000       15.0344           
    1157 A    290  BUT  BD1  CH30     0.000000       15.0344           
    1158 A    290  BUT  BD2  CH20     0.000000       14.0266           
    1159 A    290  BUT  BD3  CH20     0.000000       14.0266           
    1160 A    290  BUT  BD4  CH30     0.000000       15.0344           
    1161 A    291  BUT  BD1  CH30     0.000000       15.0344           
    1162 A    291  BUT  BD2  CH20     0.000000       14.0266           
    1163 A    291  BUT  BD3  CH20     0.000000       14.0266           
    1164 A    291  BUT  BD4  CH30     0.000000       15.0344           
    1165 A    292  BUT  BD1  CH30     0.000000       15.0344           
    1166 A    292  BUT  BD2  CH20     0.000000       14.0266           
    1167 A    292  BUT  BD3  CH20     0.000000       14.0266           
    1168 A    292  BUT  BD4  CH30     0.000000       15.0344           
    1169 A    293  BUT  BD1  CH30     0.000000       15.0344           
    1170 A    293  BUT  BD2  CH20     0.000000       14.0266           
    1171 A    293  BUT  BD3  CH20     0.000000       14.0266           
    1172 A    293  BUT  BD4  CH30     0.000000       15.0344           
    1173 A    294  BUT  BD1  CH30     0.000000       15.0344           
    1174 A    294  BUT  BD2  CH20     0.000000       14.0266           
    1175 A    294  BUT  BD3  CH20     0.000000       14.0266           
    1176 A    294  BUT  BD4  CH30     0.000000       15.0344           
    1177 A    295  BUT  BD1  CH30     0.000000       15.0344           
    1178 A    295  BUT  BD2  CH20     0.000000       14.0266           
    1179 A    295  BUT  BD3  CH20     0.000000       14.0266           
    1180 A    295  BUT  BD4  CH30     0.000000       15.0344           
    1181 A    296  BUT  BD1  CH30     0.000000       15.0344           
    1182 A    296  BUT  BD2  CH20     0.000000       14.0266           
    1183 A    296  BUT  BD3  CH20     0.000000       14.0266           
    1184 A    296  BUT  BD4  CH30     0.000000       15.0344           
    1185 A    297  BUT  BD1  CH30     0.000000       15.0344           
    1186 A    297  BUT  BD2  CH20     0.000000       14.0266           
    1187 A    297  BUT  BD3  CH20     0.000000       14.0266           
    1188 A    297  BUT  BD4  CH30     0.000000       15.0344           
    1189 A    298  BUT  BD1  CH30     0.000000       15.0344           
    1190 A    298  BUT  BD2  CH20     0.000000       14.0266           
    1191 A    298  BUT  BD3  CH20     0.000000       14.0266           
    1192 A    298  BUT  BD4  CH30     0.000000       15.0344           
    1193 A    299  BUT  BD1  CH30     0.000000       15.0344           
    1194 A    299  BUT  BD2  CH20     0.000000       14.0266           
    1195 A    299  BUT  BD3  CH20     0.000000       14.0266           
    1196 A    299  BUT  BD4  CH30     0.000000       15.0344           
    1197 A    300  BUT  BD1  CH30     0.000000       15.0344           
    1198 A    300  BUT  BD2  CH20     0.000000       14.0266           
    1199 A    300  BUT  BD3  CH20     0.000000       14.0266           
    1200 A    300  BUT  BD4  CH30     0.000000       15.0344           
    1201 A    301  BUT  BD1  CH30     0.000000       15.0344           
    1202 A    301  BUT  BD2  CH20     0.000000       14.0266           
    1203 A    301  BUT  BD3  CH20     0.000000       14.0266           
    1204 A    301  BUT  BD4  CH30     0.000000       15.0344           
    1205 A    302  BUT  BD1  CH30     0.000000       15.0344           
    1206 A    302  BUT  BD2  CH20     0.000000       14.0266           
    1207 A    302  BUT  BD3  CH20     0.000000       14.0266           
    1208 A    302  BUT  BD4  CH30     0.000000       15.0344           
    1209 A    303  BUT  BD1  CH30     0.000000       15.0344           
    1210 A    303  BUT  BD2  CH20     0.000000       14.0266           
    1211 A    303  BUT  BD3  CH20     0.000000       14.0266           
    1212 A    303  BUT  BD4  CH30     0.000000       15.0344           
    1213 A    304  BUT  BD1  CH30     0.000000       15.0344           
    1214 A    304  BUT  BD2  CH20     0.000000       14.0266           
    1215 A    304  BUT  BD3  CH20     0.000000       14.0266           
    1216 A    304  BUT  BD4  CH30     0.000000       15.0344           
    1217 A    305  BUT  BD1  CH30     0.000000       15.0344           
    1218 A    305  BUT  BD2  CH20     0.000000       14.0266           
    1219 A    305  BUT  BD3  CH20     0.000000       14.0266           
    1220 A    305  BUT  BD4  CH30     0.000000       15.0344           
    1221 A    306  BUT  BD1  CH30     0.000000       15.0344           
    1222 A    306  BUT  BD2  CH20     0.000000       14.0266           
    1223 A    306  BUT  BD3  CH20     0.000000       14.0266           
    1224 A    306  BUT  BD4  CH30     0.000000       15.0344           
    1225 A    307  BUT  BD1  CH30     0.000000       15.0344           
    1226 A    307  BUT  BD2  CH20     0.000000       14.0266           
    1227 A    307  BUT  BD3  CH20     0.000000       14.0266           
    1228 A    307  BUT  BD4  CH30     0.000000       15.0344           
    1229 A    308  BUT  BD1  CH30     0.000000       15.0344           
    1230 A    308  BUT  BD2  CH20     0.000000       14.0266           
    1231 A    308  BUT  BD3  CH20     0.000000       14.0266           
    1232 A    308  BUT  BD4  CH30     0.000000       15.0344           
    1233 A    309  BUT  BD1  CH30     0.000000       15.0344           
    1234 A    309  BUT  BD2  CH20     0.000000       14.0266           
    1235 A    309  BUT  BD3  CH20     0.000000       14.0266           
    1236 A    309  BUT  BD4  CH30     0.000000       15.0344           
    1237 A    310  BUT  BD1  CH30     0.000000       15.0344           
    1238 A    310  BUT  BD2  CH20     0.000000       14.0266           
    1239 A    310  BUT  BD3  CH20     0.000000       14.0266           
    1240 A    310  BUT  BD4  CH30     0.000000       15.0344           
    1241 A    311  BUT  BD1  CH30     0.000000       15.0344           
    1242 A    311  BUT  BD2  CH20     0.000000       14.0266           
    1243 A    311  BUT  BD3  CH20     0.000000       14.0266           
    1244 A    311  BUT  BD4  CH30     0.000000       15.0344           
    1245 A    312  BUT  BD1  CH30     0.000000       15.0344           
    1246 A    312  BUT  BD2  CH20     0.000000       14.0266           
    1247 A    312  BUT  BD3  CH20     0.000000       14.0266           
    1248 A    312  BUT  BD4  CH30     0.000000       15.0344           
    1249 A    313  BUT  BD1  CH30     0.000000       15.0344           
    1250 A    313  BUT  BD2  CH20     0.000000       14.0266           
    1251 A    313  BUT  BD3  CH20     0.000000       14.0266           
    1252 A    313  BUT  BD4  CH30     0.000000       15.0344           
    1253 A    314  BUT  BD1  CH30     0.000000       15.0344           
    1254 A    314  BUT  BD2  CH20     0.000000       14.0266           
    1255 A    314  BUT  BD3  CH20     0.000000       14.0266           
    1256 A    314  BUT  BD4  CH30     0.000000       15.0344           
    1257 A    315  BUT  BD1  CH30     0.000000       15.0344           
    1258 A    315  BUT  BD2  CH20     0.000000       14.0266           
    1259 A    315  BUT  BD3  CH20     0.000000       14.0266           
    1260 A    315  BUT  BD4  CH30     0.000000       15.0344           
    1261 A    316  BUT  BD1  CH30     0.000000       15.0344           
    1262 A    316  BUT  BD2  CH20     0.000000       14.0266           
    1263 A    316  BUT  BD3  CH20     0.000000       14.0266           
    1264 A    316  BUT  BD4  CH30     0.000000       15.0344           
    1265 A    317  BUT  BD1  CH30     0.000000       15.0344           
    1266 A    317  BUT  BD2  CH20     0.000000       14.0266           
    1267 A    317  BUT  BD3  CH20     0.000000       14.0266           
    1268 A    317  BUT  BD4  CH30     0.000000       15.0344           
    1269 A    318  BUT  BD1  CH30     0.000000       15.0344           
    1270 A    318  BUT  BD2  CH20     0.000000       14.0266           
    1271 A    318  BUT  BD3  CH20     0.000000       14.0266           
    1272 A    318  BUT  BD4  CH30     0.000000       15.0344           
    1273 A    319  BUT  BD1  CH30     0.000000       15.0344           
    1274 A    319  BUT  BD2  CH20     0.000000       14.0266           
    1275 A    319  BUT  BD3  CH20     0.000000       14.0266           
    1276 A    319  BUT  BD4  CH30     0.000000       15.0344           
    1277 A    320  BUT  BD1  CH30     0.000000       15.0344           
    1278 A    320  BUT  BD2  CH20     0.000000       14.0266           
    1279 A    320  BUT  BD3  CH20     0.000000       14.0266           
    1280 A    320  BUT  BD4  CH30     0.000000       15.0344           
    1281 A    321  BUT  BD1  CH30     0.000000       15.0344           
    1282 A    321  BUT  BD2  CH20     0.000000       14.0266           
    1283 A    321  BUT  BD3  CH20     0.000000       14.0266           
    1284 A    321  BUT  BD4  CH30     0.000000       15.0344           
    1285 A    322  BUT  BD1  CH30     0.000000       15.0344           
    1286 A    322  BUT  BD2  CH20     0.000000       14.0266           
    1287 A    322  BUT  BD3  CH20     0.000000       14.0266           
    1288 A    322  BUT  BD4  CH30     0.000000       15.0344           
    1289 A    323  BUT  BD1  CH30     0.000000       15.0344           
    1290 A    323  BUT  BD2  CH20     0.000000       14.0266           
    1291 A    323  BUT  BD3  CH20     0.000000       14.0266           
    1292 A    323  BUT  BD4  CH30     0.000000       15.0344           
    1293 A    324  BUT  BD1  CH30     0.000000       15.0344           
    1294 A    324  BUT  BD2  CH20     0.000000       14.0266           
    1295 A    324  BUT  BD3  CH20     0.000000       14.0266           
    1296 A    324  BUT  BD4  CH30     0.000000       15.0344           
    1297 A    325  BUT  BD1  CH30     0.000000       15.0344           
    1298 A    325  BUT  BD2  CH20     0.000000       14.0266           
    1299 A    325  BUT  BD3  CH20     0.000000       14.0266           
    1300 A    325  BUT  BD4  CH30     0.000000       15.0344           
    1301 A    326  BUT  BD1  CH30     0.000000       15.0344           
    1302 A    326  BUT  BD2  CH20     0.000000       14.0266           
    1303 A    326  BUT  BD3  CH20     0.000000       14.0266           
    1304 A    326  BUT  BD4  CH30     0.000000       15.0344           
    1305 A    327  BUT  BD1  CH30     0.000000       15.0344           
    1306 A    327  BUT  BD2  CH20     0.000000       14.0266           
    1307 A    327  BUT  BD3  CH20     0.000000       14.0266           
    1308 A    327  BUT  BD4  CH30     0.000000       15.0344           
    1309 A    328  BUT  BD1  CH30     0.000000       15.0344           
    1310 A    328  BUT  BD2  CH20     0.000000       14.0266           
    1311 A    328  BUT  BD3  CH20     0.000000       14.0266           
    1312 A    328  BUT  BD4  CH30     0.000000       15.0344           
    1313 A    329  BUT  BD1  CH30     0.000000       15.0344           
    1314 A    329  BUT  BD2  CH20     0.000000       14.0266           
    1315 A    329  BUT  BD3  CH20     0.000000       14.0266           
    1316 A    329  BUT  BD4  CH30     0.000000       15.0344           
    1317 A    330  BUT  BD1  CH30     0.000000       15.0344           
    1318 A    330  BUT  BD2  CH20     0.000000       14.0266           
    1319 A    330  BUT  BD3  CH20     0.000000       14.0266           
    1320 A    330  BUT  BD4  CH30     0.000000       15.0344           
    1321 A    331  BUT  BD1  CH30     0.000000       15.0344           
    1322 A    331  BUT  BD2  CH20     0.000000       14.0266           
    1323 A    331  BUT  BD3  CH20     0.000000       14.0266           
    1324 A    331  BUT  BD4  CH30     0.000000       15.0344           
    1325 A    332  BUT  BD1  CH30     0.000000       15.0344           
    1326 A    332  BUT  BD2  CH20     0.000000       14.0266           
    1327 A    332  BUT  BD3  CH20     0.000000       14.0266           
    1328 A    332  BUT  BD4  CH30     0.000000       15.0344           
    1329 A    333  BUT  BD1  CH30     0.000000       15.0344           
    1330 A    333  BUT  BD2  CH20     0.000000       14.0266           
    1331 A    333  BUT  BD3  CH20     0.000000       14.0266           
    1332 A    333  BUT  BD4  CH30     0.000000       15.0344           
    1333 A    334  BUT  BD1  CH30     0.000000       15.0344           
    1334 A    334  BUT  BD2  CH20     0.000000       14.0266           
    1335 A    334  BUT  BD3  CH20     0.000000       14.0266           
    1336 A    334  BUT  BD4  CH30     0.000000       15.0344           
    1337 A    335  BUT  BD1  CH30     0.000000       15.0344           
    1338 A    335  BUT  BD2  CH20     0.000000       14.0266           
    1339 A    335  BUT  BD3  CH20     0.000000       14.0266           
    1340 A    335  BUT  BD4  CH30     0.000000       15.0344           
    1341 A    336  BUT  BD1  CH30     0.000000       15.0344           
    1342 A    336  BUT  BD2  CH20     0.000000       14.0266           
    1343 A    336  BUT  BD3  CH20     0.000000       14.0266           
    1344 A    336  BUT  BD4  CH30     0.000000       15.0344           
    1345 A    337  BUT  BD1  CH30     0.000000       15.0344           
    1346 A    337  BUT  BD2  CH20     0.000000       14.0266           
    1347 A    337  BUT  BD3  CH20     0.000000       14.0266           
    1348 A    337  BUT  BD4  CH30     0.000000       15.0344           
    1349 A    338  BUT  BD1  CH30     0.000000       15.0344           
    1350 A    338  BUT  BD2  CH20     0.000000       14.0266           
    1351 A    338  BUT  BD3  CH20     0.000000       14.0266           
    1352 A    338  BUT  BD4  CH30     0.000000       15.0344           
    1353 A    339  BUT  BD1  CH30     0.000000       15.0344           
    1354 A    339  BUT  BD2  CH20     0.000000       14.0266           
    1355 A    339  BUT  BD3  CH20     0.000000       14.0266           
    1356 A    339  BUT  BD4  CH30     0.000000       15.0344           
    1357 A    340  BUT  BD1  CH30     0.000000       15.0344           
    1358 A    340  BUT  BD2  CH20     0.000000       14.0266           
    1359 A    340  BUT  BD3  CH20     0.000000       14.0266           
    1360 A    340  BUT  BD4  CH30     0.000000       15.0344           
    1361 A    341  BUT  BD1  CH30     0.000000       15.0344           
    1362 A    341  BUT  BD2  CH20     0.000000       14.0266           
    1363 A    341  BUT  BD3  CH20     0.000000       14.0266           
    1364 A    341  BUT  BD4  CH30     0.000000       15.0344           
    1365 A    342  BUT  BD1  CH30     0.000000       15.0344           
    1366 A    342  BUT  BD2  CH20     0.000000       14.0266           
    1367 A    342  BUT  BD3  CH20     0.000000       14.0266           
    1368 A    342  BUT  BD4  CH30     0.000000       15.0344           
    1369 A    343  BUT  BD1  CH30     0.000000       15.0344           
    1370 A    343  BUT  BD2  CH20     0.000000       14.0266           
    1371 A    343  BUT  BD3  CH20     0.000000       14.0266           
    1372 A    343  BUT  BD4  CH30     0.000000       15.0344           
    1373 A    344  BUT  BD1  CH30     0.000000       15.0344           
    1374 A    344  BUT  BD2  CH20     0.000000       14.0266           
    1375 A    344  BUT  BD3  CH20     0.000000       14.0266           
    1376 A    344  BUT  BD4  CH30     0.000000       15.0344           
    1377 A    345  BUT  BD1  CH30     0.000000       15.0344           
    1378 A    345  BUT  BD2  CH20     0.000000       14.0266           
    1379 A    345  BUT  BD3  CH20     0.000000       14.0266           
    1380 A    345  BUT  BD4  CH30     0.000000       15.0344           
    1381 A    346  BUT  BD1  CH30     0.000000       15.0344           
    1382 A    346  BUT  BD2  CH20     0.000000       14.0266           
    1383 A    346  BUT  BD3  CH20     0.000000       14.0266           
    1384 A    346  BUT  BD4  CH30     0.000000       15.0344           
    1385 A    347  BUT  BD1  CH30     0.000000       15.0344           
    1386 A    347  BUT  BD2  CH20     0.000000       14.0266           
    1387 A    347  BUT  BD3  CH20     0.000000       14.0266           
    1388 A    347  BUT  BD4  CH30     0.000000       15.0344           
    1389 A    348  BUT  BD1  CH30     0.000000       15.0344           
    1390 A    348  BUT  BD2  CH20     0.000000       14.0266           
    1391 A    348  BUT  BD3  CH20     0.000000       14.0266           
    1392 A    348  BUT  BD4  CH30     0.000000       15.0344           
    1393 A    349  BUT  BD1  CH30     0.000000       15.0344           
    1394 A    349  BUT  BD2  CH20     0.000000       14.0266           
    1395 A    349  BUT  BD3  CH20     0.000000       14.0266           
    1396 A    349  BUT  BD4  CH30     0.000000       15.0344           
    1397 A    350  BUT  BD1  CH30     0.000000       15.0344           
    1398 A    350  BUT  BD2  CH20     0.000000       14.0266           
    1399 A    350  BUT  BD3  CH20     0.000000       14.0266           
    1400 A    350  BUT  BD4  CH30     0.000000       15.0344           
    1401 A    351  BUT  BD1  CH30     0.000000       15.0344           
    1402 A    351  BUT  BD2  CH20     0.000000       14.0266           
    1403 A    351  BUT  BD3  CH20     0.000000       14.0266           
    1404 A    351  BUT  BD4  CH30     0.000000       15.0344           
    1405 A    352  BUT  BD1  CH30     0.000000       15.0344           
    1406 A    352  BUT  BD2  CH20     0.000000       14.0266           
    1407 A    352  BUT  BD3  CH20     0.000000       14.0266           
    1408 A    352  BUT  BD4  CH30     0.000000       15.0344           
    1409 A    353  BUT  BD1  CH30     0.000000       15.0344           
    1410 A    353  BUT  BD2  CH20     0.000000       14.0266           
    1411 A    353  BUT  BD3  CH20     0.000000       14.0266           
    1412 A    353  BUT  BD4  CH30     0.000000       15.0344           
    1413 A    354  BUT  BD1  CH30     0.000000       15.0344           
    1414 A    354  BUT  BD2  CH20     0.000000       14.0266           
    1415 A    354  BUT  BD3  CH20     0.000000       14.0266           
    1416 A    354  BUT  BD4  CH30     0.000000       15.0344           
    1417 A    355  BUT  BD1  CH30     0.000000       15.0344           
    1418 A    355  BUT  BD2  CH20     0.000000       14.0266           
    1419 A    355  BUT  BD3  CH20     0.000000       14.0266           
    1420 A    355  BUT  BD4  CH30     0.000000       15.0344           
    1421 A    356  BUT  BD1  CH30     0.000000       15.0344           
    1422 A    356  BUT  BD2  CH20     0.000000       14.0266           
    1423 A    356  BUT  BD3  CH20     0.000000       14.0266           
    1424 A    356  BUT  BD4  CH30     0.000000       15.0344           
    1425 A    357  BUT  BD1  CH30     0.000000       15.0344           
    1426 A    357  BUT  BD2  CH20     0.000000       14.0266           
    1427 A    357  BUT  BD3  CH20     0.000000       14.0266           
    1428 A    357  BUT  BD4  CH30     0.000000       15.0344           
    1429 A    358  BUT  BD1  CH30     0.000000       15.0344           
    1430 A    358  BUT  BD2  CH20     0.000000       14.0266           
    1431 A    358  BUT  BD3  CH20     0.000000       14.0266           
    1432 A    358  BUT  BD4  CH30     0.000000       15.0344           
    1433 A    359  BUT  BD1  CH30     0.000000       15.0344           
    1434 A    359  BUT  BD2  CH20     0.000000       14.0266           
    1435 A    359  BUT  BD3  CH20     0.000000       14.0266           
    1436 A    359  BUT  BD4  CH30     0.000000       15.0344           
    1437 A    360  BUT  BD1  CH30     0.000000       15.0344           
    1438 A    360  BUT  BD2  CH20     0.000000       14.0266           
    1439 A    360  BUT  BD3  CH20     0.000000       14.0266           
    1440 A    360  BUT  BD4  CH30     0.000000       15.0344           
    1441 A    361  BUT  BD1  CH30     0.000000       15.0344           
    1442 A    361  BUT  BD2  CH20     0.000000       14.0266           
    1443 A    361  BUT  BD3  CH20     0.000000       14.0266           
    1444 A    361  BUT  BD4  CH30     0.000000       15.0344           
    1445 A    362  BUT  BD1  CH30     0.000000       15.0344           
    1446 A    362  BUT  BD2  CH20     0.000000       14.0266           
    1447 A    362  BUT  BD3  CH20     0.000000       14.0266           
    1448 A    362  BUT  BD4  CH30     0.000000       15.0344           
    1449 A    363  BUT  BD1  CH30     0.000000       15.0344           
    1450 A    363  BUT  BD2  CH20     0.000000       14.0266           
    1451 A    363  BUT  BD3  CH20     0.000000       14.0266           
    1452 A    363  BUT  BD4  CH30     0.000000       15.0344           
    1453 A    364  BUT  BD1  CH30     0.000000       15.0344           
    1454 A    364  BUT  BD2  CH20     0.000000       14.0266           
    1455 A    364  BUT  BD3  CH20     0.000000       14.0266           
    1456 A    364  BUT  BD4  CH30     0.000000       15.0344           
    1457 A    365  BUT  BD1  CH30     0.000000       15.0344           
    1458 A    365  BUT  BD2  CH20     0.000000       14.0266           
    1459 A    365  BUT  BD3  CH20     0.000000       14.0266           
    1460 A    365  BUT  BD4  CH30     0.000000       15.0344           
    1461 A    366  BUT  BD1  CH30     0.000000       15.0344           
    1462 A    366  BUT  BD2  CH20     0.000000       14.0266           
    1463 A    366  BUT  BD3  CH20     0.000000       14.0266           
    1464 A    366  BUT  BD4  CH30     0.000000       15.0344           
    1465 A    367  BUT  BD1  CH30     0.000000       15.0344           
    1466 A    367  BUT  BD2  CH20     0.000000       14.0266           
    1467 A    367  BUT  BD3  CH20     0.000000       14.0266           
    1468 A    367  BUT  BD4  CH30     0.000000       15.0344           
    1469 A    368  BUT  BD1  CH30     0.000000       15.0344           
    1470 A    368  BUT  BD2  CH20     0.000000       14.0266           
    1471 A    368  BUT  BD3  CH20     0.000000       14.0266           
    1472 A    368  BUT  BD4  CH30     0.000000       15.0344           
    1473 A    369  BUT  BD1  CH30     0.000000       15.0344           
    1474 A    369  BUT  BD2  CH20     0.000000       14.0266           
    1475 A    369  BUT  BD3  CH20     0.000000       14.0266           
    1476 A    369  BUT  BD4  CH30     0.000000       15.0344           
    1477 A    370  BUT  BD1  CH30     0.000000       15.0344           
    1478 A    370  BUT  BD2  CH20     0.000000       14.0266           
    1479 A    370  BUT  BD3  CH20     0.000000       14.0266           
    1480 A    370  BUT  BD4  CH30     0.000000       15.0344           
    1481 A    371  BUT  BD1  CH30     0.000000       15.0344           
    1482 A    371  BUT  BD2  CH20     0.000000       14.0266           
    1483 A    371  BUT  BD3  CH20     0.000000       14.0266           
    1484 A    371  BUT  BD4  CH30     0.000000       15.0344           
    1485 A    372  BUT  BD1  CH30     0.000000       15.0344           
    1486 A    372  BUT  BD2  CH20     0.000000       14.0266           
    1487 A    372  BUT  BD3  CH20     0.000000       14.0266           
    1488 A    372  BUT  BD4  CH30     0.000000       15.0344           
    1489 A    373  BUT  BD1  CH30     0.000000       15.0344           
    1490 A    373  BUT  BD2  CH20     0.000000       14.0266           
    1491 A    373  BUT  BD3  CH20     0.000000       14.0266           
    1492 A    373  BUT  BD4  CH30     0.000000       15.0344           
    1493 A    374  BUT  BD1  CH30     0.000000       15.0344           
    1494 A    374  BUT  BD2  CH20     0.000000       14.0266           
    1495 A    374  BUT  BD3  CH20     0.000000       14.0266           
    1496 A    374  BUT  BD4  CH30     0.000000       15.0344           
    1497 A    375  BUT  BD1  CH30     0.000000       15.0344           
    1498 A    375  BUT  BD2  CH20     0.000000       14.0266           
    1499 A    375  BUT  BD3  CH20     0.000000       14.0266           
    1500 A    375  BUT  BD4  CH30     0.000000       15.0344           
    1501 A    376  BUT  BD1  CH30     0.000000       15.0344           
    1502 A    376  BUT  BD2  CH20     0.000000       14.0266           
    1503 A    376  BUT  BD3  CH20     0.000000       14.0266           
    1504 A    376  BUT  BD4  CH30     0.000000       15.0344           
    1505 A    377  BUT  BD1  CH30     0.000000       15.0344           
    1506 A    377  BUT  BD2  CH20     0.000000       14.0266           
    1507 A    377  BUT  BD3  CH20     0.000000       14.0266           
    1508 A    377  BUT  BD4  CH30     0.000000       15.0344           
    1509 A    378  BUT  BD1  CH30     0.000000       15.0344           
    1510 A    378  BUT  BD2  CH20     0.000000       14.0266           
    1511 A    378  BUT  BD3  CH20     0.000000       14.0266           
    1512 A    378  BUT  BD4  CH30     0.000000       15.0344           
    1513 A    379  BUT  BD1  CH30     0.000000       15.0344           
    1514 A    379  BUT  BD2  CH20     0.000000       14.0266           
    1515 A    379  BUT  BD3  CH20     0.000000       14.0266           
    1516 A    379  BUT  BD4  CH30     0.000000       15.0344           
    1517 A    380  BUT  BD1  CH30     0.000000       15.0344           
    1518 A    380  BUT  BD2  CH20     0.000000       14.0266           
    1519 A    380  BUT  BD3  CH20     0.000000       14.0266           
    1520 A    380  BUT  BD4  CH30     0.000000       15.0344           
    1521 A    381  BUT  BD1  CH30     0.000000       15.0344           
    1522 A    381  BUT  BD2  CH20     0.000000       14.0266           
    1523 A    381  BUT  BD3  CH20     0.000000       14.0266           
    1524 A    381  BUT  BD4  CH30     0.000000       15.0344           
    1525 A    382  BUT  BD1  CH30     0.000000       15.0344           
    1526 A    382  BUT  BD2  CH20     0.000000       14.0266           
    1527 A    382  BUT  BD3  CH20     0.000000       14.0266           
    1528 A    382  BUT  BD4  CH30     0.000000       15.0344           
    1529 A    383  BUT  BD1  CH30     0.000000       15.0344           
    1530 A    383  BUT  BD2  CH20     0.000000       14.0266           
    1531 A    383  BUT  BD3  CH20     0.000000       14.0266           
    1532 A    383  BUT  BD4  CH30     0.000000       15.0344           
    1533 A    384  BUT  BD1  CH30     0.000000       15.0344           
    1534 A    384  BUT  BD2  CH20     0.000000       14.0266           
    1535 A    384  BUT  BD3  CH20     0.000000       14.0266           
    1536 A    384  BUT  BD4  CH30     0.000000       15.0344           
    1537 A    385  BUT  BD1  CH30     0.000000       15.0344           
    1538 A    385  BUT  BD2  CH20     0.000000       14.0266           
    1539 A    385  BUT  BD3  CH20     0.000000       14.0266           
    1540 A    385  BUT  BD4  CH30     0.000000       15.0344           
    1541 A    386  BUT  BD1  CH30     0.000000       15.0344           
    1542 A    386  BUT  BD2  CH20     0.000000       14.0266           
    1543 A    386  BUT  BD3  CH20     0.000000       14.0266           
    1544 A    386  BUT  BD4  CH30     0.000000       15.0344           
    1545 A    387  BUT  BD1  CH30     0.000000       15.0344           
    1546 A    387  BUT  BD2  CH20     0.000000       14.0266           
    1547 A    387  BUT  BD3  CH20     0.000000       14.0266           
    1548 A    387  BUT  BD4  CH30     0.000000       15.0344           
    1549 A    388  BUT  BD1  CH30     0.000000       15.0344           
    1550 A    388  BUT  BD2  CH20     0.000000       14.0266           
    1551 A    388  BUT  BD3  CH20     0.000000       14.0266           
    1552 A    388  BUT  BD4  CH30     0.000000       15.0344           
    1553 A    389  BUT  BD1  CH30     0.000000       15.0344           
    1554 A    389  BUT  BD2  CH20     0.000000       14.0266           
    1555 A    389  BUT  BD3  CH20     0.000000       14.0266           
    1556 A    389  BUT  BD4  CH30     0.000000       15.0344           
    1557 A    390  BUT  BD1  CH30     0.000000       15.0344           
    1558 A    390  BUT  BD2  CH20     0.000000       14.0266           
    1559 A    390  BUT  BD3  CH20     0.000000       14.0266           
    1560 A    390  BUT  BD4  CH30     0.000000       15.0344           
    1561 A    391  BUT  BD1  CH30     0.000000       15.0344           
    1562 A    391  BUT  BD2  CH20     0.000000       14.0266           
    1563 A    391  BUT  BD3  CH20     0.000000       14.0266           
    1564 A    391  BUT  BD4  CH30     0.000000       15.0344           
    1565 A    392  BUT  BD1  CH30     0.000000       15.0344           
    1566 A    392  BUT  BD2  CH20     0.000000       14.0266           
    1567 A    392  BUT  BD3  CH20     0.000000       14.0266           
    1568 A    392  BUT  BD4  CH30     0.000000       15.0344           
    1569 A    393  BUT  BD1  CH30     0.000000       15.0344           
    1570 A    393  BUT  BD2  CH20     0.000000       14.0266           
    1571 A    393  BUT  BD3  CH20     0.000000       14.0266           
    1572 A    393  BUT  BD4  CH30     0.000000       15.0344           
    1573 A    394  BUT  BD1  CH30     0.000000       15.0344           
    1574 A    394  BUT  BD2  CH20     0.000000       14.0266           
    1575 A    394  BUT  BD3  CH20     0.000000       14.0266           
    1576 A    394  BUT  BD4  CH30     0.000000       15.0344           
    1577 A    395  BUT  BD1  CH30     0.000000       15.0344           
    1578 A    395  BUT  BD2  CH20     0.000000       14.0266           
    1579 A    395  BUT  BD3  CH20     0.000000       14.0266           
    1580 A    395  BUT  BD4  CH30     0.000000       15.0344           
    1581 A    396  BUT  BD1  CH30     0.000000       15.0344           
    1582 A    396  BUT  BD2  CH20     0.000000       14.0266           
    1583 A    396  BUT  BD3  CH20     0.000000       14.0266           
    1584 A    396  BUT  BD4  CH30     0.000000       15.0344           
    1585 A    397  BUT  BD1  CH30     0.000000       15.0344           
    1586 A    397  BUT  BD2  CH20     0.000000       14.0266           
    1587 A    397  BUT  BD3  CH20     0.000000       14.0266           
    1588 A    397  BUT  BD4  CH30     0.000000       15.0344           
    1589 A    398  BUT  BD1  CH30     0.000000       15.0344           
    1590 A    398  BUT  BD2  CH20     0.000000       14.0266           
    1591 A    398  BUT  BD3  CH20     0.000000       14.0266           
    1592 A    398  BUT  BD4  CH30     0.000000       15.0344           
    1593 A    399  BUT  BD1  CH30     0.000000       15.0344           
    1594 A    399  BUT  BD2  CH20     0.000000       14.0266           
    1595 A    399  BUT  BD3  CH20     0.000000       14.0266           
    1596 A    399  BUT  BD4  CH30     0.000000       15.0344           
    1597 A    400  BUT  BD1  CH30     0.000000       15.0344           
    1598 A    400  BUT  BD2  CH20     0.000000       14.0266           
    1599 A    400  BUT  BD3  CH20     0.000000       14.0266           
    1600 A    400  BUT  BD4  CH30     0.000000       15.0344           
    1601 A    401  BUT  BD1  CH30     0.000000       15.0344           
    1602 A    401  BUT  BD2  CH20     0.000000       14.0266           
    1603 A    401  BUT  BD3  CH20     0.000000       14.0266           
    1604 A    401  BUT  BD4  CH30     0.000000       15.0344           
    1605 A    402  BUT  BD1  CH30     0.000000       15.0344           
    1606 A    402  BUT  BD2  CH20     0.000000       14.0266           
    1607 A    402  BUT  BD3  CH20     0.000000       14.0266           
    1608 A    402  BUT  BD4  CH30     0.000000       15.0344           
    1609 A    403  BUT  BD1  CH30     0.000000       15.0344           
    1610 A    403  BUT  BD2  CH20     0.000000       14.0266           
    1611 A    403  BUT  BD3  CH20     0.000000       14.0266           
    1612 A    403  BUT  BD4  CH30     0.000000       15.0344           
    1613 A    404  BUT  BD1  CH30     0.000000       15.0344           
    1614 A    404  BUT  BD2  CH20     0.000000       14.0266           
    1615 A    404  BUT  BD3  CH20     0.000000       14.0266           
    1616 A    404  BUT  BD4  CH30     0.000000       15.0344           
    1617 A    405  BUT  BD1  CH30     0.000000       15.0344           
    1618 A    405  BUT  BD2  CH20     0.000000       14.0266           
    1619 A    405  BUT  BD3  CH20     0.000000       14.0266           
    1620 A    405  BUT  BD4  CH30     0.000000       15.0344           
    1621 A    406  BUT  BD1  CH30     0.000000       15.0344           
    1622 A    406  BUT  BD2  CH20     0.000000       14.0266           
    1623 A    406  BUT  BD3  CH20     0.000000       14.0266           
    1624 A    406  BUT  BD4  CH30     0.000000       15.0344           
    1625 A    407  BUT  BD1  CH30     0.000000       15.0344           
    1626 A    407  BUT  BD2  CH20     0.000000       14.0266           
    1627 A    407  BUT  BD3  CH20     0.000000       14.0266           
    1628 A    407  BUT  BD4  CH30     0.000000       15.0344           
    1629 A    408  BUT  BD1  CH30     0.000000       15.0344           
    1630 A    408  BUT  BD2  CH20     0.000000       14.0266           
    1631 A    408  BUT  BD3  CH20     0.000000       14.0266           
    1632 A    408  BUT  BD4  CH30     0.000000       15.0344           
    1633 A    409  BUT  BD1  CH30     0.000000       15.0344           
    1634 A    409  BUT  BD2  CH20     0.000000       14.0266           
    1635 A    409  BUT  BD3  CH20     0.000000       14.0266           
    1636 A    409  BUT  BD4  CH30     0.000000       15.0344           
    1637 A    410  BUT  BD1  CH30     0.000000       15.0344           
    1638 A    410  BUT  BD2  CH20     0.000000       14.0266           
    1639 A    410  BUT  BD3  CH20     0.000000       14.0266           
    1640 A    410  BUT  BD4  CH30     0.000000       15.0344           
    1641 A    411  BUT  BD1  CH30     0.000000       15.0344           
    1642 A    411  BUT  BD2  CH20     0.000000       14.0266           
    1643 A    411  BUT  BD3  CH20     0.000000       14.0266           
    1644 A    411  BUT  BD4  CH30     0.000000       15.0344           
    1645 A    412  BUT  BD1  CH30     0.000000       15.0344           
    1646 A    412  BUT  BD2  CH20     0.000000       14.0266           
    1647 A    412  BUT  BD3  CH20     0.000000       14.0266           
    1648 A    412  BUT  BD4  CH30     0.000000       15.0344           
    1649 A    413  BUT  BD1  CH30     0.000000       15.0344           
    1650 A    413  BUT  BD2  CH20     0.000000       14.0266           
    1651 A    413  BUT  BD3  CH20     0.000000       14.0266           
    1652 A    413  BUT  BD4  CH30     0.000000       15.0344           
    1653 A    414  BUT  BD1  CH30     0.000000       15.0344           
    1654 A    414  BUT  BD2  CH20     0.000000       14.0266           
    1655 A    414  BUT  BD3  CH20     0.000000       14.0266           
    1656 A    414  BUT  BD4  CH30     0.000000       15.0344           
    1657 A    415  BUT  BD1  CH30     0.000000       15.0344           
    1658 A    415  BUT  BD2  CH20     0.000000       14.0266           
    1659 A    415  BUT  BD3  CH20     0.000000       14.0266           
    1660 A    415  BUT  BD4  CH30     0.000000       15.0344           
    1661 A    416  BUT  BD1  CH30     0.000000       15.0344           
    1662 A    416  BUT  BD2  CH20     0.000000       14.0266           
    1663 A    416  BUT  BD3  CH20     0.000000       14.0266           
    1664 A    416  BUT  BD4  CH30     0.000000       15.0344           
    1665 A    417  BUT  BD1  CH30     0.000000       15.0344           
    1666 A    417  BUT  BD2  CH20     0.000000       14.0266           
    1667 A    417  BUT  BD3  CH20     0.000000       14.0266           
    1668 A    417  BUT  BD4  CH30     0.000000       15.0344           
    1669 A    418  BUT  BD1  CH30     0.000000       15.0344           
    1670 A    418  BUT  BD2  CH20     0.000000       14.0266           
    1671 A    418  BUT  BD3  CH20     0.000000       14.0266           
    1672 A    418  BUT  BD4  CH30     0.000000       15.0344           
    1673 A    419  BUT  BD1  CH30     0.000000       15.0344           
    1674 A    419  BUT  BD2  CH20     0.000000       14.0266           
    1675 A    419  BUT  BD3  CH20     0.000000       14.0266           
    1676 A    419  BUT  BD4  CH30     0.000000       15.0344           
    1677 A    420  BUT  BD1  CH30     0.000000       15.0344           
    1678 A    420  BUT  BD2  CH20     0.000000       14.0266           
    1679 A    420  BUT  BD3  CH20     0.000000       14.0266           
    1680 A    420  BUT  BD4  CH30     0.000000       15.0344           
    1681 A    421  BUT  BD1  CH30     0.000000       15.0344           
    1682 A    421  BUT  BD2  CH20     0.000000       14.0266           
    1683 A    421  BUT  BD3  CH20     0.000000       14.0266           
    1684 A    421  BUT  BD4  CH30     0.000000       15.0344           
    1685 A    422  BUT  BD1  CH30     0.000000       15.0344           
    1686 A    422  BUT  BD2  CH20     0.000000       14.0266           
    1687 A    422  BUT  BD3  CH20     0.000000       14.0266           
    1688 A    422  BUT  BD4  CH30     0.000000       15.0344           
    1689 A    423  BUT  BD1  CH30     0.000000       15.0344           
    1690 A    423  BUT  BD2  CH20     0.000000       14.0266           
    1691 A    423  BUT  BD3  CH20     0.000000       14.0266           
    1692 A    423  BUT  BD4  CH30     0.000000       15.0344           
    1693 A    424  BUT  BD1  CH30     0.000000       15.0344           
    1694 A    424  BUT  BD2  CH20     0.000000       14.0266           
    1695 A    424  BUT  BD3  CH20     0.000000       14.0266           
    1696 A    424  BUT  BD4  CH30     0.000000       15.0344           
    1697 A    425  BUT  BD1  CH30     0.000000       15.0344           
    1698 A    425  BUT  BD2  CH20     0.000000       14.0266           
    1699 A    425  BUT  BD3  CH20     0.000000       14.0266           
    1700 A    425  BUT  BD4  CH30     0.000000       15.0344           
    1701 A    426  BUT  BD1  CH30     0.000000       15.0344           
    1702 A    426  BUT  BD2  CH20     0.000000       14.0266           
    1703 A    426  BUT  BD3  CH20     0.000000       14.0266           
    1704 A    426  BUT  BD4  CH30     0.000000       15.0344           
    1705 A    427  BUT  BD1  CH30     0.000000       15.0344           
    1706 A    427  BUT  BD2  CH20     0.000000       14.0266           
    1707 A    427  BUT  BD3  CH20     0.000000       14.0266           
    1708 A    427  BUT  BD4  CH30     0.000000       15.0344           
    1709 A    428  BUT  BD1  CH30     0.000000       15.0344           
    1710 A    428  BUT  BD2  CH20     0.000000       14.0266           
    1711 A    428  BUT  BD3  CH20     0.000000       14.0266           
    1712 A    428  BUT  BD4  CH30     0.000000       15.0344           
    1713 A    429  BUT  BD1  CH30     0.000000       15.0344           
    1714 A    429  BUT  BD2  CH20     0.000000       14.0266           
    1715 A    429  BUT  BD3  CH20     0.000000       14.0266           
    1716 A    429  BUT  BD4  CH30     0.000000       15.0344           
    1717 A    430  BUT  BD1  CH30     0.000000       15.0344           
    1718 A    430  BUT  BD2  CH20     0.000000       14.0266           
    1719 A    430  BUT  BD3  CH20     0.000000       14.0266           
    1720 A    430  BUT  BD4  CH30     0.000000       15.0344           
    1721 A    431  BUT  BD1  CH30     0.000000       15.0344           
    1722 A    431  BUT  BD2  CH20     0.000000       14.0266           
    1723 A    431  BUT  BD3  CH20     0.000000       14.0266           
    1724 A    431  BUT  BD4  CH30     0.000000       15.0344           
    1725 A    432  BUT  BD1  CH30     0.000000       15.0344           
    1726 A    432  BUT  BD2  CH20     0.000000       14.0266           
    1727 A    432  BUT  BD3  CH20     0.000000       14.0266           
    1728 A    432  BUT  BD4  CH30     0.000000       15.0344           
    1729 A    433  BUT  BD1  CH30     0.000000       15.0344           
    1730 A    433  BUT  BD2  CH20     0.000000       14.0266           
    1731 A    433  BUT  BD3  CH20     0.000000       14.0266           
    1732 A    433  BUT  BD4  CH30     0.000000       15.0344           
    1733 A    434  BUT  BD1  CH30     0.000000       15.0344           
    1734 A    434  BUT  BD2  CH20     0.000000       14.0266           
    1735 A    434  BUT  BD3  CH20     0.000000       14.0266           
    1736 A    434  BUT  BD4  CH30     0.000000       15.0344           
    1737 A    435  BUT  BD1  CH30     0.000000       15.0344           
    1738 A    435  BUT  BD2  CH20     0.000000       14.0266           
    1739 A    435  BUT  BD3  CH20     0.000000       14.0266           
    1740 A    435  BUT  BD4  CH30     0.000000       15.0344           
    1741 A    436  BUT  BD1  CH30     0.000000       15.0344           
    1742 A    436  BUT  BD2  CH20     0.000000       14.0266           
    1743 A    436  BUT  BD3  CH20     0.000000       14.0266           
    1744 A    436  BUT  BD4  CH30     0.000000       15.0344           
    1745 A    437  BUT  BD1  CH30     0.000000       15.0344           
    1746 A    437  BUT  BD2  CH20     0.000000       14.0266           
    1747 A    437  BUT  BD3  CH20     0.000000       14.0266           
    1748 A    437  BUT  BD4  CH30     0.000000       15.0344           
    1749 A    438  BUT  BD1  CH30     0.000000       15.0344           
    1750 A    438  BUT  BD2  CH20     0.000000       14.0266           
    1751 A    438  BUT  BD3  CH20     0.000000       14.0266           
    1752 A    438  BUT  BD4  CH30     0.000000       15.0344           
    1753 A    439  BUT  BD1  CH30     0.000000       15.0344           
    1754 A    439  BUT  BD2  CH20     0.000000       14.0266           
    1755 A    439  BUT  BD3  CH20     0.000000       14.0266           
    1756 A    439  BUT  BD4  CH30     0.000000       15.0344           
    1757 A    440  BUT  BD1  CH30     0.000000       15.0344           
    1758 A    440  BUT  BD2  CH20     0.000000       14.0266           
    1759 A    440  BUT  BD3  CH20     0.000000       14.0266           
    1760 A    440  BUT  BD4  CH30     0.000000       15.0344           
    1761 A    441  BUT  BD1  CH30     0.000000       15.0344           
    1762 A    441  BUT  BD2  CH20     0.000000       14.0266           
    1763 A    441  BUT  BD3  CH20     0.000000       14.0266           
    1764 A    441  BUT  BD4  CH30     0.000000       15.0344           
    1765 A    442  BUT  BD1  CH30     0.000000       15.0344           
    1766 A    442  BUT  BD2  CH20     0.000000       14.0266           
    1767 A    442  BUT  BD3  CH20     0.000000       14.0266           
    1768 A    442  BUT  BD4  CH30     0.000000       15.0344           
    1769 A    443  BUT  BD1  CH30     0.000000       15.0344           
    1770 A    443  BUT  BD2  CH20     0.000000       14.0266           
    1771 A    443  BUT  BD3  CH20     0.000000       14.0266           
    1772 A    443  BUT  BD4  CH30     0.000000       15.0344           
    1773 A    444  BUT  BD1  CH30     0.000000       15.0344           
    1774 A    444  BUT  BD2  CH20     0.000000       14.0266           
    1775 A    444  BUT  BD3  CH20     0.000000       14.0266           
    1776 A    444  BUT  BD4  CH30     0.000000       15.0344           
    1777 A    445  BUT  BD1  CH30     0.000000       15.0344           
    1778 A    445  BUT  BD2  CH20     0.000000       14.0266           
    1779 A    445  BUT  BD3  CH20     0.000000       14.0266           
    1780 A    445  BUT  BD4  CH30     0.000000       15.0344           
    1781 A    446  BUT  BD1  CH30     0.000000       15.0344           
    1782 A    446  BUT  BD2  CH20     0.000000       14.0266           
    1783 A    446  BUT  BD3  CH20     0.000000       14.0266           
    1784 A    446  BUT  BD4  CH30     0.000000       15.0344           
    1785 A    447  BUT  BD1  CH30     0.000000       15.0344           
    1786 A    447  BUT  BD2  CH20     0.000000       14.0266           
    1787 A    447  BUT  BD3  CH20     0.000000       14.0266           
    1788 A    447  BUT  BD4  CH30     0.000000       15.0344           
    1789 A    448  BUT  BD1  CH30     0.000000       15.0344           
    1790 A    448  BUT  BD2  CH20     0.000000       14.0266           
    1791 A    448  BUT  BD3  CH20     0.000000       14.0266           
    1792 A    448  BUT  BD4  CH30     0.000000       15.0344           
    1793 A    449  BUT  BD1  CH30     0.000000       15.0344           
    1794 A    449  BUT  BD2  CH20     0.000000       14.0266           
    1795 A    449  BUT  BD3  CH20     0.000000       14.0266           
    1796 A    449  BUT  BD4  CH30     0.000000       15.0344           
    1797 A    450  BUT  BD1  CH30     0.000000       15.0344           
    1798 A    450  BUT  BD2  CH20     0.000000       14.0266           
    1799 A    450  BUT  BD3  CH20     0.000000       14.0266           
    1800 A    450  BUT  BD4  CH30     0.000000       15.0344           
    1801 A    451  BUT  BD1  CH30     0.000000       15.0344           
    1802 A    451  BUT  BD2  CH20     0.000000       14.0266           
    1803 A    451  BUT  BD3  CH20     0.000000       14.0266           
    1804 A    451  BUT  BD4  CH30     0.000000       15.0344           
    1805 A    452  BUT  BD1  CH30     0.000000       15.0344           
    1806 A    452  BUT  BD2  CH20     0.000000       14.0266           
    1807 A    452  BUT  BD3  CH20     0.000000       14.0266           
    1808 A    452  BUT  BD4  CH30     0.000000       15.0344           
    1809 A    453  BUT  BD1  CH30     0.000000       15.0344           
    1810 A    453  BUT  BD2  CH20     0.000000       14.0266           
    1811 A    453  BUT  BD3  CH20     0.000000       14.0266           
    1812 A    453  BUT  BD4  CH30     0.000000       15.0344           
    1813 A    454  BUT  BD1  CH30     0.000000       15.0344           
    1814 A    454  BUT  BD2  CH20     0.000000       14.0266           
    1815 A    454  BUT  BD3  CH20     0.000000       14.0266           
    1816 A    454  BUT  BD4  CH30     0.000000       15.0344           
    1817 A    455  BUT  BD1  CH30     0.000000       15.0344           
    1818 A    455  BUT  BD2  CH20     0.000000       14.0266           
    1819 A    455  BUT  BD3  CH20     0.000000       14.0266           
    1820 A    455  BUT  BD4  CH30     0.000000       15.0344           
    1821 A    456  BUT  BD1  CH30     0.000000       15.0344           
    1822 A    456  BUT  BD2  CH20     0.000000       14.0266           
    1823 A    456  BUT  BD3  CH20     0.000000       14.0266           
    1824 A    456  BUT  BD4  CH30     0.000000       15.0344           
    1825 A    457  BUT  BD1  CH30     0.000000       15.0344           
    1826 A    457  BUT  BD2  CH20     0.000000       14.0266           
    1827 A    457  BUT  BD3  CH20     0.000000       14.0266           
    1828 A    457  BUT  BD4  CH30     0.000000       15.0344           
    1829 A    458  BUT  BD1  CH30     0.000000       15.0344           
    1830 A    458  BUT  BD2  CH20     0.000000       14.0266           
    1831 A    458  BUT  BD3  CH20     0.000000       14.0266           
    1832 A    458  BUT  BD4  CH30     0.000000       15.0344           
    1833 A    459  BUT  BD1  CH30     0.000000       15.0344           
    1834 A    459  BUT  BD2  CH20     0.000000       14.0266           
    1835 A    459  BUT  BD3  CH20     0.000000       14.0266           
    1836 A    459  BUT  BD4  CH30     0.000000       15.0344           
    1837 A    460  BUT  BD1  CH30     0.000000       15.0344           
    1838 A    460  BUT  BD2  CH20     0.000000       14.0266           
    1839 A    460  BUT  BD3  CH20     0.000000       14.0266           
    1840 A    460  BUT  BD4  CH30     0.000000       15.0344           
    1841 A    461  BUT  BD1  CH30     0.000000       15.0344           
    1842 A    461  BUT  BD2  CH20     0.000000       14.0266           
    1843 A    461  BUT  BD3  CH20     0.000000       14.0266           
    1844 A    461  BUT  BD4  CH30     0.000000       15.0344           
    1845 A    462  BUT  BD1  CH30     0.000000       15.0344           
    1846 A    462  BUT  BD2  CH20     0.000000       14.0266           
    1847 A    462  BUT  BD3  CH20     0.000000       14.0266           
    1848 A    462  BUT  BD4  CH30     0.000000       15.0344           
    1849 A    463  BUT  BD1  CH30     0.000000       15.0344           
    1850 A    463  BUT  BD2  CH20     0.000000       14.0266           
    1851 A    463  BUT  BD3  CH20     0.000000       14.0266           
    1852 A    463  BUT  BD4  CH30     0.000000       15.0344           
    1853 A    464  BUT  BD1  CH30     0.000000       15.0344           
    1854 A    464  BUT  BD2  CH20     0.000000       14.0266           
    1855 A    464  BUT  BD3  CH20     0.000000       14.0266           
    1856 A    464  BUT  BD4  CH30     0.000000       15.0344           
    1857 A    465  BUT  BD1  CH30     0.000000       15.0344           
    1858 A    465  BUT  BD2  CH20     0.000000       14.0266           
    1859 A    465  BUT  BD3  CH20     0.000000       14.0266           
    1860 A    465  BUT  BD4  CH30     0.000000       15.0344           
    1861 A    466  BUT  BD1  CH30     0.000000       15.0344           
    1862 A    466  BUT  BD2  CH20     0.000000       14.0266           
    1863 A    466  BUT  BD3  CH20     0.000000       14.0266           
    1864 A    466  BUT  BD4  CH30     0.000000       15.0344           
    1865 A    467  BUT  BD1  CH30     0.000000       15.0344           
    1866 A    467  BUT  BD2  CH20     0.000000       14.0266           
    1867 A    467  BUT  BD3  CH20     0.000000       14.0266           
    1868 A    467  BUT  BD4  CH30     0.000000       15.0344           
    1869 A    468  BUT  BD1  CH30     0.000000       15.0344           
    1870 A    468  BUT  BD2  CH20     0.000000       14.0266           
    1871 A    468  BUT  BD3  CH20     0.000000       14.0266           
    1872 A    468  BUT  BD4  CH30     0.000000       15.0344           
    1873 A    469  BUT  BD1  CH30     0.000000       15.0344           
    1874 A    469  BUT  BD2  CH20     0.000000       14.0266           
    1875 A    469  BUT  BD3  CH20     0.000000       14.0266           
    1876 A    469  BUT  BD4  CH30     0.000000       15.0344           
    1877 A    470  BUT  BD1  CH30     0.000000       15.0344           
    1878 A    470  BUT  BD2  CH20     0.000000       14.0266           
    1879 A    470  BUT  BD3  CH20     0.000000       14.0266           
    1880 A    470  BUT  BD4  CH30     0.000000       15.0344           
    1881 A    471  BUT  BD1  CH30     0.000000       15.0344           
    1882 A    471  BUT  BD2  CH20     0.000000       14.0266           
    1883 A    471  BUT  BD3  CH20     0.000000       14.0266           
    1884 A    471  BUT  BD4  CH30     0.000000       15.0344           
    1885 A    472  BUT  BD1  CH30     0.000000       15.0344           
    1886 A    472  BUT  BD2  CH20     0.000000       14.0266           
    1887 A    472  BUT  BD3  CH20     0.000000       14.0266           
    1888 A    472  BUT  BD4  CH30     0.000000       15.0344           
    1889 A    473  BUT  BD1  CH30     0.000000       15.0344           
    1890 A    473  BUT  BD2  CH20     0.000000       14.0266           
    1891 A    473  BUT  BD3  CH20     0.000000       14.0266           
    1892 A    473  BUT  BD4  CH30     0.000000       15.0344           
    1893 A    474  BUT  BD1  CH30     0.000000       15.0344           
    1894 A    474  BUT  BD2  CH20     0.000000       14.0266           
    1895 A    474  BUT  BD3  CH20     0.000000       14.0266           
    1896 A    474  BUT  BD4  CH30     0.000000       15.0344           
    1897 A    475  BUT  BD1  CH30     0.000000       15.0344           
    1898 A    475  BUT  BD2  CH20     0.000000       14.0266           
    1899 A    475  BUT  BD3  CH20     0.000000       14.0266           
    1900 A    475  BUT  BD4  CH30     0.000000       15.0344           
    1901 A    476  BUT  BD1  CH30     0.000000       15.0344           
    1902 A    476  BUT  BD2  CH20     0.000000       14.0266           
    1903 A    476  BUT  BD3  CH20     0.000000       14.0266           
    1904 A    476  BUT  BD4  CH30     0.000000       15.0344           
    1905 A    477  BUT  BD1  CH30     0.000000       15.0344           
    1906 A    477  BUT  BD2  CH20     0.000000       14.0266           
    1907 A    477  BUT  BD3  CH20     0.000000       14.0266           
    1908 A    477  BUT  BD4  CH30     0.000000       15.0344           
    1909 A    478  BUT  BD1  CH30     0.000000       15.0344           
    1910 A    478  BUT  BD2  CH20     0.000000       14.0266           
    1911 A    478  BUT  BD3  CH20     0.000000       14.0266           
    1912 A    478  BUT  BD4  CH30     0.000000       15.0344           
    1913 A    479  BUT  BD1  CH30     0.000000       15.0344           
    1914 A    479  BUT  BD2  CH20     0.000000       14.0266           
    1915 A    479  BUT  BD3  CH20     0.000000       14.0266           
    1916 A    479  BUT  BD4  CH30     0.000000       15.0344           
    1917 A    480  BUT  BD1  CH30     0.000000       15.0344           
    1918 A    480  BUT  BD2  CH20     0.000000       14.0266           
    1919 A    480  BUT  BD3  CH20     0.000000       14.0266           
    1920 A    480  BUT  BD4  CH30     0.000000       15.0344           
    1921 A    481  BUT  BD1  CH30     0.000000       15.0344           
    1922 A    481  BUT  BD2  CH20     0.000000       14.0266           
    1923 A    481  BUT  BD3  CH20     0.000000       14.0266           
    1924 A    481  BUT  BD4  CH30     0.000000       15.0344           
    1925 A    482  BUT  BD1  CH30     0.000000       15.0344           
    1926 A    482  BUT  BD2  CH20     0.000000       14.0266           
    1927 A    482  BUT  BD3  CH20     0.000000       14.0266           
    1928 A    482  BUT  BD4  CH30     0.000000       15.0344           
    1929 A    483  BUT  BD1  CH30     0.000000       15.0344           
    1930 A    483  BUT  BD2  CH20     0.000000       14.0266           
    1931 A    483  BUT  BD3  CH20     0.000000       14.0266           
    1932 A    483  BUT  BD4  CH30     0.000000       15.0344           
    1933 A    484  BUT  BD1  CH30     0.000000       15.0344           
    1934 A    484  BUT  BD2  CH20     0.000000       14.0266           
    1935 A    484  BUT  BD3  CH20     0.000000       14.0266           
    1936 A    484  BUT  BD4  CH30     0.000000       15.0344           
    1937 A    485  BUT  BD1  CH30     0.000000       15.0344           
    1938 A    485  BUT  BD2  CH20     0.000000       14.0266           
    1939 A    485  BUT  BD3  CH20     0.000000       14.0266           
    1940 A    485  BUT  BD4  CH30     0.000000       15.0344           
    1941 A    486  BUT  BD1  CH30     0.000000       15.0344           
    1942 A    486  BUT  BD2  CH20     0.000000       14.0266           
    1943 A    486  BUT  BD3  CH20     0.000000       14.0266           
    1944 A    486  BUT  BD4  CH30     0.000000       15.0344           
    1945 A    487  BUT  BD1  CH30     0.000000       15.0344           
    1946 A    487  BUT  BD2  CH20     0.000000       14.0266           
    1947 A    487  BUT  BD3  CH20     0.000000       14.0266           
    1948 A    487  BUT  BD4  CH30     0.000000       15.0344           
    1949 A    488  BUT  BD1  CH30     0.000000       15.0344           
    1950 A    488  BUT  BD2  CH20     0.000000       14.0266           
    1951 A    488  BUT  BD3  CH20     0.000000       14.0266           
    1952 A    488  BUT  BD4  CH30     0.000000       15.0344           
    1953 A    489  BUT  BD1  CH30     0.000000       15.0344           
    1954 A    489  BUT  BD2  CH20     0.000000       14.0266           
    1955 A    489  BUT  BD3  CH20     0.000000       14.0266           
    1956 A    489  BUT  BD4  CH30     0.000000       15.0344           
    1957 A    490  BUT  BD1  CH30     0.000000       15.0344           
    1958 A    490  BUT  BD2  CH20     0.000000       14.0266           
    1959 A    490  BUT  BD3  CH20     0.000000       14.0266           
    1960 A    490  BUT  BD4  CH30     0.000000       15.0344           
    1961 A    491  BUT  BD1  CH30     0.000000       15.0344           
    1962 A    491  BUT  BD2  CH20     0.000000       14.0266           
    1963 A    491  BUT  BD3  CH20     0.000000       14.0266           
    1964 A    491  BUT  BD4  CH30     0.000000       15.0344           
    1965 A    492  BUT  BD1  CH30     0.000000       15.0344           
    1966 A    492  BUT  BD2  CH20     0.000000       14.0266           
    1967 A    492  BUT  BD3  CH20     0.000000       14.0266           
    1968 A    492  BUT  BD4  CH30     0.000000       15.0344           
    1969 A    493  BUT  BD1  CH30     0.000000       15.0344           
    1970 A    493  BUT  BD2  CH20     0.000000       14.0266           
    1971 A    493  BUT  BD3  CH20     0.000000       14.0266           
    1972 A    493  BUT  BD4  CH30     0.000000       15.0344           
    1973 A    494  BUT  BD1  CH30     0.000000       15.0344           
    1974 A    494  BUT  BD2  CH20     0.000000       14.0266           
    1975 A    494  BUT  BD3  CH20     0.000000       14.0266           
    1976 A    494  BUT  BD4  CH30     0.000000       15.0344           
    1977 A    495  BUT  BD1  CH30     0.000000       15.0344           
    1978 A    495  BUT  BD2  CH20     0.000000       14.0266           
    1979 A    495  BUT  BD3  CH20     0.000000       14.0266           
    1980 A    495  BUT  BD4  CH30     0.000000       15.0344           
    1981 A    496  BUT  BD1  CH30     0.000000       15.0344           
    1982 A    496  BUT  BD2  CH20     0.000000       14.0266           
    1983 A    496  BUT  BD3  CH20     0.000000       14.0266           
    1984 A    496  BUT  BD4  CH30     0.000000       15.0344           
    1985 A    497  BUT  BD1  CH30     0.000000       15.0344           
    1986 A    497  BUT  BD2  CH20     0.000000       14.0266           
    1987 A    497  BUT  BD3  CH20     0.000000       14.0266           
    1988 A    497  BUT  BD4  CH30     0.000000       15.0344           
    1989 A    498  BUT  BD1  CH30     0.000000       15.0344           
    1990 A    498  BUT  BD2  CH20     0.000000       14.0266           
    1991 A    498  BUT  BD3  CH20     0.000000       14.0266           
    1992 A    498  BUT  BD4  CH30     0.000000       15.0344           
    1993 A    499  BUT  BD1  CH30     0.000000       15.0344           
    1994 A    499  BUT  BD2  CH20     0.000000       14.0266           
    1995 A    499  BUT  BD3  CH20     0.000000       14.0266           
    1996 A    499  BUT  BD4  CH30     0.000000       15.0344           
    1997 A    500  BUT  BD1  CH30     0.000000       15.0344           
    1998 A    500  BUT  BD2  CH20     0.000000       14.0266           
    1999 A    500  BUT  BD3  CH20     0.000000       14.0266           
    2000 A    500  BUT  BD4  CH30     0.000000       15.0344           
    2001 A    501  BUT  BD1  CH30     0.000000       15.0344           
    2002 A    501  BUT  BD2  CH20     0.000000       14.0266           
    2003 A    501  BUT  BD3  CH20     0.000000       14.0266           
    2004 A    501  BUT  BD4  CH30     0.000000       15.0344           
    2005 A    502  BUT  BD1  CH30     0.000000       15.0344           
    2006 A    502  BUT  BD2  CH20     0.000000       14.0266           
    2007 A    502  BUT  BD3  CH20     0.000000       14.0266           
    2008 A    502  BUT  BD4  CH30     0.000000       15.0344           
    2009 A    503  BUT  BD1  CH30     0.000000       15.0344           
    2010 A    503  BUT  BD2  CH20     0.000000       14.0266           
    2011 A    503  BUT  BD3  CH20     0.000000       14.0266           
    2012 A    503  BUT  BD4  CH30     0.000000       15.0344           
    2013 A    504  BUT  BD1  CH30     0.000000       15.0344           
    2014 A    504  BUT  BD2  CH20     0.000000       14.0266           
    2015 A    504  BUT  BD3  CH20     0.000000       14.0266           
    2016 A    504  BUT  BD4  CH30     0.000000       15.0344           
    2017 A    505  BUT  BD1  CH30     0.000000       15.0344           
    2018 A    505  BUT  BD2  CH20     0.000000       14.0266           
    2019 A    505  BUT  BD3  CH20     0.000000       14.0266           
    2020 A    505  BUT  BD4  CH30     0.000000       15.0344           
    2021 A    506  BUT  BD1  CH30     0.000000       15.0344           
    2022 A    506  BUT  BD2  CH20     0.000000       14.0266           
    2023 A    506  BUT  BD3  CH20     0.000000       14.0266           
    2024 A    506  BUT  BD4  CH30     0.000000       15.0344           
    2025 A    507  BUT  BD1  CH30     0.000000       15.0344           
    2026 A    507  BUT  BD2  CH20     0.000000       14.0266           
    2027 A    507  BUT  BD3  CH20     0.000000       14.0266           
    2028 A    507  BUT  BD4  CH30     0.000000       15.0344           
    2029 A    508  BUT  BD1  CH30     0.000000       15.0344           
    2030 A    508  BUT  BD2  CH20     0.000000       14.0266           
    2031 A    508  BUT  BD3  CH20     0.000000       14.0266           
    2032 A    508  BUT  BD4  CH30     0.000000       15.0344           
    2033 A    509  BUT  BD1  CH30     0.000000       15.0344           
    2034 A    509  BUT  BD2  CH20     0.000000       14.0266           
    2035 A    509  BUT  BD3  CH20     0.000000       14.0266           
    2036 A    509  BUT  BD4  CH30     0.000000       15.0344           
    2037 A    510  BUT  BD1  CH30     0.000000       15.0344           
    2038 A    510  BUT  BD2  CH20     0.000000       14.0266           
    2039 A    510  BUT  BD3  CH20     0.000000       14.0266           
    2040 A    510  BUT  BD4  CH30     0.000000       15.0344           
    2041 A    511  BUT  BD1  CH30     0.000000       15.0344           
    2042 A    511  BUT  BD2  CH20     0.000000       14.0266           
    2043 A    511  BUT  BD3  CH20     0.000000       14.0266           
    2044 A    511  BUT  BD4  CH30     0.000000       15.0344           
    2045 A    512  BUT  BD1  CH30     0.000000       15.0344           
    2046 A    512  BUT  BD2  CH20     0.000000       14.0266           
    2047 A    512  BUT  BD3  CH20     0.000000       14.0266           
    2048 A    512  BUT  BD4  CH30     0.000000       15.0344           
    2049 A    513  BUT  BD1  CH30     0.000000       15.0344           
    2050 A    513  BUT  BD2  CH20     0.000000       14.0266           
    2051 A    513  BUT  BD3  CH20     0.000000       14.0266           
    2052 A    513  BUT  BD4  CH30     0.000000       15.0344           
    2053 A    514  BUT  BD1  CH30     0.000000       15.0344           
    2054 A    514  BUT  BD2  CH20     0.000000       14.0266           
    2055 A    514  BUT  BD3  CH20     0.000000       14.0266           
    2056 A    514  BUT  BD4  CH30     0.000000       15.0344           
    2057 A    515  BUT  BD1  CH30     0.000000       15.0344           
    2058 A    515  BUT  BD2  CH20     0.000000       14.0266           
    2059 A    515  BUT  BD3  CH20     0.000000       14.0266           
    2060 A    515  BUT  BD4  CH30     0.000000       15.0344           
    2061 A    516  BUT  BD1  CH30     0.000000       15.0344           
    2062 A    516  BUT  BD2  CH20     0.000000       14.0266           
    2063 A    516  BUT  BD3  CH20     0.000000       14.0266           
    2064 A    516  BUT  BD4  CH30     0.000000       15.0344           
    2065 A    517  BUT  BD1  CH30     0.000000       15.0344           
    2066 A    517  BUT  BD2  CH20     0.000000       14.0266           
    2067 A    517  BUT  BD3  CH20     0.000000       14.0266           
    2068 A    517  BUT  BD4  CH30     0.000000       15.0344           
    2069 A    518  BUT  BD1  CH30     0.000000       15.0344           
    2070 A    518  BUT  BD2  CH20     0.000000       14.0266           
    2071 A    518  BUT  BD3  CH20     0.000000       14.0266           
    2072 A    518  BUT  BD4  CH30     0.000000       15.0344           
    2073 A    519  BUT  BD1  CH30     0.000000       15.0344           
    2074 A    519  BUT  BD2  CH20     0.000000       14.0266           
    2075 A    519  BUT  BD3  CH20     0.000000       14.0266           
    2076 A    519  BUT  BD4  CH30     0.000000       15.0344           
    2077 A    520  BUT  BD1  CH30     0.000000       15.0344           
    2078 A    520  BUT  BD2  CH20     0.000000       14.0266           
    2079 A    520  BUT  BD3  CH20     0.000000       14.0266           
    2080 A    520  BUT  BD4  CH30     0.000000       15.0344           
    2081 A    521  BUT  BD1  CH30     0.000000       15.0344           
    2082 A    521  BUT  BD2  CH20     0.000000       14.0266           
    2083 A    521  BUT  BD3  CH20     0.000000       14.0266           
    2084 A    521  BUT  BD4  CH30     0.000000       15.0344           
    2085 A    522  BUT  BD1  CH30     0.000000       15.0344           
    2086 A    522  BUT  BD2  CH20     0.000000       14.0266           
    2087 A    522  BUT  BD3  CH20     0.000000       14.0266           
    2088 A    522  BUT  BD4  CH30     0.000000       15.0344           
    2089 A    523  BUT  BD1  CH30     0.000000       15.0344           
    2090 A    523  BUT  BD2  CH20     0.000000       14.0266           
    2091 A    523  BUT  BD3  CH20     0.000000       14.0266           
    2092 A    523  BUT  BD4  CH30     0.000000       15.0344           
    2093 A    524  BUT  BD1  CH30     0.000000       15.0344           
    2094 A    524  BUT  BD2  CH20     0.000000       14.0266           
    2095 A    524  BUT  BD3  CH20     0.000000       14.0266           
    2096 A    524  BUT  BD4  CH30     0.000000       15.0344           
    2097 A    525  BUT  BD1  CH30     0.000000       15.0344           
    2098 A    525  BUT  BD2  CH20     0.000000       14.0266           
    2099 A    525  BUT  BD3  CH20     0.000000       14.0266           
    2100 A    525  BUT  BD4  CH30     0.000000       15.0344           
    2101 A    526  BUT  BD1  CH30     0.000000       15.0344           
    2102 A    526  BUT  BD2  CH20     0.000000       14.0266           
    2103 A    526  BUT  BD3  CH20     0.000000       14.0266           
    2104 A    526  BUT  BD4  CH30     0.000000       15.0344           
    2105 A    527  BUT  BD1  CH30     0.000000       15.0344           
    2106 A    527  BUT  BD2  CH20     0.000000       14.0266           
    2107 A    527  BUT  BD3  CH20     0.000000       14.0266           
    2108 A    527  BUT  BD4  CH30     0.000000       15.0344           
    2109 A    528  BUT  BD1  CH30     0.000000       15.0344           
    2110 A    528  BUT  BD2  CH20     0.000000       14.0266           
    2111 A    528  BUT  BD3  CH20     0.000000       14.0266           
    2112 A    528  BUT  BD4  CH30     0.000000       15.0344           
    2113 A    529  BUT  BD1  CH30     0.000000       15.0344           
    2114 A    529  BUT  BD2  CH20     0.000000       14.0266           
    2115 A    529  BUT  BD3  CH20     0.000000       14.0266           
    2116 A    529  BUT  BD4  CH30     0.000000       15.0344           
    2117 A    530  BUT  BD1  CH30     0.000000       15.0344           
    2118 A    530  BUT  BD2  CH20     0.000000       14.0266           
    2119 A    530  BUT  BD3  CH20     0.000000       14.0266           
    2120 A    530  BUT  BD4  CH30     0.000000       15.0344           
    2121 A    531  BUT  BD1  CH30     0.000000       15.0344           
    2122 A    531  BUT  BD2  CH20     0.000000       14.0266           
    2123 A    531  BUT  BD3  CH20     0.000000       14.0266           
    2124 A    531  BUT  BD4  CH30     0.000000       15.0344           
    2125 A    532  BUT  BD1  CH30     0.000000       15.0344           
    2126 A    532  BUT  BD2  CH20     0.000000       14.0266           
    2127 A    532  BUT  BD3  CH20     0.000000       14.0266           
    2128 A    532  BUT  BD4  CH30     0.000000       15.0344           
    2129 A    533  BUT  BD1  CH30     0.000000       15.0344           
    2130 A    533  BUT  BD2  CH20     0.000000       14.0266           
    2131 A    533  BUT  BD3  CH20     0.000000       14.0266           
    2132 A    533  BUT  BD4  CH30     0.000000       15.0344           
    2133 A    534  BUT  BD1  CH30     0.000000       15.0344           
    2134 A    534  BUT  BD2  CH20     0.000000       14.0266           
    2135 A    534  BUT  BD3  CH20     0.000000       14.0266           
    2136 A    534  BUT  BD4  CH30     0.000000       15.0344           
    2137 A    535  BUT  BD1  CH30     0.000000       15.0344           
    2138 A    535  BUT  BD2  CH20     0.000000       14.0266           
    2139 A    535  BUT  BD3  CH20     0.000000       14.0266           
    2140 A    535  BUT  BD4  CH30     0.000000       15.0344           
    2141 A    536  BUT  BD1  CH30     0.000000       15.0344           
    2142 A    536  BUT  BD2  CH20     0.000000       14.0266           
    2143 A    536  BUT  BD3  CH20     0.000000       14.0266           
    2144 A    536  BUT  BD4  CH30     0.000000       15.0344           
    2145 A    537  BUT  BD1  CH30     0.000000       15.0344           
    2146 A    537  BUT  BD2  CH20     0.000000       14.0266           
    2147 A    537  BUT  BD3  CH20     0.000000       14.0266           
    2148 A    537  BUT  BD4  CH30     0.000000       15.0344           
    2149 A    538  BUT  BD1  CH30     0.000000       15.0344           
    2150 A    538  BUT  BD2  CH20     0.000000       14.0266           
    2151 A    538  BUT  BD3  CH20     0.000000       14.0266           
    2152 A    538  BUT  BD4  CH30     0.000000       15.0344           
    2153 A    539  BUT  BD1  CH30     0.000000       15.0344           
    2154 A    539  BUT  BD2  CH20     0.000000       14.0266           
    2155 A    539  BUT  BD3  CH20     0.000000       14.0266           
    2156 A    539  BUT  BD4  CH30     0.000000       15.0344           
    2157 A    540  BUT  BD1  CH30     0.000000       15.0344           
    2158 A    540  BUT  BD2  CH20     0.000000       14.0266           
    2159 A    540  BUT  BD3  CH20     0.000000       14.0266           
    2160 A    540  BUT  BD4  CH30     0.000000       15.0344           
    2161 A    541  BUT  BD1  CH30     0.000000       15.0344           
    2162 A    541  BUT  BD2  CH20     0.000000       14.0266           
    2163 A    541  BUT  BD3  CH20     0.000000       14.0266           
    2164 A    541  BUT  BD4  CH30     0.000000       15.0344           
    2165 A    542  BUT  BD1  CH30     0.000000       15.0344           
    2166 A    542  BUT  BD2  CH20     0.000000       14.0266           
    2167 A    542  BUT  BD3  CH20     0.000000       14.0266           
    2168 A    542  BUT  BD4  CH30     0.000000       15.0344           
    2169 A    543  BUT  BD1  CH30     0.000000       15.0344           
    2170 A    543  BUT  BD2  CH20     0.000000       14.0266           
    2171 A    543  BUT  BD3  CH20     0.000000       14.0266           
    2172 A    543  BUT  BD4  CH30     0.000000       15.0344           
    2173 A    544  BUT  BD1  CH30     0.000000       15.0344           
    2174 A    544  BUT  BD2  CH20     0.000000       14.0266           
    2175 A    544  BUT  BD3  CH20     0.000000       14.0266           
    2176 A    544  BUT  BD4  CH30     0.000000       15.0344           
    2177 A    545  BUT  BD1  CH30     0.000000       15.0344           
    2178 A    545  BUT  BD2  CH20     0.000000       14.0266           
    2179 A    545  BUT  BD3  CH20     0.000000       14.0266           
    2180 A    545  BUT  BD4  CH30     0.000000       15.0344           
    2181 A    546  BUT  BD1  CH30     0.000000       15.0344           
    2182 A    546  BUT  BD2  CH20     0.000000       14.0266           
    2183 A    546  BUT  BD3  CH20     0.000000       14.0266           
    2184 A    546  BUT  BD4  CH30     0.000000       15.0344           
    2185 A    547  BUT  BD1  CH30     0.000000       15.0344           
    2186 A    547  BUT  BD2  CH20     0.000000       14.0266           
    2187 A    547  BUT  BD3  CH20     0.000000       14.0266           
    2188 A    547  BUT  BD4  CH30     0.000000       15.0344           
    2189 A    548  BUT  BD1  CH30     0.000000       15.0344           
    2190 A    548  BUT  BD2  CH20     0.000000       14.0266           
    2191 A    548  BUT  BD3  CH20     0.000000       14.0266           
    2192 A    548  BUT  BD4  CH30     0.000000       15.0344           
    2193 A    549  BUT  BD1  CH30     0.000000       15.0344           
    2194 A    549  BUT  BD2  CH20     0.000000       14.0266           
    2195 A    549  BUT  BD3  CH20     0.000000       14.0266           
    2196 A    549  BUT  BD4  CH30     0.000000       15.0344           
    2197 A    550  BUT  BD1  CH30     0.000000       15.0344           
    2198 A    550  BUT  BD2  CH20     0.000000       14.0266           
    2199 A    550  BUT  BD3  CH20     0.000000       14.0266           
    2200 A    550  BUT  BD4  CH30     0.000000       15.0344           
    2201 A    551  BUT  BD1  CH30     0.000000       15.0344           
    2202 A    551  BUT  BD2  CH20     0.000000       14.0266           
    2203 A    551  BUT  BD3  CH20     0.000000       14.0266           
    2204 A    551  BUT  BD4  CH30     0.000000       15.0344           
    2205 A    552  BUT  BD1  CH30     0.000000       15.0344           
    2206 A    552  BUT  BD2  CH20     0.000000       14.0266           
    2207 A    552  BUT  BD3  CH20     0.000000       14.0266           
    2208 A    552  BUT  BD4  CH30     0.000000       15.0344           
    2209 A    553  BUT  BD1  CH30     0.000000       15.0344           
    2210 A    553  BUT  BD2  CH20     0.000000       14.0266           
    2211 A    553  BUT  BD3  CH20     0.000000       14.0266           
    2212 A    553  BUT  BD4  CH30     0.000000       15.0344           
    2213 A    554  BUT  BD1  CH30     0.000000       15.0344           
    2214 A    554  BUT  BD2  CH20     0.000000       14.0266           
    2215 A    554  BUT  BD3  CH20     0.000000       14.0266           
    2216 A    554  BUT  BD4  CH30     0.000000       15.0344           
    2217 A    555  BUT  BD1  CH30     0.000000       15.0344           
    2218 A    555  BUT  BD2  CH20     0.000000       14.0266           
    2219 A    555  BUT  BD3  CH20     0.000000       14.0266           
    2220 A    555  BUT  BD4  CH30     0.000000       15.0344           
    2221 A    556  BUT  BD1  CH30     0.000000       15.0344           
    2222 A    556  BUT  BD2  CH20     0.000000       14.0266           
    2223 A    556  BUT  BD3  CH20     0.000000       14.0266           
    2224 A    556  BUT  BD4  CH30     0.000000       15.0344           
    2225 A    557  BUT  BD1  CH30     0.000000       15.0344           
    2226 A    557  BUT  BD2  CH20     0.000000       14.0266           
    2227 A    557  BUT  BD3  CH20     0.000000       14.0266           
    2228 A    557  BUT  BD4  CH30     0.000000       15.0344           
    2229 A    558  BUT  BD1  CH30     0.000000       15.0344           
    2230 A    558  BUT  BD2  CH20     0.000000       14.0266           
    2231 A    558  BUT  BD3  CH20     0.000000       14.0266           
    2232 A    558  BUT  BD4  CH30     0.000000       15.0344           
    2233 A    559  BUT  BD1  CH30     0.000000       15.0344           
    2234 A    559  BUT  BD2  CH20     0.000000       14.0266           
    2235 A    559  BUT  BD3  CH20     0.000000       14.0266           
    2236 A    559  BUT  BD4  CH30     0.000000       15.0344           
    2237 A    560  BUT  BD1  CH30     0.000000       15.0344           
    2238 A    560  BUT  BD2  CH20     0.000000       14.0266           
    2239 A    560  BUT  BD3  CH20     0.000000       14.0266           
    2240 A    560  BUT  BD4  CH30     0.000000       15.0344           
    2241 A    561  BUT  BD1  CH30     0.000000       15.0344           
    2242 A    561  BUT  BD2  CH20     0.000000       14.0266           
    2243 A    561  BUT  BD3  CH20     0.000000       14.0266           
    2244 A    561  BUT  BD4  CH30     0.000000       15.0344           
    2245 A    562  BUT  BD1  CH30     0.000000       15.0344           
    2246 A    562  BUT  BD2  CH20     0.000000       14.0266           
    2247 A    562  BUT  BD3  CH20     0.000000       14.0266           
    2248 A    562  BUT  BD4  CH30     0.000000       15.0344           
    2249 A    563  BUT  BD1  CH30     0.000000       15.0344           
    2250 A    563  BUT  BD2  CH20     0.000000       14.0266           
    2251 A    563  BUT  BD3  CH20     0.000000       14.0266           
    2252 A    563  BUT  BD4  CH30     0.000000       15.0344           
    2253 A    564  BUT  BD1  CH30     0.000000       15.0344           
    2254 A    564  BUT  BD2  CH20     0.000000       14.0266           
    2255 A    564  BUT  BD3  CH20     0.000000       14.0266           
    2256 A    564  BUT  BD4  CH30     0.000000       15.0344           
    2257 A    565  BUT  BD1  CH30     0.000000       15.0344           
    2258 A    565  BUT  BD2  CH20     0.000000       14.0266           
    2259 A    565  BUT  BD3  CH20     0.000000       14.0266           
    2260 A    565  BUT  BD4  CH30     0.000000       15.0344           
    2261 A    566  BUT  BD1  CH30     0.000000       15.0344           
    2262 A    566  BUT  BD2  CH20     0.000000       14.0266           
    2263 A    566  BUT  BD3  CH20     0.000000       14.0266           
    2264 A    566  BUT  BD4  CH30     0.000000       15.0344           
    2265 A    567  BUT  BD1  CH30     0.000000       15.0344           
    2266 A    567  BUT  BD2  CH20     0.000000       14.0266           
    2267 A    567  BUT  BD3  CH20     0.000000       14.0266           
    2268 A    567  BUT  BD4  CH30     0.000000       15.0344           
    2269 A    568  BUT  BD1  CH30     0.000000       15.0344           
    2270 A    568  BUT  BD2  CH20     0.000000       14.0266           
    2271 A    568  BUT  BD3  CH20     0.000000       14.0266           
    2272 A    568  BUT  BD4  CH30     0.000000       15.0344           
    2273 A    569  BUT  BD1  CH30     0.000000       15.0344           
    2274 A    569  BUT  BD2  CH20     0.000000       14.0266           
    2275 A    569  BUT  BD3  CH20     0.000000       14.0266           
    2276 A    569  BUT  BD4  CH30     0.000000       15.0344           
    2277 A    570  BUT  BD1  CH30     0.000000       15.0344           
    2278 A    570  BUT  BD2  CH20     0.000000       14.0266           
    2279 A    570  BUT  BD3  CH20     0.000000       14.0266           
    2280 A    570  BUT  BD4  CH30     0.000000       15.0344           
    2281 A    571  BUT  BD1  CH30     0.000000       15.0344           
    2282 A    571  BUT  BD2  CH20     0.000000       14.0266           
    2283 A    571  BUT  BD3  CH20     0.000000       14.0266           
    2284 A    571  BUT  BD4  CH30     0.000000       15.0344           
    2285 A    572  BUT  BD1  CH30     0.000000       15.0344           
    2286 A    572  BUT  BD2  CH20     0.000000       14.0266           
    2287 A    572  BUT  BD3  CH20     0.000000       14.0266           
    2288 A    572  BUT  BD4  CH30     0.000000       15.0344           
    2289 A    573  BUT  BD1  CH30     0.000000       15.0344           
    2290 A    573  BUT  BD2  CH20     0.000000       14.0266           
    2291 A    573  BUT  BD3  CH20     0.000000       14.0266           
    2292 A    573  BUT  BD4  CH30     0.000000       15.0344           
    2293 A    574  BUT  BD1  CH30     0.000000       15.0344           
    2294 A    574  BUT  BD2  CH20     0.000000       14.0266           
    2295 A    574  BUT  BD3  CH20     0.000000       14.0266           
    2296 A    574  BUT  BD4  CH30     0.000000       15.0344           
    2297 A    575  BUT  BD1  CH30     0.000000       15.0344           
    2298 A    575  BUT  BD2  CH20     0.000000       14.0266           
    2299 A    575  BUT  BD3  CH20     0.000000       14.0266           
    2300 A    575  BUT  BD4  CH30     0.000000       15.0344           
    2301 A    576  BUT  BD1  CH30     0.000000       15.0344           
    2302 A    576  BUT  BD2  CH20     0.000000       14.0266           
    2303 A    576  BUT  BD3  CH20     0.000000       14.0266           
    2304 A    576  BUT  BD4  CH30     0.000000       15.0344           
    2305 A    577  BUT  BD1  CH30     0.000000       15.0344           
    2306 A    577  BUT  BD2  CH20     0.000000       14.0266           
    2307 A    577  BUT  BD3  CH20     0.000000       14.0266           
    2308 A    577  BUT  BD4  CH30     0.000000       15.0344           
    2309 A    578  BUT  BD1  CH30     0.000000       15.0344           
    2310 A    578  BUT  BD2  CH20     0.000000       14.0266           
    2311 A    578  BUT  BD3  CH20     0.000000       14.0266           
    2312 A    578  BUT  BD4  CH30     0.000000       15.0344           
    2313 A    579  BUT  BD1  CH30     0.000000       15.0344           
    2314 A    579  BUT  BD2  CH20     0.000000       14.0266           
    2315 A    579  BUT  BD3  CH20     0.000000       14.0266           
    2316 A    579  BUT  BD4  CH30     0.000000       15.0344           
    2317 A    580  BUT  BD1  CH30     0.000000       15.0344           
    2318 A    580  BUT  BD2  CH20     0.000000       14.0266           
    2319 A    580  BUT  BD3  CH20     0.000000       14.0266           
    2320 A    580  BUT  BD4  CH30     0.000000       15.0344           
    2321 A    581  BUT  BD1  CH30     0.000000       15.0344           
    2322 A    581  BUT  BD2  CH20     0.000000       14.0266           
    2323 A    581  BUT  BD3  CH20     0.000000       14.0266           
    2324 A    581  BUT  BD4  CH30     0.000000       15.0344           
    2325 A    582  BUT  BD1  CH30     0.000000       15.0344           
    2326 A    582  BUT  BD2  CH20     0.000000       14.0266           
    2327 A    582  BUT  BD3  CH20     0.000000       14.0266           
    2328 A    582  BUT  BD4  CH30     0.000000       15.0344           
    2329 A    583  BUT  BD1  CH30     0.000000       15.0344           
    2330 A    583  BUT  BD2  CH20     0.000000       14.0266           
    2331 A    583  BUT  BD3  CH20     0.000000       14.0266           
    2332 A    583  BUT  BD4  CH30     0.000000       15.0344           
    2333 A    584  BUT  BD1  CH30     0.000000       15.0344           
    2334 A    584  BUT  BD2  CH20     0.000000       14.0266           
    2335 A    584  BUT  BD3  CH20     0.000000       14.0266           
    2336 A    584  BUT  BD4  CH30     0.000000       15.0344           
    2337 A    585  BUT  BD1  CH30     0.000000       15.0344           
    2338 A    585  BUT  BD2  CH20     0.000000       14.0266           
    2339 A    585  BUT  BD3  CH20     0.000000       14.0266           
    2340 A    585  BUT  BD4  CH30     0.000000       15.0344           
    2341 A    586  BUT  BD1  CH30     0.000000       15.0344           
    2342 A    586  BUT  BD2  CH20     0.000000       14.0266           
    2343 A    586  BUT  BD3  CH20     0.000000       14.0266           
    2344 A    586  BUT  BD4  CH30     0.000000       15.0344           
    2345 A    587  BUT  BD1  CH30     0.000000       15.0344           
    2346 A    587  BUT  BD2  CH20     0.000000       14.0266           
    2347 A    587  BUT  BD3  CH20     0.000000       14.0266           
    2348 A    587  BUT  BD4  CH30     0.000000       15.0344           
    2349 A    588  BUT  BD1  CH30     0.000000       15.0344           
    2350 A    588  BUT  BD2  CH20     0.000000       14.0266           
    2351 A    588  BUT  BD3  CH20     0.000000       14.0266           
    2352 A    588  BUT  BD4  CH30     0.000000       15.0344           
    2353 A    589  BUT  BD1  CH30     0.000000       15.0344           
    2354 A    589  BUT  BD2  CH20     0.000000       14.0266           
    2355 A    589  BUT  BD3  CH20     0.000000       14.0266           
    2356 A    589  BUT  BD4  CH30     0.000000       15.0344           
    2357 A    590  BUT  BD1  CH30     0.000000       15.0344           
    2358 A    590  BUT  BD2  CH20     0.000000       14.0266           
    2359 A    590  BUT  BD3  CH20     0.000000       14.0266           
    2360 A    590  BUT  BD4  CH30     0.000000       15.0344           
    2361 A    591  BUT  BD1  CH30     0.000000       15.0344           
    2362 A    591  BUT  BD2  CH20     0.000000       14.0266           
    2363 A    591  BUT  BD3  CH20     0.000000       14.0266           
    2364 A    591  BUT  BD4  CH30     0.000000       15.0344           
    2365 A    592  BUT  BD1  CH30     0.000000       15.0344           
    2366 A    592  BUT  BD2  CH20     0.000000       14.0266           
    2367 A    592  BUT  BD3  CH20     0.000000       14.0266           
    2368 A    592  BUT  BD4  CH30     0.000000       15.0344           
    2369 A    593  BUT  BD1  CH30     0.000000       15.0344           
    2370 A    593  BUT  BD2  CH20     0.000000       14.0266           
    2371 A    593  BUT  BD3  CH20     0.000000       14.0266           
    2372 A    593  BUT  BD4  CH30     0.000000       15.0344           
    2373 A    594  BUT  BD1  CH30     0.000000       15.0344           
    2374 A    594  BUT  BD2  CH20     0.000000       14.0266           
    2375 A    594  BUT  BD3  CH20     0.000000       14.0266           
    2376 A    594  BUT  BD4  CH30     0.000000       15.0344           
    2377 A    595  BUT  BD1  CH30     0.000000       15.0344           
    2378 A    595  BUT  BD2  CH20     0.000000       14.0266           
    2379 A    595  BUT  BD3  CH20     0.000000       14.0266           
    2380 A    595  BUT  BD4  CH30     0.000000       15.0344           
    2381 A    596  BUT  BD1  CH30     0.000000       15.0344           
    2382 A    596  BUT  BD2  CH20     0.000000       14.0266           
    2383 A    596  BUT  BD3  CH20     0.000000       14.0266           
    2384 A    596  BUT  BD4  CH30     0.000000       15.0344           
    2385 A    597  BUT  BD1  CH30     0.000000       15.0344           
    2386 A    597  BUT  BD2  CH20     0.000000       14.0266           
    2387 A    597  BUT  BD3  CH20     0.000000       14.0266           
    2388 A    597  BUT  BD4  CH30     0.000000       15.0344           
    2389 A    598  BUT  BD1  CH30     0.000000       15.0344           
    2390 A    598  BUT  BD2  CH20     0.000000       14.0266           
    2391 A    598  BUT  BD3  CH20     0.000000       14.0266           
    2392 A    598  BUT  BD4  CH30     0.000000       15.0344           
    2393 A    599  BUT  BD1  CH30     0.000000       15.0344           
    2394 A    599  BUT  BD2  CH20     0.000000       14.0266           
    2395 A    599  BUT  BD3  CH20     0.000000       14.0266           
    2396 A    599  BUT  BD4  CH30     0.000000       15.0344           
    2397 A    600  BUT  BD1  CH30     0.000000       15.0344           
    2398 A    600  BUT  BD2  CH20     0.000000       14.0266           
    2399 A    600  BUT  BD3  CH20     0.000000       14.0266           
    2400 A    600  BUT  BD4  CH30     0.000000       15.0344           
    2401 A    601  BUT  BD1  CH30     0.000000       15.0344           
    2402 A    601  BUT  BD2  CH20     0.000000       14.0266           
    2403 A    601  BUT  BD3  CH20     0.000000       14.0266           
    2404 A    601  BUT  BD4  CH30     0.000000       15.0344           
    2405 A    602  BUT  BD1  CH30     0.000000       15.0344           
    2406 A    602  BUT  BD2  CH20     0.000000       14.0266           
    2407 A    602  BUT  BD3  CH20     0.000000       14.0266           
    2408 A    602  BUT  BD4  CH30     0.000000       15.0344           
    2409 A    603  BUT  BD1  CH30     0.000000       15.0344           
    2410 A    603  BUT  BD2  CH20     0.000000       14.0266           
    2411 A    603  BUT  BD3  CH20     0.000000       14.0266           
    2412 A    603  BUT  BD4  CH30     0.000000       15.0344           
    2413 A    604  BUT  BD1  CH30     0.000000       15.0344           
    2414 A    604  BUT  BD2  CH20     0.000000       14.0266           
    2415 A    604  BUT  BD3  CH20     0.000000       14.0266           
    2416 A    604  BUT  BD4  CH30     0.000000       15.0344           
    2417 A    605  BUT  BD1  CH30     0.000000       15.0344           
    2418 A    605  BUT  BD2  CH20     0.000000       14.0266           
    2419 A    605  BUT  BD3  CH20     0.000000       14.0266           
    2420 A    605  BUT  BD4  CH30     0.000000       15.0344           
    2421 A    606  BUT  BD1  CH30     0.000000       15.0344           
    2422 A    606  BUT  BD2  CH20     0.000000       14.0266           
    2423 A    606  BUT  BD3  CH20     0.000000       14.0266           
    2424 A    606  BUT  BD4  CH30     0.000000       15.0344           
    2425 A    607  BUT  BD1  CH30     0.000000       15.0344           
    2426 A    607  BUT  BD2  CH20     0.000000       14.0266           
    2427 A    607  BUT  BD3  CH20     0.000000       14.0266           
    2428 A    607  BUT  BD4  CH30     0.000000       15.0344           
    2429 A    608  BUT  BD1  CH30     0.000000       15.0344           
    2430 A    608  BUT  BD2  CH20     0.000000       14.0266           
    2431 A    608  BUT  BD3  CH20     0.000000       14.0266           
    2432 A    608  BUT  BD4  CH30     0.000000       15.0344           
    2433 A    609  BUT  BD1  CH30     0.000000       15.0344           
    2434 A    609  BUT  BD2  CH20     0.000000       14.0266           
    2435 A    609  BUT  BD3  CH20     0.000000       14.0266           
    2436 A    609  BUT  BD4  CH30     0.000000       15.0344           
    2437 A    610  BUT  BD1  CH30     0.000000       15.0344           
    2438 A    610  BUT  BD2  CH20     0.000000       14.0266           
    2439 A    610  BUT  BD3  CH20     0.000000       14.0266           
    2440 A    610  BUT  BD4  CH30     0.000000       15.0344           
    2441 A    611  BUT  BD1  CH30     0.000000       15.0344           
    2442 A    611  BUT  BD2  CH20     0.000000       14.0266           
    2443 A    611  BUT  BD3  CH20     0.000000       14.0266           
    2444 A    611  BUT  BD4  CH30     0.000000       15.0344           
    2445 A    612  BUT  BD1  CH30     0.000000       15.0344           
    2446 A    612  BUT  BD2  CH20     0.000000       14.0266           
    2447 A    612  BUT  BD3  CH20     0.000000       14.0266           
    2448 A    612  BUT  BD4  CH30     0.000000       15.0344           
    2449 A    613  BUT  BD1  CH30     0.000000       15.0344           
    2450 A    613  BUT  BD2  CH20     0.000000       14.0266           
    2451 A    613  BUT  BD3  CH20     0.000000       14.0266           
    2452 A    613  BUT  BD4  CH30     0.000000       15.0344           
    2453 A    614  BUT  BD1  CH30     0.000000       15.0344           
    2454 A    614  BUT  BD2  CH20     0.000000       14.0266           
    2455 A    614  BUT  BD3  CH20     0.000000       14.0266           
    2456 A    614  BUT  BD4  CH30     0.000000       15.0344           
    2457 A    615  BUT  BD1  CH30     0.000000       15.0344           
    2458 A    615  BUT  BD2  CH20     0.000000       14.0266           
    2459 A    615  BUT  BD3  CH20     0.000000       14.0266           
    2460 A    615  BUT  BD4  CH30     0.000000       15.0344           
    2461 A    616  BUT  BD1  CH30     0.000000       15.0344           
    2462 A    616  BUT  BD2  CH20     0.000000       14.0266           
    2463 A    616  BUT  BD3  CH20     0.000000       14.0266           
    2464 A    616  BUT  BD4  CH30     0.000000       15.0344           
    2465 A    617  BUT  BD1  CH30     0.000000       15.0344           
    2466 A    617  BUT  BD2  CH20     0.000000       14.0266           
    2467 A    617  BUT  BD3  CH20     0.000000       14.0266           
    2468 A    617  BUT  BD4  CH30     0.000000       15.0344           
    2469 A    618  BUT  BD1  CH30     0.000000       15.0344           
    2470 A    618  BUT  BD2  CH20     0.000000       14.0266           
    2471 A    618  BUT  BD3  CH20     0.000000       14.0266           
    2472 A    618  BUT  BD4  CH30     0.000000       15.0344           
    2473 A    619  BUT  BD1  CH30     0.000000       15.0344           
    2474 A    619  BUT  BD2  CH20     0.000000       14.0266           
    2475 A    619  BUT  BD3  CH20     0.000000       14.0266           
    2476 A    619  BUT  BD4  CH30     0.000000       15.0344           
    2477 A    620  BUT  BD1  CH30     0.000000       15.0344           
    2478 A    620  BUT  BD2  CH20     0.000000       14.0266           
    2479 A    620  BUT  BD3  CH20     0.000000       14.0266           
    2480 A    620  BUT  BD4  CH30     0.000000       15.0344           
    2481 A    621  BUT  BD1  CH30     0.000000       15.0344           
    2482 A    621  BUT  BD2  CH20     0.000000       14.0266           
    2483 A    621  BUT  BD3  CH20     0.000000       14.0266           
    2484 A    621  BUT  BD4  CH30     0.000000       15.0344           
    2485 A    622  BUT  BD1  CH30     0.000000       15.0344           
    2486 A    622  BUT  BD2  CH20     0.000000       14.0266           
    2487 A    622  BUT  BD3  CH20     0.000000       14.0266           
    2488 A    622  BUT  BD4  CH30     0.000000       15.0344           
    2489 A    623  BUT  BD1  CH30     0.000000       15.0344           
    2490 A    623  BUT  BD2  CH20     0.000000       14.0266           
    2491 A    623  BUT  BD3  CH20     0.000000       14.0266           
    2492 A    623  BUT  BD4  CH30     0.000000       15.0344           
    2493 A    624  BUT  BD1  CH30     0.000000       15.0344           
    2494 A    624  BUT  BD2  CH20     0.000000       14.0266           
    2495 A    624  BUT  BD3  CH20     0.000000       14.0266           
    2496 A    624  BUT  BD4  CH30     0.000000       15.0344           
    2497 A    625  BUT  BD1  CH30     0.000000       15.0344           
    2498 A    625  BUT  BD2  CH20     0.000000       14.0266           
    2499 A    625  BUT  BD3  CH20     0.000000       14.0266           
    2500 A    625  BUT  BD4  CH30     0.000000       15.0344           
    2501 A    626  BUT  BD1  CH30     0.000000       15.0344           
    2502 A    626  BUT  BD2  CH20     0.000000       14.0266           
    2503 A    626  BUT  BD3  CH20     0.000000       14.0266           
    2504 A    626  BUT  BD4  CH30     0.000000       15.0344           
    2505 A    627  BUT  BD1  CH30     0.000000       15.0344           
    2506 A    627  BUT  BD2  CH20     0.000000       14.0266           
    2507 A    627  BUT  BD3  CH20     0.000000       14.0266           
    2508 A    627  BUT  BD4  CH30     0.000000       15.0344           
    2509 A    628  BUT  BD1  CH30     0.000000       15.0344           
    2510 A    628  BUT  BD2  CH20     0.000000       14.0266           
    2511 A    628  BUT  BD3  CH20     0.000000       14.0266           
    2512 A    628  BUT  BD4  CH30     0.000000       15.0344           
    2513 A    629  BUT  BD1  CH30     0.000000       15.0344           
    2514 A    629  BUT  BD2  CH20     0.000000       14.0266           
    2515 A    629  BUT  BD3  CH20     0.000000       14.0266           
    2516 A    629  BUT  BD4  CH30     0.000000       15.0344           
    2517 A    630  BUT  BD1  CH30     0.000000       15.0344           
    2518 A    630  BUT  BD2  CH20     0.000000       14.0266           
    2519 A    630  BUT  BD3  CH20     0.000000       14.0266           
    2520 A    630  BUT  BD4  CH30     0.000000       15.0344           
    2521 A    631  BUT  BD1  CH30     0.000000       15.0344           
    2522 A    631  BUT  BD2  CH20     0.000000       14.0266           
    2523 A    631  BUT  BD3  CH20     0.000000       14.0266           
    2524 A    631  BUT  BD4  CH30     0.000000       15.0344           
    2525 A    632  BUT  BD1  CH30     0.000000       15.0344           
    2526 A    632  BUT  BD2  CH20     0.000000       14.0266           
    2527 A    632  BUT  BD3  CH20     0.000000       14.0266           
    2528 A    632  BUT  BD4  CH30     0.000000       15.0344           
    2529 A    633  BUT  BD1  CH30     0.000000       15.0344           
    2530 A    633  BUT  BD2  CH20     0.000000       14.0266           
    2531 A    633  BUT  BD3  CH20     0.000000       14.0266           
    2532 A    633  BUT  BD4  CH30     0.000000       15.0344           
    2533 A    634  BUT  BD1  CH30     0.000000       15.0344           
    2534 A    634  BUT  BD2  CH20     0.000000       14.0266           
    2535 A    634  BUT  BD3  CH20     0.000000       14.0266           
    2536 A    634  BUT  BD4  CH30     0.000000       15.0344           
    2537 A    635  BUT  BD1  CH30     0.000000       15.0344           
    2538 A    635  BUT  BD2  CH20     0.000000       14.0266           
    2539 A    635  BUT  BD3  CH20     0.000000       14.0266           
    2540 A    635  BUT  BD4  CH30     0.000000       15.0344           
    2541 A    636  BUT  BD1  CH30     0.000000       15.0344           
    2542 A    636  BUT  BD2  CH20     0.000000       14.0266           
    2543 A    636  BUT  BD3  CH20     0.000000       14.0266           
    2544 A    636  BUT  BD4  CH30     0.000000       15.0344           
    2545 A    637  BUT  BD1  CH30     0.000000       15.0344           
    2546 A    637  BUT  BD2  CH20     0.000000       14.0266           
    2547 A    637  BUT  BD3  CH20     0.000000       14.0266           
    2548 A    637  BUT  BD4  CH30     0.000000       15.0344           
    2549 A    638  BUT  BD1  CH30     0.000000       15.0344           
    2550 A    638  BUT  BD2  CH20     0.000000       14.0266           
    2551 A    638  BUT  BD3  CH20     0.000000       14.0266           
    2552 A    638  BUT  BD4  CH30     0.000000       15.0344           
    2553 A    639  BUT  BD1  CH30     0.000000       15.0344           
    2554 A    639  BUT  BD2  CH20     0.000000       14.0266           
    2555 A    639  BUT  BD3  CH20     0.000000       14.0266           
    2556 A    639  BUT  BD4  CH30     0.000000       15.0344           
    2557 A    640  BUT  BD1  CH30     0.000000       15.0344           
    2558 A    640  BUT  BD2  CH20     0.000000       14.0266           
    2559 A    640  BUT  BD3  CH20     0.000000       14.0266           
    2560 A    640  BUT  BD4  CH30     0.000000       15.0344           
    2561 A    641  BUT  BD1  CH30     0.000000       15.0344           
    2562 A    641  BUT  BD2  CH20     0.000000       14.0266           
    2563 A    641  BUT  BD3  CH20     0.000000       14.0266           
    2564 A    641  BUT  BD4  CH30     0.000000       15.0344           
    2565 A    642  BUT  BD1  CH30     0.000000       15.0344           
    2566 A    642  BUT  BD2  CH20     0.000000       14.0266           
    2567 A    642  BUT  BD3  CH20     0.000000       14.0266           
    2568 A    642  BUT  BD4  CH30     0.000000       15.0344           
    2569 A    643  BUT  BD1  CH30     0.000000       15.0344           
    2570 A    643  BUT  BD2  CH20     0.000000       14.0266           
    2571 A    643  BUT  BD3  CH20     0.000000       14.0266           
    2572 A    643  BUT  BD4  CH30     0.000000       15.0344           
    2573 A    644  BUT  BD1  CH30     0.000000       15.0344           
    2574 A    644  BUT  BD2  CH20     0.000000       14.0266           
    2575 A    644  BUT  BD3  CH20     0.000000       14.0266           
    2576 A    644  BUT  BD4  CH30     0.000000       15.0344           
    2577 A    645  BUT  BD1  CH30     0.000000       15.0344           
    2578 A    645  BUT  BD2  CH20     0.000000       14.0266           
    2579 A    645  BUT  BD3  CH20     0.000000       14.0266           
    2580 A    645  BUT  BD4  CH30     0.000000       15.0344           
    2581 A    646  BUT  BD1  CH30     0.000000       15.0344           
    2582 A    646  BUT  BD2  CH20     0.000000       14.0266           
    2583 A    646  BUT  BD3  CH20     0.000000       14.0266           
    2584 A    646  BUT  BD4  CH30     0.000000       15.0344           
    2585 A    647  BUT  BD1  CH30     0.000000       15.0344           
    2586 A    647  BUT  BD2  CH20     0.000000       14.0266           
    2587 A    647  BUT  BD3  CH20     0.000000       14.0266           
    2588 A    647  BUT  BD4  CH30     0.000000       15.0344           
    2589 A    648  BUT  BD1  CH30     0.000000       15.0344           
    2590 A    648  BUT  BD2  CH20     0.000000       14.0266           
    2591 A    648  BUT  BD3  CH20     0.000000       14.0266           
    2592 A    648  BUT  BD4  CH30     0.000000       15.0344           
    2593 A    649  BUT  BD1  CH30     0.000000       15.0344           
    2594 A    649  BUT  BD2  CH20     0.000000       14.0266           
    2595 A    649  BUT  BD3  CH20     0.000000       14.0266           
    2596 A    649  BUT  BD4  CH30     0.000000       15.0344           
    2597 A    650  BUT  BD1  CH30     0.000000       15.0344           
    2598 A    650  BUT  BD2  CH20     0.000000       14.0266           
    2599 A    650  BUT  BD3  CH20     0.000000       14.0266           
    2600 A    650  BUT  BD4  CH30     0.000000       15.0344           
    2601 A    651  BUT  BD1  CH30     0.000000       15.0344           
    2602 A    651  BUT  BD2  CH20     0.000000       14.0266           
    2603 A    651  BUT  BD3  CH20     0.000000       14.0266           
    2604 A    651  BUT  BD4  CH30     0.000000       15.0344           
    2605 A    652  BUT  BD1  CH30     0.000000       15.0344           
    2606 A    652  BUT  BD2  CH20     0.000000       14.0266           
    2607 A    652  BUT  BD3  CH20     0.000000       14.0266           
    2608 A    652  BUT  BD4  CH30     0.000000       15.0344           
    2609 A    653  BUT  BD1  CH30     0.000000       15.0344           
    2610 A    653  BUT  BD2  CH20     0.000000       14.0266           
    2611 A    653  BUT  BD3  CH20     0.000000       14.0266           
    2612 A    653  BUT  BD4  CH30     0.000000       15.0344           
    2613 A    654  BUT  BD1  CH30     0.000000       15.0344           
    2614 A    654  BUT  BD2  CH20     0.000000       14.0266           
    2615 A    654  BUT  BD3  CH20     0.000000       14.0266           
    2616 A    654  BUT  BD4  CH30     0.000000       15.0344           
    2617 A    655  BUT  BD1  CH30     0.000000       15.0344           
    2618 A    655  BUT  BD2  CH20     0.000000       14.0266           
    2619 A    655  BUT  BD3  CH20     0.000000       14.0266           
    2620 A    655  BUT  BD4  CH30     0.000000       15.0344           
    2621 A    656  BUT  BD1  CH30     0.000000       15.0344           
    2622 A    656  BUT  BD2  CH20     0.000000       14.0266           
    2623 A    656  BUT  BD3  CH20     0.000000       14.0266           
    2624 A    656  BUT  BD4  CH30     0.000000       15.0344           
    2625 A    657  BUT  BD1  CH30     0.000000       15.0344           
    2626 A    657  BUT  BD2  CH20     0.000000       14.0266           
    2627 A    657  BUT  BD3  CH20     0.000000       14.0266           
    2628 A    657  BUT  BD4  CH30     0.000000       15.0344           
    2629 A    658  BUT  BD1  CH30     0.000000       15.0344           
    2630 A    658  BUT  BD2  CH20     0.000000       14.0266           
    2631 A    658  BUT  BD3  CH20     0.000000       14.0266           
    2632 A    658  BUT  BD4  CH30     0.000000       15.0344           
    2633 A    659  BUT  BD1  CH30     0.000000       15.0344           
    2634 A    659  BUT  BD2  CH20     0.000000       14.0266           
    2635 A    659  BUT  BD3  CH20     0.000000       14.0266           
    2636 A    659  BUT  BD4  CH30     0.000000       15.0344           
    2637 A    660  BUT  BD1  CH30     0.000000       15.0344           
    2638 A    660  BUT  BD2  CH20     0.000000       14.0266           
    2639 A    660  BUT  BD3  CH20     0.000000       14.0266           
    2640 A    660  BUT  BD4  CH30     0.000000       15.0344           
    2641 A    661  BUT  BD1  CH30     0.000000       15.0344           
    2642 A    661  BUT  BD2  CH20     0.000000       14.0266           
    2643 A    661  BUT  BD3  CH20     0.000000       14.0266           
    2644 A    661  BUT  BD4  CH30     0.000000       15.0344           
    2645 A    662  BUT  BD1  CH30     0.000000       15.0344           
    2646 A    662  BUT  BD2  CH20     0.000000       14.0266           
    2647 A    662  BUT  BD3  CH20     0.000000       14.0266           
    2648 A    662  BUT  BD4  CH30     0.000000       15.0344           
    2649 A    663  BUT  BD1  CH30     0.000000       15.0344           
    2650 A    663  BUT  BD2  CH20     0.000000       14.0266           
    2651 A    663  BUT  BD3  CH20     0.000000       14.0266           
    2652 A    663  BUT  BD4  CH30     0.000000       15.0344           
    2653 A    664  BUT  BD1  CH30     0.000000       15.0344           
    2654 A    664  BUT  BD2  CH20     0.000000       14.0266           
    2655 A    664  BUT  BD3  CH20     0.000000       14.0266           
    2656 A    664  BUT  BD4  CH30     0.000000       15.0344           
    2657 A    665  BUT  BD1  CH30     0.000000       15.0344           
    2658 A    665  BUT  BD2  CH20     0.000000       14.0266           
    2659 A    665  BUT  BD3  CH20     0.000000       14.0266           
    2660 A    665  BUT  BD4  CH30     0.000000       15.0344           
    2661 A    666  BUT  BD1  CH30     0.000000       15.0344           
    2662 A    666  BUT  BD2  CH20     0.000000       14.0266           
    2663 A    666  BUT  BD3  CH20     0.000000       14.0266           
    2664 A    666  BUT  BD4  CH30     0.000000       15.0344           
    2665 A    667  BUT  BD1  CH30     0.000000       15.0344           
    2666 A    667  BUT  BD2  CH20     0.000000       14.0266           
    2667 A    667  BUT  BD3  CH20     0.000000       14.0266           
    2668 A    667  BUT  BD4  CH30     0.000000       15.0344           
    2669 A    668  BUT  BD1  CH30     0.000000       15.0344           
    2670 A    668  BUT  BD2  CH20     0.000000       14.0266           
    2671 A    668  BUT  BD3  CH20     0.000000       14.0266           
    2672 A    668  BUT  BD4  CH30     0.000000       15.0344           
    2673 A    669  BUT  BD1  CH30     0.000000       15.0344           
    2674 A    669  BUT  BD2  CH20     0.000000       14.0266           
    2675 A    669  BUT  BD3  CH20     0.000000       14.0266           
    2676 A    669  BUT  BD4  CH30     0.000000       15.0344           
    2677 A    670  BUT  BD1  CH30     0.000000       15.0344           
    2678 A    670  BUT  BD2  CH20     0.000000       14.0266           
    2679 A    670  BUT  BD3  CH20     0.000000       14.0266           
    2680 A    670  BUT  BD4  CH30     0.000000       15.0344           
    2681 A    671  BUT  BD1  CH30     0.000000       15.0344           
    2682 A    671  BUT  BD2  CH20     0.000000       14.0266           
    2683 A    671  BUT  BD3  CH20     0.000000       14.0266           
    2684 A    671  BUT  BD4  CH30     0.000000       15.0344           
    2685 A    672  BUT  BD1  CH30     0.000000       15.0344           
    2686 A    672  BUT  BD2  CH20     0.000000       14.0266           
    2687 A    672  BUT  BD3  CH20     0.000000       14.0266           
    2688 A    672  BUT  BD4  CH30     0.000000       15.0344           
    2689 A    673  BUT  BD1  CH30     0.000000       15.0344           
    2690 A    673  BUT  BD2  CH20     0.000000       14.0266           
    2691 A    673  BUT  BD3  CH20     0.000000       14.0266           
    2692 A    673  BUT  BD4  CH30     0.000000       15.0344           
    2693 A    674  BUT  BD1  CH30     0.000000       15.0344           
    2694 A    674  BUT  BD2  CH20     0.000000       14.0266           
    2695 A    674  BUT  BD3  CH20     0.000000       14.0266           
    2696 A    674  BUT  BD4  CH30     0.000000       15.0344           
    2697 A    675  BUT  BD1  CH30     0.000000       15.0344           
    2698 A    675  BUT  BD2  CH20     0.000000       14.0266           
    2699 A    675  BUT  BD3  CH20     0.000000       14.0266           
    2700 A    675  BUT  BD4  CH30     0.000000       15.0344           
    2701 A    676  BUT  BD1  CH30     0.000000       15.0344           
    2702 A    676  BUT  BD2  CH20     0.000000       14.0266           
    2703 A    676  BUT  BD3  CH20     0.000000       14.0266           
    2704 A    676  BUT  BD4  CH30     0.000000       15.0344           
    2705 A    677  BUT  BD1  CH30     0.000000       15.0344           
    2706 A    677  BUT  BD2  CH20     0.000000       14.0266           
    2707 A    677  BUT  BD3  CH20     0.000000       14.0266           
    2708 A    677  BUT  BD4  CH30     0.000000       15.0344           
    2709 A    678  BUT  BD1  CH30     0.000000       15.0344           
    2710 A    678  BUT  BD2  CH20     0.000000       14.0266           
    2711 A    678  BUT  BD3  CH20     0.000000       14.0266           
    2712 A    678  BUT  BD4  CH30     0.000000       15.0344           
    2713 A    679  BUT  BD1  CH30     0.000000       15.0344           
    2714 A    679  BUT  BD2  CH20     0.000000       14.0266           
    2715 A    679  BUT  BD3  CH20     0.000000       14.0266           
    2716 A    679  BUT  BD4  CH30     0.000000       15.0344           
    2717 A    680  BUT  BD1  CH30     0.000000       15.0344           
    2718 A    680  BUT  BD2  CH20     0.000000       14.0266           
    2719 A    680  BUT  BD3  CH20     0.000000       14.0266           
    2720 A    680  BUT  BD4  CH30     0.000000       15.0344           
    2721 A    681  BUT  BD1  CH30     0.000000       15.0344           
    2722 A    681  BUT  BD2  CH20     0.000000       14.0266           
    2723 A    681  BUT  BD3  CH20     0.000000       14.0266           
    2724 A    681  BUT  BD4  CH30     0.000000       15.0344           
    2725 A    682  BUT  BD1  CH30     0.000000       15.0344           
    2726 A    682  BUT  BD2  CH20     0.000000       14.0266           
    2727 A    682  BUT  BD3  CH20     0.000000       14.0266           
    2728 A    682  BUT  BD4  CH30     0.000000       15.0344           
    2729 A    683  BUT  BD1  CH30     0.000000       15.0344           
    2730 A    683  BUT  BD2  CH20     0.000000       14.0266           
    2731 A    683  BUT  BD3  CH20     0.000000       14.0266           
    2732 A    683  BUT  BD4  CH30     0.000000       15.0344           
    2733 A    684  BUT  BD1  CH30     0.000000       15.0344           
    2734 A    684  BUT  BD2  CH20     0.000000       14.0266           
    2735 A    684  BUT  BD3  CH20     0.000000       14.0266           
    2736 A    684  BUT  BD4  CH30     0.000000       15.0344           
    2737 A    685  BUT  BD1  CH30     0.000000       15.0344           
    2738 A    685  BUT  BD2  CH20     0.000000       14.0266           
    2739 A    685  BUT  BD3  CH20     0.000000       14.0266           
    2740 A    685  BUT  BD4  CH30     0.000000       15.0344           
    2741 A    686  BUT  BD1  CH30     0.000000       15.0344           
    2742 A    686  BUT  BD2  CH20     0.000000       14.0266           
    2743 A    686  BUT  BD3  CH20     0.000000       14.0266           
    2744 A    686  BUT  BD4  CH30     0.000000       15.0344           
    2745 A    687  BUT  BD1  CH30     0.000000       15.0344           
    2746 A    687  BUT  BD2  CH20     0.000000       14.0266           
    2747 A    687  BUT  BD3  CH20     0.000000       14.0266           
    2748 A    687  BUT  BD4  CH30     0.000000       15.0344           
    2749 A    688  BUT  BD1  CH30     0.000000       15.0344           
    2750 A    688  BUT  BD2  CH20     0.000000       14.0266           
    2751 A    688  BUT  BD3  CH20     0.000000       14.0266           
    2752 A    688  BUT  BD4  CH30     0.000000       15.0344           
    2753 A    689  BUT  BD1  CH30     0.000000       15.0344           
    2754 A    689  BUT  BD2  CH20     0.000000       14.0266           
    2755 A    689  BUT  BD3  CH20     0.000000       14.0266           
    2756 A    689  BUT  BD4  CH30     0.000000       15.0344           
    2757 A    690  BUT  BD1  CH30     0.000000       15.0344           
    2758 A    690  BUT  BD2  CH20     0.000000       14.0266           
    2759 A    690  BUT  BD3  CH20     0.000000       14.0266           
    2760 A    690  BUT  BD4  CH30     0.000000       15.0344           
    2761 A    691  BUT  BD1  CH30     0.000000       15.0344           
    2762 A    691  BUT  BD2  CH20     0.000000       14.0266           
    2763 A    691  BUT  BD3  CH20     0.000000       14.0266           
    2764 A    691  BUT  BD4  CH30     0.000000       15.0344           
    2765 A    692  BUT  BD1  CH30     0.000000       15.0344           
    2766 A    692  BUT  BD2  CH20     0.000000       14.0266           
    2767 A    692  BUT  BD3  CH20     0.000000       14.0266           
    2768 A    692  BUT  BD4  CH30     0.000000       15.0344           
    2769 A    693  BUT  BD1  CH30     0.000000       15.0344           
    2770 A    693  BUT  BD2  CH20     0.000000       14.0266           
    2771 A    693  BUT  BD3  CH20     0.000000       14.0266           
    2772 A    693  BUT  BD4  CH30     0.000000       15.0344           
    2773 A    694  BUT  BD1  CH30     0.000000       15.0344           
    2774 A    694  BUT  BD2  CH20     0.000000       14.0266           
    2775 A    694  BUT  BD3  CH20     0.000000       14.0266           
    2776 A    694  BUT  BD4  CH30     0.000000       15.0344           
    2777 A    695  BUT  BD1  CH30     0.000000       15.0344           
    2778 A    695  BUT  BD2  CH20     0.000000       14.0266           
    2779 A    695  BUT  BD3  CH20     0.000000       14.0266           
    2780 A    695  BUT  BD4  CH30     0.000000       15.0344           
    2781 A    696  BUT  BD1  CH30     0.000000       15.0344           
    2782 A    696  BUT  BD2  CH20     0.000000       14.0266           
    2783 A    696  BUT  BD3  CH20     0.000000       14.0266           
    2784 A    696  BUT  BD4  CH30     0.000000       15.0344           
    2785 A    697  BUT  BD1  CH30     0.000000       15.0344           
    2786 A    697  BUT  BD2  CH20     0.000000       14.0266           
    2787 A    697  BUT  BD3  CH20     0.000000       14.0266           
    2788 A    697  BUT  BD4  CH30     0.000000       15.0344           
    2789 A    698  BUT  BD1  CH30     0.000000       15.0344           
    2790 A    698  BUT  BD2  CH20     0.000000       14.0266           
    2791 A    698  BUT  BD3  CH20     0.000000       14.0266           
    2792 A    698  BUT  BD4  CH30     0.000000       15.0344           
    2793 A    699  BUT  BD1  CH30     0.000000       15.0344           
    2794 A    699  BUT  BD2  CH20     0.000000       14.0266           
    2795 A    699  BUT  BD3  CH20     0.000000       14.0266           
    2796 A    699  BUT  BD4  CH30     0.000000       15.0344           
    2797 A    700  BUT  BD1  CH30     0.000000       15.0344           
    2798 A    700  BUT  BD2  CH20     0.000000       14.0266           
    2799 A    700  BUT  BD3  CH20     0.000000       14.0266           
    2800 A    700  BUT  BD4  CH30     0.000000       15.0344           
    2801 A    701  BUT  BD1  CH30     0.000000       15.0344           
    2802 A    701  BUT  BD2  CH20     0.000000       14.0266           
    2803 A    701  BUT  BD3  CH20     0.000000       14.0266           
    2804 A    701  BUT  BD4  CH30     0.000000       15.0344           
    2805 A    702  BUT  BD1  CH30     0.000000       15.0344           
    2806 A    702  BUT  BD2  CH20     0.000000       14.0266           
    2807 A    702  BUT  BD3  CH20     0.000000       14.0266           
    2808 A    702  BUT  BD4  CH30     0.000000       15.0344           
    2809 A    703  BUT  BD1  CH30     0.000000       15.0344           
    2810 A    703  BUT  BD2  CH20     0.000000       14.0266           
    2811 A    703  BUT  BD3  CH20     0.000000       14.0266           
    2812 A    703  BUT  BD4  CH30     0.000000       15.0344           
    2813 A    704  BUT  BD1  CH30     0.000000       15.0344           
    2814 A    704  BUT  BD2  CH20     0.000000       14.0266           
    2815 A    704  BUT  BD3  CH20     0.000000       14.0266           
    2816 A    704  BUT  BD4  CH30     0.000000       15.0344           
    2817 A    705  BUT  BD1  CH30     0.000000       15.0344           
    2818 A    705  BUT  BD2  CH20     0.000000       14.0266           
    2819 A    705  BUT  BD3  CH20     0.000000       14.0266           
    2820 A    705  BUT  BD4  CH30     0.000000       15.0344           
    2821 A    706  BUT  BD1  CH30     0.000000       15.0344           
    2822 A    706  BUT  BD2  CH20     0.000000       14.0266           
    2823 A    706  BUT  BD3  CH20     0.000000       14.0266           
    2824 A    706  BUT  BD4  CH30     0.000000       15.0344           
    2825 A    707  BUT  BD1  CH30     0.000000       15.0344           
    2826 A    707  BUT  BD2  CH20     0.000000       14.0266           
    2827 A    707  BUT  BD3  CH20     0.000000       14.0266           
    2828 A    707  BUT  BD4  CH30     0.000000       15.0344           
    2829 A    708  BUT  BD1  CH30     0.000000       15.0344           
    2830 A    708  BUT  BD2  CH20     0.000000       14.0266           
    2831 A    708  BUT  BD3  CH20     0.000000       14.0266           
    2832 A    708  BUT  BD4  CH30     0.000000       15.0344           
    2833 A    709  BUT  BD1  CH30     0.000000       15.0344           
    2834 A    709  BUT  BD2  CH20     0.000000       14.0266           
    2835 A    709  BUT  BD3  CH20     0.000000       14.0266           
    2836 A    709  BUT  BD4  CH30     0.000000       15.0344           
    2837 A    710  BUT  BD1  CH30     0.000000       15.0344           
    2838 A    710  BUT  BD2  CH20     0.000000       14.0266           
    2839 A    710  BUT  BD3  CH20     0.000000       14.0266           
    2840 A    710  BUT  BD4  CH30     0.000000       15.0344           
    2841 A    711  BUT  BD1  CH30     0.000000       15.0344           
    2842 A    711  BUT  BD2  CH20     0.000000       14.0266           
    2843 A    711  BUT  BD3  CH20     0.000000       14.0266           
    2844 A    711  BUT  BD4  CH30     0.000000       15.0344           
    2845 A    712  BUT  BD1  CH30     0.000000       15.0344           
    2846 A    712  BUT  BD2  CH20     0.000000       14.0266           
    2847 A    712  BUT  BD3  CH20     0.000000       14.0266           
    2848 A    712  BUT  BD4  CH30     0.000000       15.0344           
    2849 A    713  BUT  BD1  CH30     0.000000       15.0344           
    2850 A    713  BUT  BD2  CH20     0.000000       14.0266           
    2851 A    713  BUT  BD3  CH20     0.000000       14.0266           
    2852 A    713  BUT  BD4  CH30     0.000000       15.0344           
    2853 A    714  BUT  BD1  CH30     0.000000       15.0344           
    2854 A    714  BUT  BD2  CH20     0.000000       14.0266           
    2855 A    714  BUT  BD3  CH20     0.000000       14.0266           
    2856 A    714  BUT  BD4  CH30     0.000000       15.0344           
    2857 A    715  BUT  BD1  CH30     0.000000       15.0344           
    2858 A    715  BUT  BD2  CH20     0.000000       14.0266           
    2859 A    715  BUT  BD3  CH20     0.000000       14.0266           
    2860 A    715  BUT  BD4  CH30     0.000000       15.0344           
    2861 A    716  BUT  BD1  CH30     0.000000       15.0344           
    2862 A    716  BUT  BD2  CH20     0.000000       14.0266           
    2863 A    716  BUT  BD3  CH20     0.000000       14.0266           
    2864 A    716  BUT  BD4  CH30     0.000000       15.0344           
    2865 A    717  BUT  BD1  CH30     0.000000       15.0344           
    2866 A    717  BUT  BD2  CH20     0.000000       14.0266           
    2867 A    717  BUT  BD3  CH20     0.000000       14.0266           
    2868 A    717  BUT  BD4  CH30     0.000000       15.0344           
    2869 A    718  BUT  BD1  CH30     0.000000       15.0344           
    2870 A    718  BUT  BD2  CH20     0.000000       14.0266           
    2871 A    718  BUT  BD3  CH20     0.000000       14.0266           
    2872 A    718  BUT  BD4  CH30     0.000000       15.0344           
    2873 A    719  BUT  BD1  CH30     0.000000       15.0344           
    2874 A    719  BUT  BD2  CH20     0.000000       14.0266           
    2875 A    719  BUT  BD3  CH20     0.000000       14.0266           
    2876 A    719  BUT  BD4  CH30     0.000000       15.0344           
    2877 A    720  BUT  BD1  CH30     0.000000       15.0344           
    2878 A    720  BUT  BD2  CH20     0.000000       14.0266           
    2879 A    720  BUT  BD3  CH20     0.000000       14.0266           
    2880 A    720  BUT  BD4  CH30     0.000000       15.0344           
    2881 A    721  BUT  BD1  CH30     0.000000       15.0344           
    2882 A    721  BUT  BD2  CH20     0.000000       14.0266           
    2883 A    721  BUT  BD3  CH20     0.000000       14.0266           
    2884 A    721  BUT  BD4  CH30     0.000000       15.0344           
    2885 A    722  BUT  BD1  CH30     0.000000       15.0344           
    2886 A    722  BUT  BD2  CH20     0.000000       14.0266           
    2887 A    722  BUT  BD3  CH20     0.000000       14.0266           
    2888 A    722  BUT  BD4  CH30     0.000000       15.0344           
    2889 A    723  BUT  BD1  CH30     0.000000       15.0344           
    2890 A    723  BUT  BD2  CH20     0.000000       14.0266           
    2891 A    723  BUT  BD3  CH20     0.000000       14.0266           
    2892 A    723  BUT  BD4  CH30     0.000000       15.0344           
    2893 A    724  BUT  BD1  CH30     0.000000       15.0344           
    2894 A    724  BUT  BD2  CH20     0.000000       14.0266           
    2895 A    724  BUT  BD3  CH20     0.000000       14.0266           
    2896 A    724  BUT  BD4  CH30     0.000000       15.0344           
    2897 A    725  BUT  BD1  CH30     0.000000       15.0344           
    2898 A    725  BUT  BD2  CH20     0.000000       14.0266           
    2899 A    725  BUT  BD3  CH20     0.000000       14.0266           
    2900 A    725  BUT  BD4  CH30     0.000000       15.0344           
    2901 A    726  BUT  BD1  CH30     0.000000       15.0344           
    2902 A    726  BUT  BD2  CH20     0.000000       14.0266           
    2903 A    726  BUT  BD3  CH20     0.000000       14.0266           
    2904 A    726  BUT  BD4  CH30     0.000000       15.0344           
    2905 A    727  BUT  BD1  CH30     0.000000       15.0344           
    2906 A    727  BUT  BD2  CH20     0.000000       14.0266           
    2907 A    727  BUT  BD3  CH20     0.000000       14.0266           
    2908 A    727  BUT  BD4  CH30     0.000000       15.0344           
    2909 A    728  BUT  BD1  CH30     0.000000       15.0344           
    2910 A    728  BUT  BD2  CH20     0.000000       14.0266           
    2911 A    728  BUT  BD3  CH20     0.000000       14.0266           
    2912 A    728  BUT  BD4  CH30     0.000000       15.0344           
    2913 A    729  BUT  BD1  CH30     0.000000       15.0344           
    2914 A    729  BUT  BD2  CH20     0.000000       14.0266           
    2915 A    729  BUT  BD3  CH20     0.000000       14.0266           
    2916 A    729  BUT  BD4  CH30     0.000000       15.0344           
    2917 A    730  BUT  BD1  CH30     0.000000       15.0344           
    2918 A    730  BUT  BD2  CH20     0.000000       14.0266           
    2919 A    730  BUT  BD3  CH20     0.000000       14.0266           
    2920 A    730  BUT  BD4  CH30     0.000000       15.0344           
    2921 A    731  BUT  BD1  CH30     0.000000       15.0344           
    2922 A    731  BUT  BD2  CH20     0.000000       14.0266           
    2923 A    731  BUT  BD3  CH20     0.000000       14.0266           
    2924 A    731  BUT  BD4  CH30     0.000000       15.0344           
    2925 A    732  BUT  BD1  CH30     0.000000       15.0344           
    2926 A    732  BUT  BD2  CH20     0.000000       14.0266           
    2927 A    732  BUT  BD3  CH20     0.000000       14.0266           
    2928 A    732  BUT  BD4  CH30     0.000000       15.0344           
    2929 A    733  BUT  BD1  CH30     0.000000       15.0344           
    2930 A    733  BUT  BD2  CH20     0.000000       14.0266           
    2931 A    733  BUT  BD3  CH20     0.000000       14.0266           
    2932 A    733  BUT  BD4  CH30     0.000000       15.0344           
    2933 A    734  BUT  BD1  CH30     0.000000       15.0344           
    2934 A    734  BUT  BD2  CH20     0.000000       14.0266           
    2935 A    734  BUT  BD3  CH20     0.000000       14.0266           
    2936 A    734  BUT  BD4  CH30     0.000000       15.0344           
    2937 A    735  BUT  BD1  CH30     0.000000       15.0344           
    2938 A    735  BUT  BD2  CH20     0.000000       14.0266           
    2939 A    735  BUT  BD3  CH20     0.000000       14.0266           
    2940 A    735  BUT  BD4  CH30     0.000000       15.0344           
    2941 A    736  BUT  BD1  CH30     0.000000       15.0344           
    2942 A    736  BUT  BD2  CH20     0.000000       14.0266           
    2943 A    736  BUT  BD3  CH20     0.000000       14.0266           
    2944 A    736  BUT  BD4  CH30     0.000000       15.0344           
    2945 A    737  BUT  BD1  CH30     0.000000       15.0344           
    2946 A    737  BUT  BD2  CH20     0.000000       14.0266           
    2947 A    737  BUT  BD3  CH20     0.000000       14.0266           
    2948 A    737  BUT  BD4  CH30     0.000000       15.0344           
    2949 A    738  BUT  BD1  CH30     0.000000       15.0344           
    2950 A    738  BUT  BD2  CH20     0.000000       14.0266           
    2951 A    738  BUT  BD3  CH20     0.000000       14.0266           
    2952 A    738  BUT  BD4  CH30     0.000000       15.0344           
    2953 A    739  BUT  BD1  CH30     0.000000       15.0344           
    2954 A    739  BUT  BD2  CH20     0.000000       14.0266           
    2955 A    739  BUT  BD3  CH20     0.000000       14.0266           
    2956 A    739  BUT  BD4  CH30     0.000000       15.0344           
    2957 A    740  BUT  BD1  CH30     0.000000       15.0344           
    2958 A    740  BUT  BD2  CH20     0.000000       14.0266           
    2959 A    740  BUT  BD3  CH20     0.000000       14.0266           
    2960 A    740  BUT  BD4  CH30     0.000000       15.0344           
    2961 A    741  BUT  BD1  CH30     0.000000       15.0344           
    2962 A    741  BUT  BD2  CH20     0.000000       14.0266           
    2963 A    741  BUT  BD3  CH20     0.000000       14.0266           
    2964 A    741  BUT  BD4  CH30     0.000000       15.0344           
    2965 A    742  BUT  BD1  CH30     0.000000       15.0344           
    2966 A    742  BUT  BD2  CH20     0.000000       14.0266           
    2967 A    742  BUT  BD3  CH20     0.000000       14.0266           
    2968 A    742  BUT  BD4  CH30     0.000000       15.0344           
    2969 A    743  BUT  BD1  CH30     0.000000       15.0344           
    2970 A    743  BUT  BD2  CH20     0.000000       14.0266           
    2971 A    743  BUT  BD3  CH20     0.000000       14.0266           
    2972 A    743  BUT  BD4  CH30     0.000000       15.0344           
    2973 A    744  BUT  BD1  CH30     0.000000       15.0344           
    2974 A    744  BUT  BD2  CH20     0.000000       14.0266           
    2975 A    744  BUT  BD3  CH20     0.000000       14.0266           
    2976 A    744  BUT  BD4  CH30     0.000000       15.0344           
    2977 A    745  BUT  BD1  CH30     0.000000       15.0344           
    2978 A    745  BUT  BD2  CH20     0.000000       14.0266           
    2979 A    745  BUT  BD3  CH20     0.000000       14.0266           
    2980 A    745  BUT  BD4  CH30     0.000000       15.0344           
    2981 A    746  BUT  BD1  CH30     0.000000       15.0344           
    2982 A    746  BUT  BD2  CH20     0.000000       14.0266           
    2983 A    746  BUT  BD3  CH20     0.000000       14.0266           
    2984 A    746  BUT  BD4  CH30     0.000000       15.0344           
    2985 A    747  BUT  BD1  CH30     0.000000       15.0344           
    2986 A    747  BUT  BD2  CH20     0.000000       14.0266           
    2987 A    747  BUT  BD3  CH20     0.000000       14.0266           
    2988 A    747  BUT  BD4  CH30     0.000000       15.0344           
    2989 A    748  BUT  BD1  CH30     0.000000       15.0344           
    2990 A    748  BUT  BD2  CH20     0.000000       14.0266           
    2991 A    748  BUT  BD3  CH20     0.000000       14.0266           
    2992 A    748  BUT  BD4  CH30     0.000000       15.0344           
    2993 A    749  BUT  BD1  CH30     0.000000       15.0344           
    2994 A    749  BUT  BD2  CH20     0.000000       14.0266           
    2995 A    749  BUT  BD3  CH20     0.000000       14.0266           
    2996 A    749  BUT  BD4  CH30     0.000000       15.0344           
    2997 A    750  BUT  BD1  CH30     0.000000       15.0344           
    2998 A    750  BUT  BD2  CH20     0.000000       14.0266           
    2999 A    750  BUT  BD3  CH20     0.000000       14.0266           
    3000 A    750  BUT  BD4  CH30     0.000000       15.0344           
    3001 A    751  BUT  BD1  CH30     0.000000       15.0344           
    3002 A    751  BUT  BD2  CH20     0.000000       14.0266           
    3003 A    751  BUT  BD3  CH20     0.000000       14.0266           
    3004 A    751  BUT  BD4  CH30     0.000000       15.0344           
    3005 A    752  BUT  BD1  CH30     0.000000       15.0344           
    3006 A    752  BUT  BD2  CH20     0.000000       14.0266           
    3007 A    752  BUT  BD3  CH20     0.000000       14.0266           
    3008 A    752  BUT  BD4  CH30     0.000000       15.0344           
    3009 A    753  BUT  BD1  CH30     0.000000       15.0344           
    3010 A    753  BUT  BD2  CH20     0.000000       14.0266           
    3011 A    753  BUT  BD3  CH20     0.000000       14.0266           
    3012 A    753  BUT  BD4  CH30     0.000000       15.0344           
    3013 A    754  BUT  BD1  CH30     0.000000       15.0344           
    3014 A    754  BUT  BD2  CH20     0.000000       14.0266           
    3015 A    754  BUT  BD3  CH20     0.000000       14.0266           
    3016 A    754  BUT  BD4  CH30     0.000000       15.0344           
    3017 A    755  BUT  BD1  CH30     0.000000       15.0344           
    3018 A    755  BUT  BD2  CH20     0.000000       14.0266           
    3019 A    755  BUT  BD3  CH20     0.000000       14.0266           
    3020 A    755  BUT  BD4  CH30     0.000000       15.0344           
    3021 A    756  BUT  BD1  CH30     0.000000       15.0344           
    3022 A    756  BUT  BD2  CH20     0.000000       14.0266           
    3023 A    756  BUT  BD3  CH20     0.000000       14.0266           
    3024 A    756  BUT  BD4  CH30     0.000000       15.0344           
    3025 A    757  BUT  BD1  CH30     0.000000       15.0344           
    3026 A    757  BUT  BD2  CH20     0.000000       14.0266           
    3027 A    757  BUT  BD3  CH20     0.000000       14.0266           
    3028 A    757  BUT  BD4  CH30     0.000000       15.0344           
    3029 A    758  BUT  BD1  CH30     0.000000       15.0344           
    3030 A    758  BUT  BD2  CH20     0.000000       14.0266           
    3031 A    758  BUT  BD3  CH20     0.000000       14.0266           
    3032 A    758  BUT  BD4  CH30     0.000000       15.0344           
    3033 A    759  BUT  BD1  CH30     0.000000       15.0344           
    3034 A    759  BUT  BD2  CH20     0.000000       14.0266           
    3035 A    759  BUT  BD3  CH20     0.000000       14.0266           
    3036 A    759  BUT  BD4  CH30     0.000000       15.0344           
    3037 A    760  BUT  BD1  CH30     0.000000       15.0344           
    3038 A    760  BUT  BD2  CH20     0.000000       14.0266           
    3039 A    760  BUT  BD3  CH20     0.000000       14.0266           
    3040 A    760  BUT  BD4  CH30     0.000000       15.0344           
    3041 A    761  BUT  BD1  CH30     0.000000       15.0344           
    3042 A    761  BUT  BD2  CH20     0.000000       14.0266           
    3043 A    761  BUT  BD3  CH20     0.000000       14.0266           
    3044 A    761  BUT  BD4  CH30     0.000000       15.0344           
    3045 A    762  BUT  BD1  CH30     0.000000       15.0344           
    3046 A    762  BUT  BD2  CH20     0.000000       14.0266           
    3047 A    762  BUT  BD3  CH20     0.000000       14.0266           
    3048 A    762  BUT  BD4  CH30     0.000000       15.0344           
    3049 A    763  BUT  BD1  CH30     0.000000       15.0344           
    3050 A    763  BUT  BD2  CH20     0.000000       14.0266           
    3051 A    763  BUT  BD3  CH20     0.000000       14.0266           
    3052 A    763  BUT  BD4  CH30     0.000000       15.0344           
    3053 A    764  BUT  BD1  CH30     0.000000       15.0344           
    3054 A    764  BUT  BD2  CH20     0.000000       14.0266           
    3055 A    764  BUT  BD3  CH20     0.000000       14.0266           
    3056 A    764  BUT  BD4  CH30     0.000000       15.0344           
    3057 A    765  BUT  BD1  CH30     0.000000       15.0344           
    3058 A    765  BUT  BD2  CH20     0.000000       14.0266           
    3059 A    765  BUT  BD3  CH20     0.000000       14.0266           
    3060 A    765  BUT  BD4  CH30     0.000000       15.0344           
    3061 A    766  BUT  BD1  CH30     0.000000       15.0344           
    3062 A    766  BUT  BD2  CH20     0.000000       14.0266           
    3063 A    766  BUT  BD3  CH20     0.000000       14.0266           
    3064 A    766  BUT  BD4  CH30     0.000000       15.0344           
    3065 A    767  BUT  BD1  CH30     0.000000       15.0344           
    3066 A    767  BUT  BD2  CH20     0.000000       14.0266           
    3067 A    767  BUT  BD3  CH20     0.000000       14.0266           
    3068 A    767  BUT  BD4  CH30     0.000000       15.0344           
    3069 A    768  BUT  BD1  CH30     0.000000       15.0344           
    3070 A    768  BUT  BD2  CH20     0.000000       14.0266           
    3071 A    768  BUT  BD3  CH20     0.000000       14.0266           
    3072 A    768  BUT  BD4  CH30     0.000000       15.0344           
    3073 A    769  BUT  BD1  CH30     0.000000       15.0344           
    3074 A    769  BUT  BD2  CH20     0.000000       14.0266           
    3075 A    769  BUT  BD3  CH20     0.000000       14.0266           
    3076 A    769  BUT  BD4  CH30     0.000000       15.0344           
    3077 A    770  BUT  BD1  CH30     0.000000       15.0344           
    3078 A    770  BUT  BD2  CH20     0.000000       14.0266           
    3079 A    770  BUT  BD3  CH20     0.000000       14.0266           
    3080 A    770  BUT  BD4  CH30     0.000000       15.0344           
    3081 A    771  BUT  BD1  CH30     0.000000       15.0344           
    3082 A    771  BUT  BD2  CH20     0.000000       14.0266           
    3083 A    771  BUT  BD3  CH20     0.000000       14.0266           
    3084 A    771  BUT  BD4  CH30     0.000000       15.0344           
    3085 A    772  BUT  BD1  CH30     0.000000       15.0344           
    3086 A    772  BUT  BD2  CH20     0.000000       14.0266           
    3087 A    772  BUT  BD3  CH20     0.000000       14.0266           
    3088 A    772  BUT  BD4  CH30     0.000000       15.0344           
    3089 A    773  BUT  BD1  CH30     0.000000       15.0344           
    3090 A    773  BUT  BD2  CH20     0.000000       14.0266           
    3091 A    773  BUT  BD3  CH20     0.000000       14.0266           
    3092 A    773  BUT  BD4  CH30     0.000000       15.0344           
    3093 A    774  BUT  BD1  CH30     0.000000       15.0344           
    3094 A    774  BUT  BD2  CH20     0.000000       14.0266           
    3095 A    774  BUT  BD3  CH20     0.000000       14.0266           
    3096 A    774  BUT  BD4  CH30     0.000000       15.0344           
    3097 A    775  BUT  BD1  CH30     0.000000       15.0344           
    3098 A    775  BUT  BD2  CH20     0.000000       14.0266           
    3099 A    775  BUT  BD3  CH20     0.000000       14.0266           
    3100 A    775  BUT  BD4  CH30     0.000000       15.0344           
    3101 A    776  BUT  BD1  CH30     0.000000       15.0344           
    3102 A    776  BUT  BD2  CH20     0.000000       14.0266           
    3103 A    776  BUT  BD3  CH20     0.000000       14.0266           
    3104 A    776  BUT  BD4  CH30     0.000000       15.0344           
    3105 A    777  BUT  BD1  CH30     0.000000       15.0344           
    3106 A    777  BUT  BD2  CH20     0.000000       14.0266           
    3107 A    777  BUT  BD3  CH20     0.000000       14.0266           
    3108 A    777  BUT  BD4  CH30     0.000000       15.0344           
    3109 A    778  BUT  BD1  CH30     0.000000       15.0344           
    3110 A    778  BUT  BD2  CH20     0.000000       14.0266           
    3111 A    778  BUT  BD3  CH20     0.000000       14.0266           
    3112 A    778  BUT  BD4  CH30     0.000000       15.0344           
    3113 A    779  BUT  BD1  CH30     0.000000       15.0344           
    3114 A    779  BUT  BD2  CH20     0.000000       14.0266           
    3115 A    779  BUT  BD3  CH20     0.000000       14.0266           
    3116 A    779  BUT  BD4  CH30     0.000000       15.0344           
    3117 A    780  BUT  BD1  CH30     0.000000       15.0344           
    3118 A    780  BUT  BD2  CH20     0.000000       14.0266           
    3119 A    780  BUT  BD3  CH20     0.000000       14.0266           
    3120 A    780  BUT  BD4  CH30     0.000000       15.0344           
    3121 A    781  BUT  BD1  CH30     0.000000       15.0344           
    3122 A    781  BUT  BD2  CH20     0.000000       14.0266           
    3123 A    781  BUT  BD3  CH20     0.000000       14.0266           
    3124 A    781  BUT  BD4  CH30     0.000000       15.0344           
    3125 A    782  BUT  BD1  CH30     0.000000       15.0344           
    3126 A    782  BUT  BD2  CH20     0.000000       14.0266           
    3127 A    782  BUT  BD3  CH20     0.000000       14.0266           
    3128 A    782  BUT  BD4  CH30     0.000000       15.0344           
    3129 A    783  BUT  BD1  CH30     0.000000       15.0344           
    3130 A    783  BUT  BD2  CH20     0.000000       14.0266           
    3131 A    783  BUT  BD3  CH20     0.000000       14.0266           
    3132 A    783  BUT  BD4  CH30     0.000000       15.0344           
    3133 A    784  BUT  BD1  CH30     0.000000       15.0344           
    3134 A    784  BUT  BD2  CH20     0.000000       14.0266           
    3135 A    784  BUT  BD3  CH20     0.000000       14.0266           
    3136 A    784  BUT  BD4  CH30     0.000000       15.0344           
    3137 A    785  BUT  BD1  CH30     0.000000       15.0344           
    3138 A    785  BUT  BD2  CH20     0.000000       14.0266           
    3139 A    785  BUT  BD3  CH20     0.000000       14.0266           
    3140 A    785  BUT  BD4  CH30     0.000000       15.0344           
    3141 A    786  BUT  BD1  CH30     0.000000       15.0344           
    3142 A    786  BUT  BD2  CH20     0.000000       14.0266           
    3143 A    786  BUT  BD3  CH20     0.000000       14.0266           
    3144 A    786  BUT  BD4  CH30     0.000000       15.0344           
    3145 A    787  BUT  BD1  CH30     0.000000       15.0344           
    3146 A    787  BUT  BD2  CH20     0.000000       14.0266           
    3147 A    787  BUT  BD3  CH20     0.000000       14.0266           
    3148 A    787  BUT  BD4  CH30     0.000000       15.0344           
    3149 A    788  BUT  BD1  CH30     0.000000       15.0344           
    3150 A    788  BUT  BD2  CH20     0.000000       14.0266           
    3151 A    788  BUT  BD3  CH20     0.000000       14.0266           
    3152 A    788  BUT  BD4  CH30     0.000000       15.0344           
    3153 A    789  BUT  BD1  CH30     0.000000       15.0344           
    3154 A    789  BUT  BD2  CH20     0.000000       14.0266           
    3155 A    789  BUT  BD3  CH20     0.000000       14.0266           
    3156 A    789  BUT  BD4  CH30     0.000000       15.0344           
    3157 A    790  BUT  BD1  CH30     0.000000       15.0344           
    3158 A    790  BUT  BD2  CH20     0.000000       14.0266           
    3159 A    790  BUT  BD3  CH20     0.000000       14.0266           
    3160 A    790  BUT  BD4  CH30     0.000000       15.0344           
    3161 A    791  BUT  BD1  CH30     0.000000       15.0344           
    3162 A    791  BUT  BD2  CH20     0.000000       14.0266           
    3163 A    791  BUT  BD3  CH20     0.000000       14.0266           
    3164 A    791  BUT  BD4  CH30     0.000000       15.0344           
    3165 A    792  BUT  BD1  CH30     0.000000       15.0344           
    3166 A    792  BUT  BD2  CH20     0.000000       14.0266           
    3167 A    792  BUT  BD3  CH20     0.000000       14.0266           
    3168 A    792  BUT  BD4  CH30     0.000000       15.0344           
    3169 A    793  BUT  BD1  CH30     0.000000       15.0344           
    3170 A    793  BUT  BD2  CH20     0.000000       14.0266           
    3171 A    793  BUT  BD3  CH20     0.000000       14.0266           
    3172 A    793  BUT  BD4  CH30     0.000000       15.0344           
    3173 A    794  BUT  BD1  CH30     0.000000       15.0344           
    3174 A    794  BUT  BD2  CH20     0.000000       14.0266           
    3175 A    794  BUT  BD3  CH20     0.000000       14.0266           
    3176 A    794  BUT  BD4  CH30     0.000000       15.0344           
    3177 A    795  BUT  BD1  CH30     0.000000       15.0344           
    3178 A    795  BUT  BD2  CH20     0.000000       14.0266           
    3179 A    795  BUT  BD3  CH20     0.000000       14.0266           
    3180 A    795  BUT  BD4  CH30     0.000000       15.0344           
    3181 A    796  BUT  BD1  CH30     0.000000       15.0344           
    3182 A    796  BUT  BD2  CH20     0.000000       14.0266           
    3183 A    796  BUT  BD3  CH20     0.000000       14.0266           
    3184 A    796  BUT  BD4  CH30     0.000000       15.0344           
    3185 A    797  BUT  BD1  CH30     0.000000       15.0344           
    3186 A    797  BUT  BD2  CH20     0.000000       14.0266           
    3187 A    797  BUT  BD3  CH20     0.000000       14.0266           
    3188 A    797  BUT  BD4  CH30     0.000000       15.0344           
    3189 A    798  BUT  BD1  CH30     0.000000       15.0344           
    3190 A    798  BUT  BD2  CH20     0.000000       14.0266           
    3191 A    798  BUT  BD3  CH20     0.000000       14.0266           
    3192 A    798  BUT  BD4  CH30     0.000000       15.0344           
    3193 A    799  BUT  BD1  CH30     0.000000       15.0344           
    3194 A    799  BUT  BD2  CH20     0.000000       14.0266           
    3195 A    799  BUT  BD3  CH20     0.000000       14.0266           
    3196 A    799  BUT  BD4  CH30     0.000000       15.0344           
    3197 A    800  BUT  BD1  CH30     0.000000       15.0344           
    3198 A    800  BUT  BD2  CH20     0.000000       14.0266           
    3199 A    800  BUT  BD3  CH20     0.000000       14.0266           
    3200 A    800  BUT  BD4  CH30     0.000000       15.0344           
    3201 A    801  BUT  BD1  CH30     0.000000       15.0344           
    3202 A    801  BUT  BD2  CH20     0.000000       14.0266           
    3203 A    801  BUT  BD3  CH20     0.000000       14.0266           
    3204 A    801  BUT  BD4  CH30     0.000000       15.0344           
    3205 A    802  BUT  BD1  CH30     0.000000       15.0344           
    3206 A    802  BUT  BD2  CH20     0.000000       14.0266           
    3207 A    802  BUT  BD3  CH20     0.000000       14.0266           
    3208 A    802  BUT  BD4  CH30     0.000000       15.0344           
    3209 A    803  BUT  BD1  CH30     0.000000       15.0344           
    3210 A    803  BUT  BD2  CH20     0.000000       14.0266           
    3211 A    803  BUT  BD3  CH20     0.000000       14.0266           
    3212 A    803  BUT  BD4  CH30     0.000000       15.0344           
    3213 A    804  BUT  BD1  CH30     0.000000       15.0344           
    3214 A    804  BUT  BD2  CH20     0.000000       14.0266           
    3215 A    804  BUT  BD3  CH20     0.000000       14.0266           
    3216 A    804  BUT  BD4  CH30     0.000000       15.0344           
    3217 A    805  BUT  BD1  CH30     0.000000       15.0344           
    3218 A    805  BUT  BD2  CH20     0.000000       14.0266           
    3219 A    805  BUT  BD3  CH20     0.000000       14.0266           
    3220 A    805  BUT  BD4  CH30     0.000000       15.0344           
    3221 A    806  BUT  BD1  CH30     0.000000       15.0344           
    3222 A    806  BUT  BD2  CH20     0.000000       14.0266           
    3223 A    806  BUT  BD3  CH20     0.000000       14.0266           
    3224 A    806  BUT  BD4  CH30     0.000000       15.0344           
    3225 A    807  BUT  BD1  CH30     0.000000       15.0344           
    3226 A    807  BUT  BD2  CH20     0.000000       14.0266           
    3227 A    807  BUT  BD3  CH20     0.000000       14.0266           
    3228 A    807  BUT  BD4  CH30     0.000000       15.0344           
    3229 A    808  BUT  BD1  CH30     0.000000       15.0344           
    3230 A    808  BUT  BD2  CH20     0.000000       14.0266           
    3231 A    808  BUT  BD3  CH20     0.000000       14.0266           
    3232 A    808  BUT  BD4  CH30     0.000000       15.0344           
    3233 A    809  BUT  BD1  CH30     0.000000       15.0344           
    3234 A    809  BUT  BD2  CH20     0.000000       14.0266           
    3235 A    809  BUT  BD3  CH20     0.000000       14.0266           
    3236 A    809  BUT  BD4  CH30     0.000000       15.0344           
    3237 A    810  BUT  BD1  CH30     0.000000       15.0344           
    3238 A    810  BUT  BD2  CH20     0.000000       14.0266           
    3239 A    810  BUT  BD3  CH20     0.000000       14.0266           
    3240 A    810  BUT  BD4  CH30     0.000000       15.0344           
    3241 A    811  BUT  BD1  CH30     0.000000       15.0344           
    3242 A    811  BUT  BD2  CH20     0.000000       14.0266           
    3243 A    811  BUT  BD3  CH20     0.000000       14.0266           
    3244 A    811  BUT  BD4  CH30     0.000000       15.0344           
    3245 A    812  BUT  BD1  CH30     0.000000       15.0344           
    3246 A    812  BUT  BD2  CH20     0.000000       14.0266           
    3247 A    812  BUT  BD3  CH20     0.000000       14.0266           
    3248 A    812  BUT  BD4  CH30     0.000000       15.0344           
    3249 A    813  BUT  BD1  CH30     0.000000       15.0344           
    3250 A    813  BUT  BD2  CH20     0.000000       14.0266           
    3251 A    813  BUT  BD3  CH20     0.000000       14.0266           
    3252 A    813  BUT  BD4  CH30     0.000000       15.0344           
    3253 A    814  BUT  BD1  CH30     0.000000       15.0344           
    3254 A    814  BUT  BD2  CH20     0.000000       14.0266           
    3255 A    814  BUT  BD3  CH20     0.000000       14.0266           
    3256 A    814  BUT  BD4  CH30     0.000000       15.0344           
    3257 A    815  BUT  BD1  CH30     0.000000       15.0344           
    3258 A    815  BUT  BD2  CH20     0.000000       14.0266           
    3259 A    815  BUT  BD3  CH20     0.000000       14.0266           
    3260 A    815  BUT  BD4  CH30     0.000000       15.0344           
    3261 A    816  BUT  BD1  CH30     0.000000       15.0344           
    3262 A    816  BUT  BD2  CH20     0.000000       14.0266           
    3263 A    816  BUT  BD3  CH20     0.000000       14.0266           
    3264 A    816  BUT  BD4  CH30     0.000000       15.0344           
    3265 A    817  BUT  BD1  CH30     0.000000       15.0344           
    3266 A    817  BUT  BD2  CH20     0.000000       14.0266           
    3267 A    817  BUT  BD3  CH20     0.000000       14.0266           
    3268 A    817  BUT  BD4  CH30     0.000000       15.0344           
    3269 A    818  BUT  BD1  CH30     0.000000       15.0344           
    3270 A    818  BUT  BD2  CH20     0.000000       14.0266           
    3271 A    818  BUT  BD3  CH20     0.000000       14.0266           
    3272 A    818  BUT  BD4  CH30     0.000000       15.0344           
    3273 A    819  BUT  BD1  CH30     0.000000       15.0344           
    3274 A    819  BUT  BD2  CH20     0.000000       14.0266           
    3275 A    819  BUT  BD3  CH20     0.000000       14.0266           
    3276 A    819  BUT  BD4  CH30     0.000000       15.0344           
    3277 A    820  BUT  BD1  CH30     0.000000       15.0344           
    3278 A    820  BUT  BD2  CH20     0.000000       14.0266           
    3279 A    820  BUT  BD3  CH20     0.000000       14.0266           
    3280 A    820  BUT  BD4  CH30     0.000000       15.0344           
    3281 A    821  BUT  BD1  CH30     0.000000       15.0344           
    3282 A    821  BUT  BD2  CH20     0.000000       14.0266           
    3283 A    821  BUT  BD3  CH20     0.000000       14.0266           
    3284 A    821  BUT  BD4  CH30     0.000000       15.0344           
    3285 A    822  BUT  BD1  CH30     0.000000       15.0344           
    3286 A    822  BUT  BD2  CH20     0.000000       14.0266           
    3287 A    822  BUT  BD3  CH20     0.000000       14.0266           
    3288 A    822  BUT  BD4  CH30     0.000000       15.0344           
    3289 A    823  BUT  BD1  CH30     0.000000       15.0344           
    3290 A    823  BUT  BD2  CH20     0.000000       14.0266           
    3291 A    823  BUT  BD3  CH20     0.000000       14.0266           
    3292 A    823  BUT  BD4  CH30     0.000000       15.0344           
    3293 A    824  BUT  BD1  CH30     0.000000       15.0344           
    3294 A    824  BUT  BD2  CH20     0.000000       14.0266           
    3295 A    824  BUT  BD3  CH20     0.000000       14.0266           
    3296 A    824  BUT  BD4  CH30     0.000000       15.0344           
    3297 A    825  BUT  BD1  CH30     0.000000       15.0344           
    3298 A    825  BUT  BD2  CH20     0.000000       14.0266           
    3299 A    825  BUT  BD3  CH20     0.000000       14.0266           
    3300 A    825  BUT  BD4  CH30     0.000000       15.0344           
    3301 A    826  BUT  BD1  CH30     0.000000       15.0344           
    3302 A    826  BUT  BD2  CH20     0.000000       14.0266           
    3303 A    826  BUT  BD3  CH20     0.000000       14.0266           
    3304 A    826  BUT  BD4  CH30     0.000000       15.0344           
    3305 A    827  BUT  BD1  CH30     0.000000       15.0344           
    3306 A    827  BUT  BD2  CH20     0.000000       14.0266           
    3307 A    827  BUT  BD3  CH20     0.000000       14.0266           
    3308 A    827  BUT  BD4  CH30     0.000000       15.0344           
    3309 A    828  BUT  BD1  CH30     0.000000       15.0344           
    3310 A    828  BUT  BD2  CH20     0.000000       14.0266           
    3311 A    828  BUT  BD3  CH20     0.000000       14.0266           
    3312 A    828  BUT  BD4  CH30     0.000000       15.0344           
    3313 A    829  BUT  BD1  CH30     0.000000       15.0344           
    3314 A    829  BUT  BD2  CH20     0.000000       14.0266           
    3315 A    829  BUT  BD3  CH20     0.000000       14.0266           
    3316 A    829  BUT  BD4  CH30     0.000000       15.0344           
    3317 A    830  BUT  BD1  CH30     0.000000       15.0344           
    3318 A    830  BUT  BD2  CH20     0.000000       14.0266           
    3319 A    830  BUT  BD3  CH20     0.000000       14.0266           
    3320 A    830  BUT  BD4  CH30     0.000000       15.0344           
    3321 A    831  BUT  BD1  CH30     0.000000       15.0344           
    3322 A    831  BUT  BD2  CH20     0.000000       14.0266           
    3323 A    831  BUT  BD3  CH20     0.000000       14.0266           
    3324 A    831  BUT  BD4  CH30     0.000000       15.0344           
    3325 A    832  BUT  BD1  CH30     0.000000       15.0344           
    3326 A    832  BUT  BD2  CH20     0.000000       14.0266           
    3327 A    832  BUT  BD3  CH20     0.000000       14.0266           
    3328 A    832  BUT  BD4  CH30     0.000000       15.0344           
    3329 A    833  BUT  BD1  CH30     0.000000       15.0344           
    3330 A    833  BUT  BD2  CH20     0.000000       14.0266           
    3331 A    833  BUT  BD3  CH20     0.000000       14.0266           
    3332 A    833  BUT  BD4  CH30     0.000000       15.0344           
    3333 A    834  BUT  BD1  CH30     0.000000       15.0344           
    3334 A    834  BUT  BD2  CH20     0.000000       14.0266           
    3335 A    834  BUT  BD3  CH20     0.000000       14.0266           
    3336 A    834  BUT  BD4  CH30     0.000000       15.0344           
    3337 A    835  BUT  BD1  CH30     0.000000       15.0344           
    3338 A    835  BUT  BD2  CH20     0.000000       14.0266           
    3339 A    835  BUT  BD3  CH20     0.000000       14.0266           
    3340 A    835  BUT  BD4  CH30     0.000000       15.0344           
    3341 A    836  BUT  BD1  CH30     0.000000       15.0344           
    3342 A    836  BUT  BD2  CH20     0.000000       14.0266           
    3343 A    836  BUT  BD3  CH20     0.000000       14.0266           
    3344 A    836  BUT  BD4  CH30     0.000000       15.0344           
    3345 A    837  BUT  BD1  CH30     0.000000       15.0344           
    3346 A    837  BUT  BD2  CH20     0.000000       14.0266           
    3347 A    837  BUT  BD3  CH20     0.000000       14.0266           
    3348 A    837  BUT  BD4  CH30     0.000000       15.0344           
    3349 A    838  BUT  BD1  CH30     0.000000       15.0344           
    3350 A    838  BUT  BD2  CH20     0.000000       14.0266           
    3351 A    838  BUT  BD3  CH20     0.000000       14.0266           
    3352 A    838  BUT  BD4  CH30     0.000000       15.0344           
    3353 A    839  BUT  BD1  CH30     0.000000       15.0344           
    3354 A    839  BUT  BD2  CH20     0.000000       14.0266           
    3355 A    839  BUT  BD3  CH20     0.000000       14.0266           
    3356 A    839  BUT  BD4  CH30     0.000000       15.0344           
    3357 A    840  BUT  BD1  CH30     0.000000       15.0344           
    3358 A    840  BUT  BD2  CH20     0.000000       14.0266           
    3359 A    840  BUT  BD3  CH20     0.000000       14.0266           
    3360 A    840  BUT  BD4  CH30     0.000000       15.0344           
    3361 A    841  BUT  BD1  CH30     0.000000       15.0344           
    3362 A    841  BUT  BD2  CH20     0.000000       14.0266           
    3363 A    841  BUT  BD3  CH20     0.000000       14.0266           
    3364 A    841  BUT  BD4  CH30     0.000000       15.0344           
    3365 A    842  BUT  BD1  CH30     0.000000       15.0344           
    3366 A    842  BUT  BD2  CH20     0.000000       14.0266           
    3367 A    842  BUT  BD3  CH20     0.000000       14.0266           
    3368 A    842  BUT  BD4  CH30     0.000000       15.0344           
    3369 A    843  BUT  BD1  CH30     0.000000       15.0344           
    3370 A    843  BUT  BD2  CH20     0.000000       14.0266           
    3371 A    843  BUT  BD3  CH20     0.000000       14.0266           
    3372 A    843  BUT  BD4  CH30     0.000000       15.0344           
    3373 A    844  BUT  BD1  CH30     0.000000       15.0344           
    3374 A    844  BUT  BD2  CH20     0.000000       14.0266           
    3375 A    844  BUT  BD3  CH20     0.000000       14.0266           
    3376 A    844  BUT  BD4  CH30     0.000000       15.0344           
    3377 A    845  BUT  BD1  CH30     0.000000       15.0344           
    3378 A    845  BUT  BD2  CH20     0.000000       14.0266           
    3379 A    845  BUT  BD3  CH20     0.000000       14.0266           
    3380 A    845  BUT  BD4  CH30     0.000000       15.0344           
    3381 A    846  BUT  BD1  CH30     0.000000       15.0344           
    3382 A    846  BUT  BD2  CH20     0.000000       14.0266           
    3383 A    846  BUT  BD3  CH20     0.000000       14.0266           
    3384 A    846  BUT  BD4  CH30     0.000000       15.0344           
    3385 A    847  BUT  BD1  CH30     0.000000       15.0344           
    3386 A    847  BUT  BD2  CH20     0.000000       14.0266           
    3387 A    847  BUT  BD3  CH20     0.000000       14.0266           
    3388 A    847  BUT  BD4  CH30     0.000000       15.0344           
    3389 A    848  BUT  BD1  CH30     0.000000       15.0344           
    3390 A    848  BUT  BD2  CH20     0.000000       14.0266           
    3391 A    848  BUT  BD3  CH20     0.000000       14.0266           
    3392 A    848  BUT  BD4  CH30     0.000000       15.0344           
    3393 A    849  BUT  BD1  CH30     0.000000       15.0344           
    3394 A    849  BUT  BD2  CH20     0.000000       14.0266           
    3395 A    849  BUT  BD3  CH20     0.000000       14.0266           
    3396 A    849  BUT  BD4  CH30     0.000000       15.0344           
    3397 A    850  BUT  BD1  CH30     0.000000       15.0344           
    3398 A    850  BUT  BD2  CH20     0.000000       14.0266           
    3399 A    850  BUT  BD3  CH20     0.000000       14.0266           
    3400 A    850  BUT  BD4  CH30     0.000000       15.0344           
    3401 A    851  BUT  BD1  CH30     0.000000       15.0344           
    3402 A    851  BUT  BD2  CH20     0.000000       14.0266           
    3403 A    851  BUT  BD3  CH20     0.000000       14.0266           
    3404 A    851  BUT  BD4  CH30     0.000000       15.0344           
    3405 A    852  BUT  BD1  CH30     0.000000       15.0344           
    3406 A    852  BUT  BD2  CH20     0.000000       14.0266           
    3407 A    852  BUT  BD3  CH20     0.000000       14.0266           
    3408 A    852  BUT  BD4  CH30     0.000000       15.0344           
    3409 A    853  BUT  BD1  CH30     0.000000       15.0344           
    3410 A    853  BUT  BD2  CH20     0.000000       14.0266           
    3411 A    853  BUT  BD3  CH20     0.000000       14.0266           
    3412 A    853  BUT  BD4  CH30     0.000000       15.0344           
    3413 A    854  BUT  BD1  CH30     0.000000       15.0344           
    3414 A    854  BUT  BD2  CH20     0.000000       14.0266           
    3415 A    854  BUT  BD3  CH20     0.000000       14.0266           
    3416 A    854  BUT  BD4  CH30     0.000000       15.0344           
    3417 A    855  BUT  BD1  CH30     0.000000       15.0344           
    3418 A    855  BUT  BD2  CH20     0.000000       14.0266           
    3419 A    855  BUT  BD3  CH20     0.000000       14.0266           
    3420 A    855  BUT  BD4  CH30     0.000000       15.0344           
    3421 A    856  BUT  BD1  CH30     0.000000       15.0344           
    3422 A    856  BUT  BD2  CH20     0.000000       14.0266           
    3423 A    856  BUT  BD3  CH20     0.000000       14.0266           
    3424 A    856  BUT  BD4  CH30     0.000000       15.0344           
    3425 A    857  BUT  BD1  CH30     0.000000       15.0344           
    3426 A    857  BUT  BD2  CH20     0.000000       14.0266           
    3427 A    857  BUT  BD3  CH20     0.000000       14.0266           
    3428 A    857  BUT  BD4  CH30     0.000000       15.0344           
    3429 A    858  BUT  BD1  CH30     0.000000       15.0344           
    3430 A    858  BUT  BD2  CH20     0.000000       14.0266           
    3431 A    858  BUT  BD3  CH20     0.000000       14.0266           
    3432 A    858  BUT  BD4  CH30     0.000000       15.0344           
    3433 A    859  BUT  BD1  CH30     0.000000       15.0344           
    3434 A    859  BUT  BD2  CH20     0.000000       14.0266           
    3435 A    859  BUT  BD3  CH20     0.000000       14.0266           
    3436 A    859  BUT  BD4  CH30     0.000000       15.0344           
    3437 A    860  BUT  BD1  CH30     0.000000       15.0344           
    3438 A    860  BUT  BD2  CH20     0.000000       14.0266           
    3439 A    860  BUT  BD3  CH20     0.000000       14.0266           
    3440 A    860  BUT  BD4  CH30     0.000000       15.0344           
    3441 A    861  BUT  BD1  CH30     0.000000       15.0344           
    3442 A    861  BUT  BD2  CH20     0.000000       14.0266           
    3443 A    861  BUT  BD3  CH20     0.000000       14.0266           
    3444 A    861  BUT  BD4  CH30     0.000000       15.0344           
    3445 A    862  BUT  BD1  CH30     0.000000       15.0344           
    3446 A    862  BUT  BD2  CH20     0.000000       14.0266           
    3447 A    862  BUT  BD3  CH20     0.000000       14.0266           
    3448 A    862  BUT  BD4  CH30     0.000000       15.0344           
    3449 A    863  BUT  BD1  CH30     0.000000       15.0344           
    3450 A    863  BUT  BD2  CH20     0.000000       14.0266           
    3451 A    863  BUT  BD3  CH20     0.000000       14.0266           
    3452 A    863  BUT  BD4  CH30     0.000000       15.0344           
    3453 A    864  BUT  BD1  CH30     0.000000       15.0344           
    3454 A    864  BUT  BD2  CH20     0.000000       14.0266           
    3455 A    864  BUT  BD3  CH20     0.000000       14.0266           
    3456 A    864  BUT  BD4  CH30     0.000000       15.0344           
    3457 A    865  BUT  BD1  CH30     0.000000       15.0344           
    3458 A    865  BUT  BD2  CH20     0.000000       14.0266           
    3459 A    865  BUT  BD3  CH20     0.000000       14.0266           
    3460 A    865  BUT  BD4  CH30     0.000000       15.0344           
    3461 A    866  BUT  BD1  CH30     0.000000       15.0344           
    3462 A    866  BUT  BD2  CH20     0.000000       14.0266           
    3463 A    866  BUT  BD3  CH20     0.000000       14.0266           
    3464 A    866  BUT  BD4  CH30     0.000000       15.0344           
    3465 A    867  BUT  BD1  CH30     0.000000       15.0344           
    3466 A    867  BUT  BD2  CH20     0.000000       14.0266           
    3467 A    867  BUT  BD3  CH20     0.000000       14.0266           
    3468 A    867  BUT  BD4  CH30     0.000000       15.0344           
    3469 A    868  BUT  BD1  CH30     0.000000       15.0344           
    3470 A    868  BUT  BD2  CH20     0.000000       14.0266           
    3471 A    868  BUT  BD3  CH20     0.000000       14.0266           
    3472 A    868  BUT  BD4  CH30     0.000000       15.0344           
    3473 A    869  BUT  BD1  CH30     0.000000       15.0344           
    3474 A    869  BUT  BD2  CH20     0.000000       14.0266           
    3475 A    869  BUT  BD3  CH20     0.000000       14.0266           
    3476 A    869  BUT  BD4  CH30     0.000000       15.0344           
    3477 A    870  BUT  BD1  CH30     0.000000       15.0344           
    3478 A    870  BUT  BD2  CH20     0.000000       14.0266           
    3479 A    870  BUT  BD3  CH20     0.000000       14.0266           
    3480 A    870  BUT  BD4  CH30     0.000000       15.0344           
    3481 A    871  BUT  BD1  CH30     0.000000       15.0344           
    3482 A    871  BUT  BD2  CH20     0.000000       14.0266           
    3483 A    871  BUT  BD3  CH20     0.000000       14.0266           
    3484 A    871  BUT  BD4  CH30     0.000000       15.0344           
    3485 A    872  BUT  BD1  CH30     0.000000       15.0344           
    3486 A    872  BUT  BD2  CH20     0.000000       14.0266           
    3487 A    872  BUT  BD3  CH20     0.000000       14.0266           
    3488 A    872  BUT  BD4  CH30     0.000000       15.0344           
    3489 A    873  BUT  BD1  CH30     0.000000       15.0344           
    3490 A    873  BUT  BD2  CH20     0.000000       14.0266           
    3491 A    873  BUT  BD3  CH20     0.000000       14.0266           
    3492 A    873  BUT  BD4  CH30     0.000000       15.0344           
    3493 A    874  BUT  BD1  CH30     0.000000       15.0344           
    3494 A    874  BUT  BD2  CH20     0.000000       14.0266           
    3495 A    874  BUT  BD3  CH20     0.000000       14.0266           
    3496 A    874  BUT  BD4  CH30     0.000000       15.0344           
    3497 A    875  BUT  BD1  CH30     0.000000       15.0344           
    3498 A    875  BUT  BD2  CH20     0.000000       14.0266           
    3499 A    875  BUT  BD3  CH20     0.000000       14.0266           
    3500 A    875  BUT  BD4  CH30     0.000000       15.0344           
    3501 A    876  BUT  BD1  CH30     0.000000       15.0344           
    3502 A    876  BUT  BD2  CH20     0.000000       14.0266           
    3503 A    876  BUT  BD3  CH20     0.000000       14.0266           
    3504 A    876  BUT  BD4  CH30     0.000000       15.0344           
    3505 A    877  BUT  BD1  CH30     0.000000       15.0344           
    3506 A    877  BUT  BD2  CH20     0.000000       14.0266           
    3507 A    877  BUT  BD3  CH20     0.000000       14.0266           
    3508 A    877  BUT  BD4  CH30     0.000000       15.0344           
    3509 A    878  BUT  BD1  CH30     0.000000       15.0344           
    3510 A    878  BUT  BD2  CH20     0.000000       14.0266           
    3511 A    878  BUT  BD3  CH20     0.000000       14.0266           
    3512 A    878  BUT  BD4  CH30     0.000000       15.0344           
    3513 A    879  BUT  BD1  CH30     0.000000       15.0344           
    3514 A    879  BUT  BD2  CH20     0.000000       14.0266           
    3515 A    879  BUT  BD3  CH20     0.000000       14.0266           
    3516 A    879  BUT  BD4  CH30     0.000000       15.0344           
    3517 A    880  BUT  BD1  CH30     0.000000       15.0344           
    3518 A    880  BUT  BD2  CH20     0.000000       14.0266           
    3519 A    880  BUT  BD3  CH20     0.000000       14.0266           
    3520 A    880  BUT  BD4  CH30     0.000000       15.0344           
    3521 A    881  BUT  BD1  CH30     0.000000       15.0344           
    3522 A    881  BUT  BD2  CH20     0.000000       14.0266           
    3523 A    881  BUT  BD3  CH20     0.000000       14.0266           
    3524 A    881  BUT  BD4  CH30     0.000000       15.0344           
    3525 A    882  BUT  BD1  CH30     0.000000       15.0344           
    3526 A    882  BUT  BD2  CH20     0.000000       14.0266           
    3527 A    882  BUT  BD3  CH20     0.000000       14.0266           
    3528 A    882  BUT  BD4  CH30     0.000000       15.0344           
    3529 A    883  BUT  BD1  CH30     0.000000       15.0344           
    3530 A    883  BUT  BD2  CH20     0.000000       14.0266           
    3531 A    883  BUT  BD3  CH20     0.000000       14.0266           
    3532 A    883  BUT  BD4  CH30     0.000000       15.0344           
    3533 A    884  BUT  BD1  CH30     0.000000       15.0344           
    3534 A    884  BUT  BD2  CH20     0.000000       14.0266           
    3535 A    884  BUT  BD3  CH20     0.000000       14.0266           
    3536 A    884  BUT  BD4  CH30     0.000000       15.0344           
    3537 A    885  BUT  BD1  CH30     0.000000       15.0344           
    3538 A    885  BUT  BD2  CH20     0.000000       14.0266           
    3539 A    885  BUT  BD3  CH20     0.000000       14.0266           
    3540 A    885  BUT  BD4  CH30     0.000000       15.0344           
    3541 A    886  BUT  BD1  CH30     0.000000       15.0344           
    3542 A    886  BUT  BD2  CH20     0.000000       14.0266           
    3543 A    886  BUT  BD3  CH20     0.000000       14.0266           
    3544 A    886  BUT  BD4  CH30     0.000000       15.0344           
    3545 A    887  BUT  BD1  CH30     0.000000       15.0344           
    3546 A    887  BUT  BD2  CH20     0.000000       14.0266           
    3547 A    887  BUT  BD3  CH20     0.000000       14.0266           
    3548 A    887  BUT  BD4  CH30     0.000000       15.0344           
    3549 A    888  BUT  BD1  CH30     0.000000       15.0344           
    3550 A    888  BUT  BD2  CH20     0.000000       14.0266           
    3551 A    888  BUT  BD3  CH20     0.000000       14.0266           
    3552 A    888  BUT  BD4  CH30     0.000000       15.0344           
    3553 A    889  BUT  BD1  CH30     0.000000       15.0344           
    3554 A    889  BUT  BD2  CH20     0.000000       14.0266           
    3555 A    889  BUT  BD3  CH20     0.000000       14.0266           
    3556 A    889  BUT  BD4  CH30     0.000000       15.0344           
    3557 A    890  BUT  BD1  CH30     0.000000       15.0344           
    3558 A    890  BUT  BD2  CH20     0.000000       14.0266           
    3559 A    890  BUT  BD3  CH20     0.000000       14.0266           
    3560 A    890  BUT  BD4  CH30     0.000000       15.0344           
    3561 A    891  BUT  BD1  CH30     0.000000       15.0344           
    3562 A    891  BUT  BD2  CH20     0.000000       14.0266           
    3563 A    891  BUT  BD3  CH20     0.000000       14.0266           
    3564 A    891  BUT  BD4  CH30     0.000000       15.0344           
    3565 A    892  BUT  BD1  CH30     0.000000       15.0344           
    3566 A    892  BUT  BD2  CH20     0.000000       14.0266           
    3567 A    892  BUT  BD3  CH20     0.000000       14.0266           
    3568 A    892  BUT  BD4  CH30     0.000000       15.0344           
    3569 A    893  BUT  BD1  CH30     0.000000       15.0344           
    3570 A    893  BUT  BD2  CH20     0.000000       14.0266           
    3571 A    893  BUT  BD3  CH20     0.000000       14.0266           
    3572 A    893  BUT  BD4  CH30     0.000000       15.0344           
    3573 A    894  BUT  BD1  CH30     0.000000       15.0344           
    3574 A    894  BUT  BD2  CH20     0.000000       14.0266           
    3575 A    894  BUT  BD3  CH20     0.000000       14.0266           
    3576 A    894  BUT  BD4  CH30     0.000000       15.0344           
    3577 A    895  BUT  BD1  CH30     0.000000       15.0344           
    3578 A    895  BUT  BD2  CH20     0.000000       14.0266           
    3579 A    895  BUT  BD3  CH20     0.000000       14.0266           
    3580 A    895  BUT  BD4  CH30     0.000000       15.0344           
    3581 A    896  BUT  BD1  CH30     0.000000       15.0344           
    3582 A    896  BUT  BD2  CH20     0.000000       14.0266           
    3583 A    896  BUT  BD3  CH20     0.000000       14.0266           
    3584 A    896  BUT  BD4  CH30     0.000000       15.0344           
    3585 A    897  BUT  BD1  CH30     0.000000       15.0344           
    3586 A    897  BUT  BD2  CH20     0.000000       14.0266           
    3587 A    897  BUT  BD3  CH20     0.000000       14.0266           
    3588 A    897  BUT  BD4  CH30     0.000000       15.0344           
    3589 A    898  BUT  BD1  CH30     0.000000       15.0344           
    3590 A    898  BUT  BD2  CH20     0.000000       14.0266           
    3591 A    898  BUT  BD3  CH20     0.000000       14.0266           
    3592 A    898  BUT  BD4  CH30     0.000000       15.0344           
    3593 A    899  BUT  BD1  CH30     0.000000       15.0344           
    3594 A    899  BUT  BD2  CH20     0.000000       14.0266           
    3595 A    899  BUT  BD3  CH20     0.000000       14.0266           
    3596 A    899  BUT  BD4  CH30     0.000000       15.0344           
    3597 A    900  BUT  BD1  CH30     0.000000       15.0344           
    3598 A    900  BUT  BD2  CH20     0.000000       14.0266           
    3599 A    900  BUT  BD3  CH20     0.000000       14.0266           
    3600 A    900  BUT  BD4  CH30     0.000000       15.0344           
    3601 A    901  BUT  BD1  CH30     0.000000       15.0344           
    3602 A    901  BUT  BD2  CH20     0.000000       14.0266           
    3603 A    901  BUT  BD3  CH20     0.000000       14.0266           
    3604 A    901  BUT  BD4  CH30     0.000000       15.0344           
    3605 A    902  BUT  BD1  CH30     0.000000       15.0344           
    3606 A    902  BUT  BD2  CH20     0.000000       14.0266           
    3607 A    902  BUT  BD3  CH20     0.000000       14.0266           
    3608 A    902  BUT  BD4  CH30     0.000000       15.0344           
    3609 A    903  BUT  BD1  CH30     0.000000       15.0344           
    3610 A    903  BUT  BD2  CH20     0.000000       14.0266           
    3611 A    903  BUT  BD3  CH20     0.000000       14.0266           
    3612 A    903  BUT  BD4  CH30     0.000000       15.0344           
    3613 A    904  BUT  BD1  CH30     0.000000       15.0344           
    3614 A    904  BUT  BD2  CH20     0.000000       14.0266           
    3615 A    904  BUT  BD3  CH20     0.000000       14.0266           
    3616 A    904  BUT  BD4  CH30     0.000000       15.0344           
    3617 A    905  BUT  BD1  CH30     0.000000       15.0344           
    3618 A    905  BUT  BD2  CH20     0.000000       14.0266           
    3619 A    905  BUT  BD3  CH20     0.000000       14.0266           
    3620 A    905  BUT  BD4  CH30     0.000000       15.0344           
    3621 A    906  BUT  BD1  CH30     0.000000       15.0344           
    3622 A    906  BUT  BD2  CH20     0.000000       14.0266           
    3623 A    906  BUT  BD3  CH20     0.000000       14.0266           
    3624 A    906  BUT  BD4  CH30     0.000000       15.0344           
    3625 A    907  BUT  BD1  CH30     0.000000       15.0344           
    3626 A    907  BUT  BD2  CH20     0.000000       14.0266           
    3627 A    907  BUT  BD3  CH20     0.000000       14.0266           
    3628 A    907  BUT  BD4  CH30     0.000000       15.0344           
    3629 A    908  BUT  BD1  CH30     0.000000       15.0344           
    3630 A    908  BUT  BD2  CH20     0.000000       14.0266           
    3631 A    908  BUT  BD3  CH20     0.000000       14.0266           
    3632 A    908  BUT  BD4  CH30     0.000000       15.0344           
    3633 A    909  BUT  BD1  CH30     0.000000       15.0344           
    3634 A    909  BUT  BD2  CH20     0.000000       14.0266           
    3635 A    909  BUT  BD3  CH20     0.000000       14.0266           
    3636 A    909  BUT  BD4  CH30     0.000000       15.0344           
    3637 A    910  BUT  BD1  CH30     0.000000       15.0344           
    3638 A    910  BUT  BD2  CH20     0.000000       14.0266           
    3639 A    910  BUT  BD3  CH20     0.000000       14.0266           
    3640 A    910  BUT  BD4  CH30     0.000000       15.0344           
    3641 A    911  BUT  BD1  CH30     0.000000       15.0344           
    3642 A    911  BUT  BD2  CH20     0.000000       14.0266           
    3643 A    911  BUT  BD3  CH20     0.000000       14.0266           
    3644 A    911  BUT  BD4  CH30     0.000000       15.0344           
    3645 A    912  BUT  BD1  CH30     0.000000       15.0344           
    3646 A    912  BUT  BD2  CH20     0.000000       14.0266           
    3647 A    912  BUT  BD3  CH20     0.000000       14.0266           
    3648 A    912  BUT  BD4  CH30     0.000000       15.0344           
    3649 A    913  BUT  BD1  CH30     0.000000       15.0344           
    3650 A    913  BUT  BD2  CH20     0.000000       14.0266           
    3651 A    913  BUT  BD3  CH20     0.000000       14.0266           
    3652 A    913  BUT  BD4  CH30     0.000000       15.0344           
    3653 A    914  BUT  BD1  CH30     0.000000       15.0344           
    3654 A    914  BUT  BD2  CH20     0.000000       14.0266           
    3655 A    914  BUT  BD3  CH20     0.000000       14.0266           
    3656 A    914  BUT  BD4  CH30     0.000000       15.0344           
    3657 A    915  BUT  BD1  CH30     0.000000       15.0344           
    3658 A    915  BUT  BD2  CH20     0.000000       14.0266           
    3659 A    915  BUT  BD3  CH20     0.000000       14.0266           
    3660 A    915  BUT  BD4  CH30     0.000000       15.0344           
    3661 A    916  BUT  BD1  CH30     0.000000       15.0344           
    3662 A    916  BUT  BD2  CH20     0.000000       14.0266           
    3663 A    916  BUT  BD3  CH20     0.000000       14.0266           
    3664 A    916  BUT  BD4  CH30     0.000000       15.0344           
    3665 A    917  BUT  BD1  CH30     0.000000       15.0344           
    3666 A    917  BUT  BD2  CH20     0.000000       14.0266           
    3667 A    917  BUT  BD3  CH20     0.000000       14.0266           
    3668 A    917  BUT  BD4  CH30     0.000000       15.0344           
    3669 A    918  BUT  BD1  CH30     0.000000       15.0344           
    3670 A    918  BUT  BD2  CH20     0.000000       14.0266           
    3671 A    918  BUT  BD3  CH20     0.000000       14.0266           
    3672 A    918  BUT  BD4  CH30     0.000000       15.0344           
    3673 A    919  BUT  BD1  CH30     0.000000       15.0344           
    3674 A    919  BUT  BD2  CH20     0.000000       14.0266           
    3675 A    919  BUT  BD3  CH20     0.000000       14.0266           
    3676 A    919  BUT  BD4  CH30     0.000000       15.0344           
    3677 A    920  BUT  BD1  CH30     0.000000       15.0344           
    3678 A    920  BUT  BD2  CH20     0.000000       14.0266           
    3679 A    920  BUT  BD3  CH20     0.000000       14.0266           
    3680 A    920  BUT  BD4  CH30     0.000000       15.0344           
    3681 A    921  BUT  BD1  CH30     0.000000       15.0344           
    3682 A    921  BUT  BD2  CH20     0.000000       14.0266           
    3683 A    921  BUT  BD3  CH20     0.000000       14.0266           
    3684 A    921  BUT  BD4  CH30     0.000000       15.0344           
    3685 A    922  BUT  BD1  CH30     0.000000       15.0344           
    3686 A    922  BUT  BD2  CH20     0.000000       14.0266           
    3687 A    922  BUT  BD3  CH20     0.000000       14.0266           
    3688 A    922  BUT  BD4  CH30     0.000000       15.0344           
    3689 A    923  BUT  BD1  CH30     0.000000       15.0344           
    3690 A    923  BUT  BD2  CH20     0.000000       14.0266           
    3691 A    923  BUT  BD3  CH20     0.000000       14.0266           
    3692 A    923  BUT  BD4  CH30     0.000000       15.0344           
    3693 A    924  BUT  BD1  CH30     0.000000       15.0344           
    3694 A    924  BUT  BD2  CH20     0.000000       14.0266           
    3695 A    924  BUT  BD3  CH20     0.000000       14.0266           
    3696 A    924  BUT  BD4  CH30     0.000000       15.0344           
    3697 A    925  BUT  BD1  CH30     0.000000       15.0344           
    3698 A    925  BUT  BD2  CH20     0.000000       14.0266           
    3699 A    925  BUT  BD3  CH20     0.000000       14.0266           
    3700 A    925  BUT  BD4  CH30     0.000000       15.0344           
    3701 A    926  BUT  BD1  CH30     0.000000       15.0344           
    3702 A    926  BUT  BD2  CH20     0.000000       14.0266           
    3703 A    926  BUT  BD3  CH20     0.000000       14.0266           
    3704 A    926  BUT  BD4  CH30     0.000000       15.0344           
    3705 A    927  BUT  BD1  CH30     0.000000       15.0344           
    3706 A    927  BUT  BD2  CH20     0.000000       14.0266           
    3707 A    927  BUT  BD3  CH20     0.000000       14.0266           
    3708 A    927  BUT  BD4  CH30     0.000000       15.0344           
    3709 A    928  BUT  BD1  CH30     0.000000       15.0344           
    3710 A    928  BUT  BD2  CH20     0.000000       14.0266           
    3711 A    928  BUT  BD3  CH20     0.000000       14.0266           
    3712 A    928  BUT  BD4  CH30     0.000000       15.0344           
    3713 A    929  BUT  BD1  CH30     0.000000       15.0344           
    3714 A    929  BUT  BD2  CH20     0.000000       14.0266           
    3715 A    929  BUT  BD3  CH20     0.000000       14.0266           
    3716 A    929  BUT  BD4  CH30     0.000000       15.0344           
    3717 A    930  BUT  BD1  CH30     0.000000       15.0344           
    3718 A    930  BUT  BD2  CH20     0.000000       14.0266           
    3719 A    930  BUT  BD3  CH20     0.000000       14.0266           
    3720 A    930  BUT  BD4  CH30     0.000000       15.0344           
    3721 A    931  BUT  BD1  CH30     0.000000       15.0344           
    3722 A    931  BUT  BD2  CH20     0.000000       14.0266           
    3723 A    931  BUT  BD3  CH20     0.000000       14.0266           
    3724 A    931  BUT  BD4  CH30     0.000000       15.0344           
    3725 A    932  BUT  BD1  CH30     0.000000       15.0344           
    3726 A    932  BUT  BD2  CH20     0.000000       14.0266           
    3727 A    932  BUT  BD3  CH20     0.000000       14.0266           
    3728 A    932  BUT  BD4  CH30     0.000000       15.0344           
    3729 A    933  BUT  BD1  CH30     0.000000       15.0344           
    3730 A    933  BUT  BD2  CH20     0.000000       14.0266           
    3731 A    933  BUT  BD3  CH20     0.000000       14.0266           
    3732 A    933  BUT  BD4  CH30     0.000000       15.0344           
    3733 A    934  BUT  BD1  CH30     0.000000       15.0344           
    3734 A    934  BUT  BD2  CH20     0.000000       14.0266           
    3735 A    934  BUT  BD3  CH20     0.000000       14.0266           
    3736 A    934  BUT  BD4  CH30     0.000000       15.0344           
    3737 A    935  BUT  BD1  CH30     0.000000       15.0344           
    3738 A    935  BUT  BD2  CH20     0.000000       14.0266           
    3739 A    935  BUT  BD3  CH20     0.000000       14.0266           
    3740 A    935  BUT  BD4  CH30     0.000000       15.0344           
    3741 A    936  BUT  BD1  CH30     0.000000       15.0344           
    3742 A    936  BUT  BD2  CH20     0.000000       14.0266           
    3743 A    936  BUT  BD3  CH20     0.000000       14.0266           
    3744 A    936  BUT  BD4  CH30     0.000000       15.0344           
    3745 A    937  BUT  BD1  CH30     0.000000       15.0344           
    3746 A    937  BUT  BD2  CH20     0.000000       14.0266           
    3747 A    937  BUT  BD3  CH20     0.000000       14.0266           
    3748 A    937  BUT  BD4  CH30     0.000000       15.0344           
    3749 A    938  BUT  BD1  CH30     0.000000       15.0344           
    3750 A    938  BUT  BD2  CH20     0.000000       14.0266           
    3751 A    938  BUT  BD3  CH20     0.000000       14.0266           
    3752 A    938  BUT  BD4  CH30     0.000000       15.0344           
    3753 A    939  BUT  BD1  CH30     0.000000       15.0344           
    3754 A    939  BUT  BD2  CH20     0.000000       14.0266           
    3755 A    939  BUT  BD3  CH20     0.000000       14.0266           
    3756 A    939  BUT  BD4  CH30     0.000000       15.0344           
    3757 A    940  BUT  BD1  CH30     0.000000       15.0344           
    3758 A    940  BUT  BD2  CH20     0.000000       14.0266           
    3759 A    940  BUT  BD3  CH20     0.000000       14.0266           
    3760 A    940  BUT  BD4  CH30     0.000000       15.0344           
    3761 A    941  BUT  BD1  CH30     0.000000       15.0344           
    3762 A    941  BUT  BD2  CH20     0.000000       14.0266           
    3763 A    941  BUT  BD3  CH20     0.000000       14.0266           
    3764 A    941  BUT  BD4  CH30     0.000000       15.0344           
    3765 A    942  BUT  BD1  CH30     0.000000       15.0344           
    3766 A    942  BUT  BD2  CH20     0.000000       14.0266           
    3767 A    942  BUT  BD3  CH20     0.000000       14.0266           
    3768 A    942  BUT  BD4  CH30     0.000000       15.0344           
    3769 A    943  BUT  BD1  CH30     0.000000       15.0344           
    3770 A    943  BUT  BD2  CH20     0.000000       14.0266           
    3771 A    943  BUT  BD3  CH20     0.000000       14.0266           
    3772 A    943  BUT  BD4  CH30     0.000000       15.0344           
    3773 A    944  BUT  BD1  CH30     0.000000       15.0344           
    3774 A    944  BUT  BD2  CH20     0.000000       14.0266           
    3775 A    944  BUT  BD3  CH20     0.000000       14.0266           
    3776 A    944  BUT  BD4  CH30     0.000000       15.0344           
    3777 A    945  BUT  BD1  CH30     0.000000       15.0344           
    3778 A    945  BUT  BD2  CH20     0.000000       14.0266           
    3779 A    945  BUT  BD3  CH20     0.000000       14.0266           
    3780 A    945  BUT  BD4  CH30     0.000000       15.0344           
    3781 A    946  BUT  BD1  CH30     0.000000       15.0344           
    3782 A    946  BUT  BD2  CH20     0.000000       14.0266           
    3783 A    946  BUT  BD3  CH20     0.000000       14.0266           
    3784 A    946  BUT  BD4  CH30     0.000000       15.0344           
    3785 A    947  BUT  BD1  CH30     0.000000       15.0344           
    3786 A    947  BUT  BD2  CH20     0.000000       14.0266           
    3787 A    947  BUT  BD3  CH20     0.000000       14.0266           
    3788 A    947  BUT  BD4  CH30     0.000000       15.0344           
    3789 A    948  BUT  BD1  CH30     0.000000       15.0344           
    3790 A    948  BUT  BD2  CH20     0.000000       14.0266           
    3791 A    948  BUT  BD3  CH20     0.000000       14.0266           
    3792 A    948  BUT  BD4  CH30     0.000000       15.0344           
    3793 A    949  BUT  BD1  CH30     0.000000       15.0344           
    3794 A    949  BUT  BD2  CH20     0.000000       14.0266           
    3795 A    949  BUT  BD3  CH20     0.000000       14.0266           
    3796 A    949  BUT  BD4  CH30     0.000000       15.0344           
    3797 A    950  BUT  BD1  CH30     0.000000       15.0344           
    3798 A    950  BUT  BD2  CH20     0.000000       14.0266           
    3799 A    950  BUT  BD3  CH20     0.000000       14.0266           
    3800 A    950  BUT  BD4  CH30     0.000000       15.0344           
    3801 A    951  BUT  BD1  CH30     0.000000       15.0344           
    3802 A    951  BUT  BD2  CH20     0.000000       14.0266           
    3803 A    951  BUT  BD3  CH20     0.000000       14.0266           
    3804 A    951  BUT  BD4  CH30     0.000000       15.0344           
    3805 A    952  BUT  BD1  CH30     0.000000       15.0344           
    3806 A    952  BUT  BD2  CH20     0.000000       14.0266           
    3807 A    952  BUT  BD3  CH20     0.000000       14.0266           
    3808 A    952  BUT  BD4  CH30     0.000000       15.0344           
    3809 A    953  BUT  BD1  CH30     0.000000       15.0344           
    3810 A    953  BUT  BD2  CH20     0.000000       14.0266           
    3811 A    953  BUT  BD3  CH20     0.000000       14.0266           
    3812 A    953  BUT  BD4  CH30     0.000000       15.0344           
    3813 A    954  BUT  BD1  CH30     0.000000       15.0344           
    3814 A    954  BUT  BD2  CH20     0.000000       14.0266           
    3815 A    954  BUT  BD3  CH20     0.000000       14.0266           
    3816 A    954  BUT  BD4  CH30     0.000000       15.0344           
    3817 A    955  BUT  BD1  CH30     0.000000       15.0344           
    3818 A    955  BUT  BD2  CH20     0.000000       14.0266           
    3819 A    955  BUT  BD3  CH20     0.000000       14.0266           
    3820 A    955  BUT  BD4  CH30     0.000000       15.0344           
    3821 A    956  BUT  BD1  CH30     0.000000       15.0344           
    3822 A    956  BUT  BD2  CH20     0.000000       14.0266           
    3823 A    956  BUT  BD3  CH20     0.000000       14.0266           
    3824 A    956  BUT  BD4  CH30     0.000000       15.0344           
    3825 A    957  BUT  BD1  CH30     0.000000       15.0344           
    3826 A    957  BUT  BD2  CH20     0.000000       14.0266           
    3827 A    957  BUT  BD3  CH20     0.000000       14.0266           
    3828 A    957  BUT  BD4  CH30     0.000000       15.0344           
    3829 A    958  BUT  BD1  CH30     0.000000       15.0344           
    3830 A    958  BUT  BD2  CH20     0.000000       14.0266           
    3831 A    958  BUT  BD3  CH20     0.000000       14.0266           
    3832 A    958  BUT  BD4  CH30     0.000000       15.0344           
    3833 A    959  BUT  BD1  CH30     0.000000       15.0344           
    3834 A    959  BUT  BD2  CH20     0.000000       14.0266           
    3835 A    959  BUT  BD3  CH20     0.000000       14.0266           
    3836 A    959  BUT  BD4  CH30     0.000000       15.0344           
    3837 A    960  BUT  BD1  CH30     0.000000       15.0344           
    3838 A    960  BUT  BD2  CH20     0.000000       14.0266           
    3839 A    960  BUT  BD3  CH20     0.000000       14.0266           
    3840 A    960  BUT  BD4  CH30     0.000000       15.0344           
    3841 A    961  BUT  BD1  CH30     0.000000       15.0344           
    3842 A    961  BUT  BD2  CH20     0.000000       14.0266           
    3843 A    961  BUT  BD3  CH20     0.000000       14.0266           
    3844 A    961  BUT  BD4  CH30     0.000000       15.0344           
    3845 A    962  BUT  BD1  CH30     0.000000       15.0344           
    3846 A    962  BUT  BD2  CH20     0.000000       14.0266           
    3847 A    962  BUT  BD3  CH20     0.000000       14.0266           
    3848 A    962  BUT  BD4  CH30     0.000000       15.0344           
    3849 A    963  BUT  BD1  CH30     0.000000       15.0344           
    3850 A    963  BUT  BD2  CH20     0.000000       14.0266           
    3851 A    963  BUT  BD3  CH20     0.000000       14.0266           
    3852 A    963  BUT  BD4  CH30     0.000000       15.0344           
    3853 A    964  BUT  BD1  CH30     0.000000       15.0344           
    3854 A    964  BUT  BD2  CH20     0.000000       14.0266           
    3855 A    964  BUT  BD3  CH20     0.000000       14.0266           
    3856 A    964  BUT  BD4  CH30     0.000000       15.0344           
    3857 A    965  BUT  BD1  CH30     0.000000       15.0344           
    3858 A    965  BUT  BD2  CH20     0.000000       14.0266           
    3859 A    965  BUT  BD3  CH20     0.000000       14.0266           
    3860 A    965  BUT  BD4  CH30     0.000000       15.0344           
    3861 A    966  BUT  BD1  CH30     0.000000       15.0344           
    3862 A    966  BUT  BD2  CH20     0.000000       14.0266           
    3863 A    966  BUT  BD3  CH20     0.000000       14.0266           
    3864 A    966  BUT  BD4  CH30     0.000000       15.0344           
    3865 A    967  BUT  BD1  CH30     0.000000       15.0344           
    3866 A    967  BUT  BD2  CH20     0.000000       14.0266           
    3867 A    967  BUT  BD3  CH20     0.000000       14.0266           
    3868 A    967  BUT  BD4  CH30     0.000000       15.0344           
    3869 A    968  BUT  BD1  CH30     0.000000       15.0344           
    3870 A    968  BUT  BD2  CH20     0.000000       14.0266           
    3871 A    968  BUT  BD3  CH20     0.000000       14.0266           
    3872 A    968  BUT  BD4  CH30     0.000000       15.0344           
    3873 A    969  BUT  BD1  CH30     0.000000       15.0344           
    3874 A    969  BUT  BD2  CH20     0.000000       14.0266           
    3875 A    969  BUT  BD3  CH20     0.000000       14.0266           
    3876 A    969  BUT  BD4  CH30     0.000000       15.0344           
    3877 A    970  BUT  BD1  CH30     0.000000       15.0344           
    3878 A    970  BUT  BD2  CH20     0.000000       14.0266           
    3879 A    970  BUT  BD3  CH20     0.000000       14.0266           
    3880 A    970  BUT  BD4  CH30     0.000000       15.0344           
    3881 A    971  BUT  BD1  CH30     0.000000       15.0344           
    3882 A    971  BUT  BD2  CH20     0.000000       14.0266           
    3883 A    971  BUT  BD3  CH20     0.000000       14.0266           
    3884 A    971  BUT  BD4  CH30     0.000000       15.0344           
    3885 A    972  BUT  BD1  CH30     0.000000       15.0344           
    3886 A    972  BUT  BD2  CH20     0.000000       14.0266           
    3887 A    972  BUT  BD3  CH20     0.000000       14.0266           
    3888 A    972  BUT  BD4  CH30     0.000000       15.0344           
    3889 A    973  BUT  BD1  CH30     0.000000       15.0344           
    3890 A    973  BUT  BD2  CH20     0.000000       14.0266           
    3891 A    973  BUT  BD3  CH20     0.000000       14.0266           
    3892 A    973  BUT  BD4  CH30     0.000000       15.0344           
    3893 A    974  BUT  BD1  CH30     0.000000       15.0344           
    3894 A    974  BUT  BD2  CH20     0.000000       14.0266           
    3895 A    974  BUT  BD3  CH20     0.000000       14.0266           
    3896 A    974  BUT  BD4  CH30     0.000000       15.0344           
    3897 A    975  BUT  BD1  CH30     0.000000       15.0344           
    3898 A    975  BUT  BD2  CH20     0.000000       14.0266           
    3899 A    975  BUT  BD3  CH20     0.000000       14.0266           
    3900 A    975  BUT  BD4  CH30     0.000000       15.0344           
    3901 A    976  BUT  BD1  CH30     0.000000       15.0344           
    3902 A    976  BUT  BD2  CH20     0.000000       14.0266           
    3903 A    976  BUT  BD3  CH20     0.000000       14.0266           
    3904 A    976  BUT  BD4  CH30     0.000000       15.0344           
    3905 A    977  BUT  BD1  CH30     0.000000       15.0344           
    3906 A    977  BUT  BD2  CH20     0.000000       14.0266           
    3907 A    977  BUT  BD3  CH20     0.000000       14.0266           
    3908 A    977  BUT  BD4  CH30     0.000000       15.0344           
    3909 A    978  BUT  BD1  CH30     0.000000       15.0344           
    3910 A    978  BUT  BD2  CH20     0.000000       14.0266           
    3911 A    978  BUT  BD3  CH20     0.000000       14.0266           
    3912 A    978  BUT  BD4  CH30     0.000000       15.0344           
    3913 A    979  BUT  BD1  CH30     0.000000       15.0344           
    3914 A    979  BUT  BD2  CH20     0.000000       14.0266           
    3915 A    979  BUT  BD3  CH20     0.000000       14.0266           
    3916 A    979  BUT  BD4  CH30     0.000000       15.0344           
    3917 A    980  BUT  BD1  CH30     0.000000       15.0344           
    3918 A    980  BUT  BD2  CH20     0.000000       14.0266           
    3919 A    980  BUT  BD3  CH20     0.000000       14.0266           
    3920 A    980  BUT  BD4  CH30     0.000000       15.0344           
    3921 A    981  BUT  BD1  CH30     0.000000       15.0344           
    3922 A    981  BUT  BD2  CH20     0.000000       14.0266           
    3923 A    981  BUT  BD3  CH20     0.000000       14.0266           
    3924 A    981  BUT  BD4  CH30     0.000000       15.0344           
    3925 A    982  BUT  BD1  CH30     0.000000       15.0344           
    3926 A    982  BUT  BD2  CH20     0.000000       14.0266           
    3927 A    982  BUT  BD3  CH20     0.000000       14.0266           
    3928 A    982  BUT  BD4  CH30     0.000000       15.0344           
    3929 A    983  BUT  BD1  CH30     0.000000       15.0344           
    3930 A    983  BUT  BD2  CH20     0.000000       14.0266           
    3931 A    983  BUT  BD3  CH20     0.000000       14.0266           
    3932 A    983  BUT  BD4  CH30     0.000000       15.0344           
    3933 A    984  BUT  BD1  CH30     0.000000       15.0344           
    3934 A    984  BUT  BD2  CH20     0.000000       14.0266           
    3935 A    984  BUT  BD3  CH20     0.000000       14.0266           
    3936 A    984  BUT  BD4  CH30     0.000000       15.0344           
    3937 A    985  BUT  BD1  CH30     0.000000       15.0344           
    3938 A    985  BUT  BD2  CH20     0.000000       14.0266           
    3939 A    985  BUT  BD3  CH20     0.000000       14.0266           
    3940 A    985  BUT  BD4  CH30     0.000000       15.0344           
    3941 A    986  BUT  BD1  CH30     0.000000       15.0344           
    3942 A    986  BUT  BD2  CH20     0.000000       14.0266           
    3943 A    986  BUT  BD3  CH20     0.000000       14.0266           
    3944 A    986  BUT  BD4  CH30     0.000000       15.0344           
    3945 A    987  BUT  BD1  CH30     0.000000       15.0344           
    3946 A    987  BUT  BD2  CH20     0.000000       14.0266           
    3947 A    987  BUT  BD3  CH20     0.000000       14.0266           
    3948 A    987  BUT  BD4  CH30     0.000000       15.0344           
    3949 A    988  BUT  BD1  CH30     0.000000       15.0344           
    3950 A    988  BUT  BD2  CH20     0.000000       14.0266           
    3951 A    988  BUT  BD3  CH20     0.000000       14.0266           
    3952 A    988  BUT  BD4  CH30     0.000000       15.0344           
    3953 A    989  BUT  BD1  CH30     0.000000       15.0344           
    3954 A    989  BUT  BD2  CH20     0.000000       14.0266           
    3955 A    989  BUT  BD3  CH20     0.000000       14.0266           
    3956 A    989  BUT  BD4  CH30     0.000000       15.0344           
    3957 A    990  BUT  BD1  CH30     0.000000       15.0344           
    3958 A    990  BUT  BD2  CH20     0.000000       14.0266           
    3959 A    990  BUT  BD3  CH20     0.000000       14.0266           
    3960 A    990  BUT  BD4  CH30     0.000000       15.0344           
    3961 A    991  BUT  BD1  CH30     0.000000       15.0344           
    3962 A    991  BUT  BD2  CH20     0.000000       14.0266           
    3963 A    991  BUT  BD3  CH20     0.000000       14.0266           
    3964 A    991  BUT  BD4  CH30     0.000000       15.0344           
    3965 A    992  BUT  BD1  CH30     0.000000       15.0344           
    3966 A    992  BUT  BD2  CH20     0.000000       14.0266           
    3967 A    992  BUT  BD3  CH20     0.000000       14.0266           
    3968 A    992  BUT  BD4  CH30     0.000000       15.0344           
    3969 A    993  BUT  BD1  CH30     0.000000       15.0344           
    3970 A    993  BUT  BD2  CH20     0.000000       14.0266           
    3971 A    993  BUT  BD3  CH20     0.000000       14.0266           
    3972 A    993  BUT  BD4  CH30     0.000000       15.0344           
    3973 A    994  BUT  BD1  CH30     0.000000       15.0344           
    3974 A    994  BUT  BD2  CH20     0.000000       14.0266           
    3975 A    994  BUT  BD3  CH20     0.000000       14.0266           
    3976 A    994  BUT  BD4  CH30     0.000000       15.0344           
    3977 A    995  BUT  BD1  CH30     0.000000       15.0344           
    3978 A    995  BUT  BD2  CH20     0.000000       14.0266           
    3979 A    995  BUT  BD3  CH20     0.000000       14.0266           
    3980 A    995  BUT  BD4  CH30     0.000000       15.0344           
    3981 A    996  BUT  BD1  CH30     0.000000       15.0344           
    3982 A    996  BUT  BD2  CH20     0.000000       14.0266           
    3983 A    996  BUT  BD3  CH20     0.000000       14.0266           
    3984 A    996  BUT  BD4  CH30     0.000000       15.0344           
    3985 A    997  BUT  BD1  CH30     0.000000       15.0344           
    3986 A    997  BUT  BD2  CH20     0.000000       14.0266           
    3987 A    997  BUT  BD3  CH20     0.000000       14.0266           
    3988 A    997  BUT  BD4  CH30     0.000000       15.0344           
    3989 A    998  BUT  BD1  CH30     0.000000       15.0344           
    3990 A    998  BUT  BD2  CH20     0.000000       14.0266           
    3991 A    998  BUT  BD3  CH20     0.000000       14.0266           
    3992 A    998  BUT  BD4  CH30     0.000000       15.0344           
    3993 A    999  BUT  BD1  CH30     0.000000       15.0344           
    3994 A    999  BUT  BD2  CH20     0.000000       14.0266           
    3995 A    999  BUT  BD3  CH20     0.000000       14.0266           
    3996 A    999  BUT  BD4  CH30     0.000000       15.0344           
    3997 A    1000 BUT  BD1  CH30     0.000000       15.0344           
    3998 A    1000 BUT  BD2  CH20     0.000000       14.0266           
    3999 A    1000 BUT  BD3  CH20     0.000000       14.0266           
    4000 A    1000 BUT  BD4  CH30     0.000000       15.0344           

    3000 !NBOND: bonds
       1       2       3       2       4       3       5       6
       7       6       8       7       9      10      11      10
      12      11      13      14      15      14      16      15
      17      18      19      18      20      19      21      22
      23      22      24      23      25      26      27      26
      28      27      29      30      31      30      32      31
      33      34      35      34      36      35      37      38
      39      38      40      39      41      42      43      42
      44      43      45      46      47      46      48      47
      49      50      51      50      52      51      53      54
      55      54      56      55      57      58      59      58
      60      59      61      62      63      62      64      63
      65      66      67      66      68      67      69      70
      71      70      72      71      73      74      75      74
      76      75      77      78      79      78      80      79
      81      82      83      82      84      83      85      86
      87      86      88      87      89      90      91      90
      92      91      93      94      95      94      96      95
      97      98      99      98     100      99     101     102
     103     102     104     103     105     106     107     106
     108     107     109     110     111     110     112     111
     113     114     115     114     116     115     117     118
     119     118     120     119     121     122     123     122
     124     123     125     126     127     126     128     127
     129     130     131     130     132     131     133     134
     135     134     136     135     137     138     139     138
     140     139     141     142     143     142     144     143
     145     146     147     146     148     147     149     150
     151     150     152     151     153     154     155     154
     156     155     157     158     159     158     160     159
     161     162     163     162     164     163     165     166
     167     166     168     167     169     170     171     170
     172     171     173     174     175     174     176     175
     177     178     179     178     180     179     181     182
     183     182     184     183     185     186     187     186
     188     187     189     190     191     190     192     191
     193     194     195     194     196     195     197     198
     199     198     200     199     201     202     203     202
     204     203     205     206     207     206     208     207
     209     210     211     210     212     211     213     214
     215     214     216     215     217     218     219     218
     220     219     221     222     223     222     224     223
     225     226     227     226     228     227     229     230
     231     230     232     231     233     234     235     234
     236     235     237     238     239     238     240     239
     241     242     243     242     244     243     245     246
     247     246     248     247     249     250     251     250
     252     251     253     254     255     254     256     255
     257     258     259     258     260     259     261     262
     263     262     264     263     265     266     267     266
     268     267     269     270     271     270     272     271
     273     274     275     274     276     275     277     278
     279     278     280     279     281     282     283     282
     284     283     285     286     287     286     288     287
     289     290     291     290     292     291     293     294
     295     294     296     295     297     298     299     298
     300     299     301     302     303     302     304     303
     305     306     307     306     308     307     309     310
     311     310     312     311     313     314     315     314
     316     315     317     318     319     318     320     319
     321     322     323     322     324     323     325     326
     327     326     328     327     329     330     331     330
     332     331     333     334     335     334     336     335
     337     338     339     338     340     339     341     342
     343     342     344     343     345     346     347     346
     348     347     349     350     351     350     352     351
     353     354     355     354     356     355     357     358
     359     358     360     359     361     362     363     362
     364     363     365     366     367     366     368     367
     369     370     371     370     372     371     373     374
     375     374     376     375     377     378     379     378
     380     379     381     382     383     382     384     383
     385     386     387     386     388     387     389     390
     391     390     392     391     393     394     395     394
     396     395     397     398     399     398     400     399
     401     402     403     402     404     403     405     406
     407     406     408     407     409     410     411     410
     412     411     413     414     415     414     416     415
     417     418     419     418     420     419     421     422
     423     422     424     423     425     426     427     426
     428     427     429     430     431     430     432     431
     433     434     435     434     436     435     437     438
     439     438     440     439     441     442     443     442
     444     443     445     446     447     446     448     447
     449     450     451     450     452     451     453     454
     455     454     456     455     457     458     459     458
     460     459     461     462     463     462     464     463
     465     466     467     466     468     467     469     470
     471     470     472     471     473     474     475     474
     476     475     477     478     479     478     480     479
     481     482     483     482     484     483     485     486
     487     486     488     487     489     490     491     490
     492     491     493     494     495     494     496     495
     497     498     499     498     500     499     501     502
     503     502     504     503     505     506     507     506
     508     507     509     510     511     510     512     511
     513     514     515     514     516     515     517     518
     519     518     520     519     521     522     523     522
     524     523     525     526     527     526     528     527
     529     530     531     530     532     531     533     534
     535     534     536     535     537     538     539     538
     540     539     541     542     543     542     544     543
     545     546     547     546     548     547     549     550
     551     550     552     551     553     554     555     554
     556     555     557     558     559     558     560     559
     561     562     563     562     564     563     565     566
     567     566     568     567     569     570     571     570
     572     571     573     574     575     574     576     575
     577     578     579     578     580     579     581     582
     583     582     584     583     585     586     587     586
     588     587     589     590     591     590     592     591
     593     594     595     594     596     595     597     598
     599     598     600     599     601     602     603     602
     604     603     605     606     607     606     608     607
     609     610     611     610     612     611     613     614
     615     614     616     615     617     618     619     618
     620     619     621     622     623     622     624     623
     625     626     627     626     628     627     629     630
     631     630     632     631     633     634     635     634
     636     635     637     638     639     638     640     639
     641     642     643     642     644     643     645     646
     647     646     648     647     649     650     651     650
     652     651     653     654     655     654     656     655
     657     658     659     658     660     659     661     662
     663     662     664     663     665     666     667     666
     668     667     669     670     671     670     672     671
     673     674     675     674     676     675     677     678
     679     678     680     679     681     682     683     682
     684     683     685     686     687     686     688     687
     689     690     691     690     692     691     693     694
     695     694     696     695     697     698     699     698
     700     699     701     702     703     702     704     703
     705     706     707     706     708     707     709     710
     711     710     712     711     713     714     715     714
     716     715     717     718     719     718     720     719
     721     722     723     722     724     723     725     726
     727     726     728     727     729     730     731     730
     732     731     733     734     735     734     736     735
     737     738     739     738     740     739     741     742
     743     742     744     743     745     746     747     746
     748     747     749     750     751     750     752     751
     753     754     755     754     756     755     757     758
     759     758     760     759     761     762     763     762
     764     763     765     766     767     766     768     767
     769     770     771     770     772     771     773     774
     775     774     776     775     777     778     779     778
     780     779     781     782     783     782     784     783
     785     786     787     786     788     787     789     790
     791     790     792     791     793     794     795     794
     796     795     797     798     799     798     800     799
     801     802     803     802     804     803     805     806
     807     806     808     807     809     810     811     810
     812     811     813     814     815     814     816     815
     817     818     819     818     820     819     821     822
     823     822     824     823     825     826     827     826
     828     827     829     830     831     830     832     831
     833     834     835     834     836     835     837     838
     839     838     840     839     841     842     843     842
     844     843     845     846     847     846     848     847
     849     850     851     850     852     851     853     854
     855     854     856     855     857     858     859     858
     860     859     861     862     863     862     864     863
     865     866     867     866     868     867     869     870
     871     870     872     871     873     874     875     874
     876     875     877     878     879     878     880     879
     881     882     883     882     884     883     885     886
     887     886     888     887     889     890     891     890
     892     891     893     894     895     894     896     895
     897     898     899     898     900     899     901     902
     903     902     904     903     905     906     907     906
     908     907     909     910     911     910     912     911
     913     914     915     914     916     915     917     918
     919     918     920     919     921     922     923     922
     924     923     925     926     927     926     928     927
     929     930     931     930     932     931     933     934
     935     934     936     935     937     938     939     938
     940     939     941     942     943     942     944     943
     945     946     947     946     948     947     949     950
     951     950     952     951     953     954     955     954
     956     955     957     958     959     958     960     959
     961     962     963     962     964     963     965     966
     967     966     968     967     969     970     971     970
     972     971     973     974     975     974     976     975
     977     978     979     978     980     979     981     982
     983     982     984     983     985     986     987     986
     988     987     989     990     991     990     992     991
     993     994     995     994     996     995     997     998
     999     998    1000     999    1001    1002    1003    1002
    1004    1003    1005    1006    1007    1006    1008    1007
    1009    1010    1011    1010    1012    1011    1013    1014
    1015    1014    1016    1015    1017    1018    1019    1018
    1020    1019    1021    1022    1023    1022    1024    1023
    1025    1026    1027    1026    1028    1027    1029    1030
    1031    1030    1032    1031    1033    1034    1035    1034
    1036    1035    1037    1038    1039    1038    1040    1039
    1041    1042    1043    1042    1044    1043    1045    1046
    1047    1046    1048    1047    1049    1050    1051    1050
    1052    1051    1053    1054    1055    1054    1056    1055
    1057    1058    1059    1058    1060    1059    1061    1062
    1063    1062    1064    1063    1065    1066    1067    1066
    1068    1067    1069    1070    1071    1070    1072    1071
    1073    1074    1075    1074    1076    1075    1077    1078
    1079    1078    1080    1079    1081    1082    1083    1082
    1084    1083    1085    1086    1087    1086    1088    1087
    1089    1090    1091    1090    1092    1091    1093    1094
    1095    1094    1096    1095    1097    1098    1099    1098
    1100    1099    1101    1102    1103    1102    1104    1103
    1105    1106    1107    1106    1108    1107    1109    1110
    1111    1110    1112    1111    1113    1114    1115    1114
    1116    1115    1117    1118    1119    1118    1120    1119
    1121    1122    1123    1122    1124    1123    1125    1126
    1127    1126    1128    1127    1129    1130    1131    1130
    1132    1131    1133    1134    1135    1134    1136    1135
    1137    1138    1139    1138    1140    1139    1141    1142
    1143    1142    1144    1143    1145    1146    1147    1146
    1148    1147    1149    1150    1151    1150    1152    1151
    1153    1154    1155    1154    1156    1155    1157    1158
    1159    1158    1160    1159    1161    1162    1163    1162
    1164    1163    1165    1166    1167    1166    1168    1167
    1169    1170    1171    1170    1172    1171    1173    1174
    1175    1174    1176    1175    1177    1178    1179    1178
    1180    1179    1181    1182    1183    1182    1184    1183
    1185    1186    1187    1186    1188    1187    1189    1190
    1191    1190    1192    1191    1193    1194    1195    1194
    1196    1195    1197    1198    1199    1198    1200    1199
    1201    1202    1203    1202    1204    1203    1205    1206
    1207    1206    1208    1207    1209    1210    1211    1210
    1212    1211    1213    1214    1215    1214    1216    1215
    1217    1218    1219    1218    1220    1219    1221    1222
    1223    1222    1224    1223    1225    1226    1227    1226
    1228    1227    1229    1230    1231    1230    1232    1231
    1233    1234    1235    1234    1236    1235    1237    1238
    1239    1238    1240    1239    1241    1242    1243    1242
    1244    1243    1245    1246    1247    1246    1248    1247
    1249    1250    1251    1250    1252    1251    1253    1254
    1255    1254    1256    1255    1257    1258    1259    1258
    1260    1259    1261    1262    1263    1262    1264    1263
    1265    1266    1267    1266    1268    1267    1269    1270
    1271    1270    1272    1271    1273    1274    1275    1274
    1276    1275    1277    1278    1279    1278    1280    1279
    1281    1282    1283    1282    1284    1283    1285    1286
    1287    1286    1288    1287    1289    1290    1291    1290
    1292    1291    1293    1294    1295    1294    1296    1295
    1297    1298    1299    1298    1300    1299    1301    1302
    1303    1302    1304    1303    1305    1306    1307    1306
    1308    1307    1309    1310    1311    1310    1312    1311
    1313    1314    1315    1314    1316    1315    1317    1318
    1319    1318    1320    1319    1321    1322    1323    1322
    1324    1323    1325    1326    1327    1326    1328    1327
    1329    1330    1331    1330    1332    1331    1333    1334
    1335    1334    1336    1335    1337    1338    1339    1338
    1340    1339    1341    1342    1343    1342    1344    1343
    1345    1346    1347    1346    1348    1347    1349    1350
    1351    1350    1352    1351    1353    1354    1355    1354
    1356    1355    1357    1358    1359    1358    1360    1359
    1361    1362    1363    1362    1364    1363    1365    1366
    1367    1366    1368    1367    1369    1370    1371    1370
    1372    1371    1373    1374    1375    1374    1376    1375
    1377    1378    1379    1378    1380    1379    1381    1382
    1383    1382    1384    1383    1385    1386    1387    1386
    1388    1387    1389    1390    1391    1390    1392    1391
    1393    1394    1395    1394    1396    1395    1397    1398
    1399    1398    1400    1399    1401    1402    1403    1402
    1404    1403    1405    1406    1407    1406    1408    1407
    1409    1410    1411    1410    1412    1411    1413    1414
    1415    1414    1416    1415    1417    1418    1419    1418
    1420    1419    1421    1422    1423    1422    1424    1423
    1425    1426    1427    1426    1428    1427    1429    1430
    1431    1430    1432    1431    1433    1434    1435    1434
    1436    1435    1437    1438    1439    1438    1440    1439
    1441    1442    1443    1442    1444    1443    1445    1446
    1447    1446    1448    1447    1449    1450    1451    1450
    1452    1451    1453    1454    1455    1454    1456    1455
    1457    1458    1459    1458    1460    1459    1461    1462
    1463    1462    1464    1463    1465    1466    1467    1466
    1468    1467    1469    1470    1471    1470    1472    1471
    1473    1474    1475    1474    1476    1475    1477    1478
    1479    1478    1480    1479    1481    1482    1483    1482
    1484    1483    1485    1486    1487    1486    1488    1487
    1489    1490    1491    1490    1492    1491    1493    1494
    1495    1494    1496    1495    1497    1498    1499    1498
    1500    1499    1501    1502    1503    1502    1504    1503
    1505    1506    1507    1506    1508    1507    1509    1510
    1511    1510    1512    1511    1513    1514    1515    1514
    1516    1515    1517    1518    1519    1518    1520    1519
    1521    1522    1523    1522    1524    1523    1525    1526
    1527    1526    1528    1527    1529    1530    1531    1530
    1532    1531    1533    1534    1535    1534    1536    1535
    1537    1538    1539    1538    1540    1539    1541    1542
    1543    1542    1544    1543    1545    1546    1547    1546
    1548    1547    1549    1550    1551    1550    1552    1551
    1553    1554    1555    1554    1556    1555    1557    1558
    1559    1558    1560    1559    1561    1562    1563    1562
    1564    1563    1565    1566    1567    1566    1568    1567
    1569    1570    1571    1570    1572    1571    1573    1574
    1575    1574    1576    1575    1577    1578    1579    1578
    1580    1579    1581    1582    1583    1582    1584    1583
    1585    1586    1587    1586    1588    1587    1589    1590
    1591    1590    1592    1591    1593    1594    1595    1594
    1596    1595    1597    1598    1599    1598    1600    1599
    1601    1602    1603    1602    1604    1603    1605    1606
    1607    1606    1608    1607    1609    1610    1611    1610
    1612    1611    1613    1614    1615    1614    1616    1615
    1617    1618    1619    1618    1620    1619    1621    1622
    1623    1622    1624    1623    1625    1626    1627    1626
    1628    1627    1629    1630    1631    1630    1632    1631
    1633    1634    1635    1634    1636    1635    1637    1638
    1639    1638    1640    1639    1641    1642    1643    1642
    1644    1643    1645    1646    1647    1646    1648    1647
    1649    1650    1651    1650    1652    1651    1653    1654
    1655    1654    1656    1655    1657    1658    1659    1658
    1660    1659    1661    1662    1663    1662    1664    1663
    1665    1666    1667    1666    1668    1667    1669    1670
    1671    1670    1672    1671    1673    1674    1675    1674
    1676    1675    1677    1678    1679    1678    1680    1679
    1681    1682    1683    1682    1684    1683    1685    1686
    1687    1686    1688    1687    1689    1690    1691    1690
    1692    1691    1693    1694    1695    1694    1696    1695
    1697    1698    1699    1698    1700    1699    1701    1702
    1703    1702    1704    1703    1705    1706    1707    1706
    1708    1707    1709    1710    1711    1710    1712    1711
    1713    1714    1715    1714    1716    1715    1717    1718
    1719    1718    1720    1719    1721    1722    1723    1722
    1724    1723    1725    1726    1727    1726    1728    1727
    1729    1730    1731    1730    1732    1731    1733    1734
    1735    1734    1736    1735    1737    1738    1739    1738
    1740    1739    1741    1742    1743    1742    1744    1743
    1745    1746    1747    1746    1748    1747    1749    1750
    1751    1750    1752    1751    1753    1754    1755    1754
    1756    1755    1757    1758    1759    1758    1760    1759
    1761    1762    1763    1762    1764    1763    1765    1766
    1767    1766    1768    1767    1769    1770    1771    1770
    1772    1771    1773    1774    1775    1774    1776    1775
    1777    1778    1779    1778    1780    1779    1781    1782
    1783    1782    1784    1783    1785    1786    1787    1786
    1788    1787    1789    1790    1791    1790    1792    1791
    1793    1794    1795    1794    1796    1795    1797    1798
    1799    1798    1800    1799    1801    1802    1803    1802
    1804    1803    1805    1806    1807    1806    1808    1807
    1809    1810    1811    1810    1812    1811    1813    1814
    1815    1814    1816    1815    1817    1818    1819    1818
    1820    1819    1821    1822    1823    1822    1824    1823
    1825    1826    1827    1826    1828    1827    1829    1830
    1831    1830    1832    1831    1833    1834    1835    1834
    1836    1835    1837    1838    1839    1838    1840    1839
    1841    1842    1843    1842    1844    1843    1845    1846
    1847    1846    1848    1847    1849    1850    1851    1850
    1852    1851    1853    1854    1855    1854    1856    1855
    1857    1858    1859    1858    1860    1859    1861    1862
    1863    1862    1864    1863    1865    1866    1867    1866
    1868    1867    1869    1870    1871    1870    1872    1871
    1873    1874    1875    1874    1876    1875    1877    1878
    1879    1878    1880    1879    1881    1882    1883    1882
    1884    1883    1885    1886    1887    1886    1888    1887
    1889    1890    1891    1890    1892    1891    1893    1894
    1895    1894    1896    1895    1897    1898    1899    1898
    1900    1899    1901    1902    1903    1902    1904    1903
    1905    1906    1907    1906    1908    1907    1909    1910
    1911    1910    1912    1911    1913    1914    1915    1914
    1916    1915    1917    1918    1919    1918    1920    1919
    1921    1922    1923    1922    1924    1923    1925    1926
    1927    1926    1928    1927    1929    1930    1931    1930
    1932    1931    1933    1934    1935    1934    1936    1935
    1937    1938    1939    1938    1940    1939    1941    1942
    1943    1942    1944    1943    1945    1946    1947    1946
    1948    1947    1949    1950    1951    1950    1952    1951
    1953    1954    1955    1954    1956    1955    1957    1958
    1959    1958    1960    1959    1961    1962    1963    1962
    1964    1963    1965    1966    1967    1966    1968    1967
    1969    1970    1971    1970    1972    1971    1973    1974
    1975    1974    1976    1975    1977    1978    1979    1978
    1980    1979    1981    1982    1983    1982    1984    1983
    1985    1986    1987    1986    1988    1987    1989    1990
    1991    1990    1992    1991    1993    1994    1995    1994
    1996    1995    1997    1998    1999    1998    2000    1999
    2001    2002    2003    2002    2004    2003    2005    2006
    2007    2006    2008    2007    2009    2010    2011    2010
    2012    2011    2013    2014    2015    2014    2016    2015
    2017    2018    2019    2018    2020    2019    2021    2022
    2023    2022    2024    2023    2025    2026    2027    2026
    2028    2027    2029    2030    2031    2030    2032    2031
    2033    2034    2035    2034    2036    2035    2037    2038
    2039    2038    2040    2039    2041    2042    2043    2042
    2044    2043    2045    2046    2047    2046    2048    2047
    2049    2050    2051    2050    2052    2051    2053    2054
    2055    2054    2056    2055    2057    2058    2059    2058
    2060    2059    2061    2062    2063    2062    2064    2063
    2065    2066    2067    2066    2068    2067    2069    2070
    2071    2070    2072    2071    2073    2074    2075    2074
    2076    2075    2077    2078    2079    2078    2080    2079
    2081    2082    2083    2082    2084    2083    2085    2086
    2087    2086    2088    2087    2089    2090    2091    2090
    2092    2091    2093    2094    2095    2094    2096    2095
    2097    2098    2099    2098    2100    2099    2101    2102
    2103    2102    2104    2103    2105    2106    2107    2106
    2108    2107    2109    2110    2111    2110    2112    2111
    2113    2114    2115    2114    2116    2115    2117    2118
    2119    2118    2120    2119    2121    2122    2123    2122
    2124    2123    2125    2126    2127    2126    2128    2127
    2129    2130    2131    2130    2132    2131    2133    2134
    2135    2134    2136    2135    2137    2138    2139    2138
    2140    2139    2141    2142    2143    2142    2144    2143
    2145    2146    2147    2146    2148    2147    2149    2150
    2151    2150    2152    2151    2153    2154    2155    2154
    2156    2155    2157    2158    2159    2158    2160    2159
    2161    2162    2163    2162    2164    2163    2165    2166
    2167    2166    2168    2167    2169    2170    2171    2170
    2172    2171    2173    2174    2175    2174    2176    2175
    2177    2178    2179    2178    2180    2179    2181    2182
    2183    2182    2184    2183    2185    2186    2187    2186
    2188    2187    2189    2190    2191    2190    2192    2191
    2193    2194    2195    2194    2196    2195    2197    2198
    2199    2198    2200    2199    2201    2202    2203    2202
    2204    2203    2205    2206    2207    2206    2208    2207
    2209    2210    2211    2210    2212    2211    2213    2214
    2215    2214    2216    2215    2217    2218    2219    2218
    2220    2219    2221    2222    2223    2222    2224    2223
    2225    2226    2227    2226    2228    2227    2229    2230
    2231    2230    2232    2231    2233    2234    2235    2234
    2236    2235    2237    2238    2239    2238    2240    2239
    2241    2242    2243    2242    2244    2243    2245    2246
    2247    2246    2248    2247    2249    2250    2251    2250
    2252    2251    2253    2254    2255    2254    2256    2255
    2257    2258    2259    2258    2260    2259    2261    2262
    2263    2262    2264    2263    2265    2266    2267    2266
    2268    2267    2269    2270    2271    2270    2272    2271
    2273    2274    2275    2274    2276    2275    2277    2278
    2279    2278    2280    2279    2281    2282    2283    2282
    2284    2283    2285    2286    2287    2286    2288    2287
    2289    2290    2291    2290    2292    2291    2293    2294
    2295    2294    2296    2295    2297    2298    2299    2298
    2300    2299    2301    2302    2303    2302    2304    2303
    2305    2306    2307    2306    2308    2307    2309    2310
    2311    2310    2312    2311    2313    2314    2315    2314
    2316    2315    2317    2318    2319    2318    2320    2319
    2321    2322    2323    2322    2324    2323    2325    2326
    2327    2326    2328    2327    2329    2330    2331    2330
    2332    2331    2333    2334    2335    2334    2336    2335
    2337    2338    2339    2338    2340    2339    2341    2342
    2343    2342    2344    2343    2345    2346    2347    2346
    2348    2347    2349    2350    2351    2350    2352    2351
    2353    2354    2355    2354    2356    2355    2357    2358
    2359    2358    2360    2359    2361    2362    2363    2362
    2364    2363    2365    2366    2367    2366    2368    2367
    2369    2370    2371    2370    2372    2371    2373    2374
    2375    2374    2376    2375    2377    2378    2379    2378
    2380    2379    2381    2382    2383    2382    2384    2383
    2385    2386    2387    2386    2388    2387    2389    2390
    2391    2390    2392    2391    2393    2394    2395    2394
    2396    2395    2397    2398    2399    2398    2400    2399
    2401    2402    2403    2402    2404    2403    2405    2406
    2407    2406    2408    2407    2409    2410    2411    2410
    2412    2411    2413    2414    2415    2414    2416    2415
    2417    2418    2419    2418    2420    2419    2421    2422
    2423    2422    2424    2423    2425    2426    2427    2426
    2428    2427    2429    2430    2431    2430    2432    2431
    2433    2434    2435    2434    2436    2435    2437    2438
    2439    2438    2440    2439    2441    2442    2443    2442
    2444    2443    2445    2446    2447    2446    2448    2447
    2449    2450    2451    2450    2452    2451    2453    2454
    2455    2454    2456    2455    2457    2458    2459    2458
    2460    2459    2461    2462    2463    2462    2464    2463
    2465    2466    2467    2466    2468    2467    2469    2470
    2471    2470    2472    2471    2473    2474    2475    2474
    2476    2475    2477    2478    2479    2478    2480    2479
    2481    2482    2483    2482    2484    2483    2485    2486
    2487    2486    2488    2487    2489    2490    2491    2490
    2492    2491    2493    2494    2495    2494    2496    2495
    2497    2498    2499    2498    2500    2499    2501    2502
    2503    2502    2504    2503    2505    2506    2507    2506
    2508    2507    2509    2510    2511    2510    2512    2511
    2513    2514    2515    2514    2516    2515    2517    2518
    2519    2518    2520    2519    2521    2522    2523    2522
    2524    2523    2525    2526    2527    2526    2528    2527
    2529    2530    2531    2530    2532    2531    2533    2534
    2535    2534    2536    2535    2537    2538    2539    2538
    2540    2539    2541    2542    2543    2542    2544    2543
    2545    2546    2547    2546    2548    2547    2549    2550
    2551    2550    2552    2551    2553    2554    2555    2554
    2556    2555    2557    2558    2559    2558    2560    2559
    2561    2562    2563    2562    2564    2563    2565    2566
    2567    2566    2568    2567    2569    2570    2571    2570
    2572    2571    2573    2574    2575    2574    2576    2575
    2577    2578    2579    2578    2580    2579    2581    2582
    2583    2582    2584    2583    2585    2586    2587    2586
    2588    2587    2589    2590    2591    2590    2592    2591
    2593    2594    2595    2594    2596    2595    2597    2598
    2599    2598    2600    2599    2601    2602    2603    2602
    2604    2603    2605    2606    2607    2606    2608    2607
    2609    2610    2611    2610    2612    2611    2613    2614
    2615    2614    2616    2615    2617    2618    2619    2618
    2620    2619    2621    2622    2623    2622    2624    2623
    2625    2626    2627    2626    2628    2627    2629    2630
    2631    2630    2632    2631    2633    2634    2635    2634
    2636    2635    2637    2638    2639    2638    2640    2639
    2641    2642    2643    2642    2644    2643    2645    2646
    2647    2646    2648    2647    2649    2650    2651    2650
    2652    2651    2653    2654    2655    2654    2656    2655
    2657    2658    2659    2658    2660    2659    2661    2662
    2663    2662    2664    2663    2665    2666    2667    2666
    2668    2667    2669    2670    2671    2670    2672    2671
    2673    2674    2675    2674    2676    2675    2677    2678
    2679    2678    2680    2679    2681    2682    2683    2682
    2684    2683    2685    2686    2687    2686    2688    2687
    2689    2690    2691    2690    2692    2691    2693    2694
    2695    2694    2696    2695    2697    2698    2699    2698
    2700    2699    2701    2702    2703    2702    2704    2703
    2705    2706    2707    2706    2708    2707    2709    2710
    2711    2710    2712    2711    2713    2714    2715    2714
    2716    2715    2717    2718    2719    2718    2720    2719
    2721    2722    2723    2722    2724    2723    2725    2726
    2727    2726    2728    2727    2729    2730    2731    2730
    2732    2731    2733    2734    2735    2734    2736    2735
    2737    2738    2739    2738    2740    2739    2741    2742
    2743    2742    2744    2743    2745    2746    2747    2746
    2748    2747    2749    2750    2751    2750    2752    2751
    2753    2754    2755    2754    2756    2755    2757    2758
    2759    2758    2760    2759    2761    2762    2763    2762
    2764    2763    2765    2766    2767    2766    2768    2767
    2769    2770    2771    2770    2772    2771    2773    2774
    2775    2774    2776    2775    2777    2778    2779    2778
    2780    2779    2781    2782    2783    2782    2784    2783
    2785    2786    2787    2786    2788    2787    2789    2790
    2791    2790    2792    2791    2793    2794    2795    2794
    2796    2795    2797    2798    2799    2798    2800    2799
    2801    2802    2803    2802    2804    2803    2805    2806
    2807    2806    2808    2807    2809    2810    2811    2810
    2812    2811    2813    2814    2815    2814    2816    2815
    2817    2818    2819    2818    2820    2819    2821    2822
    2823    2822    2824    2823    2825    2826    2827    2826
    2828    2827    2829    2830    2831    2830    2832    2831
    2833    2834    2835    2834    2836    2835    2837    2838
    2839    2838    2840    2839    2841    2842    2843    2842
    2844    2843    2845    2846    2847    2846    2848    2847
    2849    2850    2851    2850    2852    2851    2853    2854
    2855    2854    2856    2855    2857    2858    2859    2858
    2860    2859    2861    2862    2863    2862    2864    2863
    2865    2866    2867    2866    2868    2867    2869    2870
    2871    2870    2872    2871    2873    2874    2875    2874
    2876    2875    2877    2878    2879    2878    2880    2879
    2881    2882    2883    2882    2884    2883    2885    2886
    2887    2886    2888    2887    2889    2890    2891    2890
    2892    2891    2893    2894    2895    2894    2896    2895
    2897    2898    2899    2898    2900    2899    2901    2902
    2903    2902    2904    2903    2905    2906    2907    2906
    2908    2907    2909    2910    2911    2910    2912    2911
    2913    2914    2915    2914    2916    2915    2917    2918
    2919    2918    2920    2919    2921    2922    2923    2922
    2924    2923    2925    2926    2927    2926    2928    2927
    2929    2930    2931    2930    2932    2931    2933    2934
    2935    2934    2936    2935    2937    2938    2939    2938
    2940    2939    2941    2942    2943    2942    2944    2943
    2945    2946    2947    2946    2948    2947    2949    2950
    2951    2950    2952    2951    2953    2954    2955    2954
    2956    2955    2957    2958    2959    2958    2960    2959
    2961    2962    2963    2962    2964    2963    2965    2966
    2967    2966    2968    2967    2969    2970    2971    2970
    2972    2971    2973    2974    2975    2974    2976    2975
    2977    2978    2979    2978    2980    2979    2981    2982
    2983    2982    2984    2983    2985    2986    2987    2986
    2988    2987    2989    2990    2991    2990    2992    2991
    2993    2994    2995    2994    2996    2995    2997    2998
    2999    2998    3000    2999    3001    3002    3003    3002
    3004    3003    3005    3006    3007    3006    3008    3007
    3009    3010    3011    3010    3012    3011    3013    3014
    3015    3014    3016    3015    3017    3018    3019    3018
    3020    3019    3021    3022    3023    3022    3024    3023
    3025    3026    3027    3026    3028    3027    3029    3030
    3031    3030    3032    3031    3033    3034    3035    3034
    3036    3035    3037    3038    3039    3038    3040    3039
    3041    3042    3043    3042    3044    3043    3045    3046
    3047    3046    3048    3047    3049    3050    3051    3050
    3052    3051    3053    3054    3055    3054    3056    3055
    3057    3058    3059    3058    3060    3059    3061    3062
    3063    3062    3064    3063    3065    3066    3067    3066
    3068    3067    3069    3070    3071    3070    3072    3071
    3073    3074    3075    3074    3076    3075    3077    3078
    3079    3078    3080    3079    3081    3082    3083    3082
    3084    3083    3085    3086    3087    3086    3088    3087
    3089    3090    3091    3090    3092    3091    3093    3094
    3095    3094    3096    3095    3097    3098    3099    3098
    3100    3099    3101    3102    3103    3102    3104    3103
    3105    3106    3107    3106    3108    3107    3109    3110
    3111    3110    3112    3111    3113    3114    3115    3114
    3116    3115    3117    3118    3119    3118    3120    3119
    3121    3122    3123    3122    3124    3123    3125    3126
    3127    3126    3128    3127    3129    3130    3131    3130
    3132    3131    3133    3134    3135    3134    3136    3135
    3137    3138    3139    3138    3140    3139    3141    3142
    3143    3142    3144    3143    3145    3146    3147    3146
    3148    3147    3149    3150    3151    3150    3152    3151
    3153    3154    3155    3154    3156    3155    3157    3158
    3159    3158    3160    3159    3161    3162    3163    3162
    3164    3163    3165    3166    3167    3166    3168    3167
    3169    3170    3171    3170    3172    3171    3173    3174
    3175    3174    3176    3175    3177    3178    3179    3178
    3180    3179    3181    3182    3183    3182    3184    3183
    3185    3186    3187    3186    3188    3187    3189    3190
    3191    3190    3192    3191    3193    3194    3195    3194
    3196    3195    3197    3198    3199    3198    3200    3199
    3201    3202    3203    3202    3204    3203    3205    3206
    3207    3206    3208    3207    3209    3210    3211    3210
    3212    3211    3213    3214    3215    3214    3216    3215
    3217    3218    3219    3218    3220    3219    3221    3222
    3223    3222    3224    3223    3225    3226    3227    3226
    3228    3227    3229    3230    3231    3230    3232    3231
    3233    3234    3235    3234    3236    3235    3237    3238
    3239    3238    3240    3239    3241    3242    3243    3242
    3244    3243    3245    3246    3247    3246    3248    3247
    3249    3250    3251    3250    3252    3251    3253    3254
    3255    3254    3256    3255    3257    3258    3259    3258
    3260    3259    3261    3262    3263    3262    3264    3263
    3265    3266    3267    3266    3268    3267    3269    3270
    3271    3270    3272    3271    3273    3274    3275    3274
    3276    3275    3277    3278    3279    3278    3280    3279
    3281    3282    3283    3282    3284    3283    3285    3286
    3287    3286    3288    3287    3289    3290    3291    3290
    3292    3291    3293    3294    3295    3294    3296    3295
    3297    3298    3299    3298    3300    3299    3301    3302
    3303    3302    3304    3303    3305    3306    3307    3306
    3308    3307    3309    3310    3311    3310    3312    3311
    3313    3314    3315    3314    3316    3315    3317    3318
    3319    3318    3320    3319    3321    3322    3323    3322
    3324    3323    3325    3326    3327    3326    3328    3327
    3329    3330    3331    3330    3332    3331    3333    3334
    3335    3334    3336    3335    3337    3338    3339    3338
    3340    3339    3341    3342    3343    3342    3344    3343
    3345    3346    3347    3346    3348    3347    3349    3350
    3351    3350    3352    3351    3353    3354    3355    3354
    3356    3355    3357    3358    3359    3358    3360    3359
    3361    3362    3363    3362    3364    3363    3365    3366
    3367    3366    3368    3367    3369    3370    3371    3370
    3372    3371    3373    3374    3375    3374    3376    3375
    3377    3378    3379    3378    3380    3379    3381    3382
    3383    3382    3384    3383    3385    3386    3387    3386
    3388    3387    3389    3390    3391    3390    3392    3391
    3393    3394    3395    3394    3396    3395    3397    3398
    3399    3398    3400    3399    3401    3402    3403    3402
    3404    3403    3405    3406    3407    3406    3408    3407
    3409    3410    3411    3410    3412    3411    3413    3414
    3415    3414    3416    3415    3417    3418    3419    3418
    3420    3419    3421    3422    3423    3422    3424    3423
    3425    3426    3427    3426    3428    3427    3429    3430
    3431    3430    3432    3431    3433    3434    3435    3434
    3436    3435    3437    3438    3439    3438    3440    3439
    3441    3442    3443    3442    3444    3443    3445    3446
    3447    3446    3448    3447    3449    3450    3451    3450
    3452    3451    3453    3454    3455    3454    3456    3455
    3457    3458    3459    3458    3460    3459    3461    3462
    3463    3462    3464    3463    3465    3466    3467    3466
    3468    3467    3469    3470    3471    3470    3472    3471
    3473    3474    3475    3474    3476    3475    3477    3478
    3479    3478    3480    3479    3481    3482    3483    3482
    3484    3483    3485    3486    3487    3486    3488    3487
    3489    3490    3491    3490    3492    3491    3493    3494
    3495    3494    3496    3495    3497    3498    3499    3498
    3500    3499    3501    3502    3503    3502    3504    3503
    3505    3506    3507    3506    3508    3507    3509    3510
    3511    3510    3512    3511    3513    3514    3515    3514
    3516    3515    3517    3518    3519    3518    3520    3519
    3521    3522    3523    3522    3524    3523    3525    3526
    3527    3526    3528    3527    3529    3530    3531    3530
    3532    3531    3533    3534    3535    3534    3536    3535
    3537    3538    3539    3538    3540    3539    3541    3542
    3543    3542    3544    3543    3545    3546    3547    3546
    3548    3547    3549    3550    3551    3550    3552    3551
    3553    3554    3555    3554    3556    3555    3557    3558
    3559    3558    3560    3559    3561    3562    3563    3562
    3564    3563    3565    3566    3567    3566    3568    3567
    3569    3570    3571    3570    3572    3571    3573    3574
    3575    3574    3576    3575    3577    3578    3579    3578
    3580    3579    3581    3582    3583    3582    3584    3583
    3585    3586    3587    3586    3588    3587    3589    3590
    3591    3590    3592    3591    3593    3594    3595    3594
    3596    3595    3597    3598    3599    3598    3600    3599
    3601    3602    3603    3602    3604    3603    3605    3606
    3607    3606    3608    3607    3609    3610    3611    3610
    3612    3611    3613    3614    3615    3614    3616    3615
    3617    3618    3619    3618    3620    3619    3621    3622
    3623    3622    3624    3623    3625    3626    3627    3626
    3628    3627    3629    3630    3631    3630    3632    3631
    3633    3634    3635    3634    3636    3635    3637    3638
    3639    3638    3640    3639    3641    3642    3643    3642
    3644    3643    3645    3646    3647    3646    3648    3647
    3649    3650    3651    3650    3652    3651    3653    3654
    3655    3654    3656    3655    3657    3658    3659    3658
    3660    3659    3661    3662    3663    3662    3664    3663
    3665    3666    3667    3666    3668    3667    3669    3670
    3671    3670    3672    3671    3673    3674    3675    3674
    3676    3675    3677    3678    3679    3678    3680    3679
    3681    3682    3683    3682    3684    3683    3685    3686
    3687    3686    3688    3687    3689    3690    3691    3690
    3692    3691    3693    3694    3695    3694    3696    3695
    3697    3698    3699    3698    3700    3699    3701    3702
    3703    3702    3704    3703    3705    3706    3707    3706
    3708    3707    3709    3710    3711    3710    3712    3711
    3713    3714    3715    3714    3716    3715    3717    3718
    3719    3718    3720    3719    3721    3722    3723    3722
    3724    3723    3725    3726    3727    3726    3728    3727
    3729    3730    3731    3730    3732    3731    3733    3734
    3735    3734    3736    3735    3737    3738    3739    3738
    3740    3739    3741    3742    3743    3742    3744    3743
    3745    3746    3747    3746    3748    3747    3749    3750
    3751    3750    3752    3751    3753    3754    3755    3754
    3756    3755    3757    3758    3759    3758    3760    3759
    3761    3762    3763    3762    3764    3763    3765    3766
    3767    3766    3768    3767    3769    3770    3771    3770
    3772    3771    3773    3774    3775    3774    3776    3775
    3777    3778    3779    3778    3780    3779    3781    3782
    3783    3782    3784    3783    3785    3786    3787    3786
    3788    3787    3789    3790    3791    3790    3792    3791
    3793    3794    3795    3794    3796    3795    3797    3798
    3799    3798    3800    3799    3801    3802    3803    3802
    3804    3803    3805    3806    3807    3806    3808    3807
    3809    3810    3811    3810    3812    3811    3813    3814
    3815    3814    3816    3815    3817    3818    3819    3818
    3820    3819    3821    3822    3823    3822    3824    3823
    3825    3826    3827    3826    3828    3827    3829    3830
    3831    3830    3832    3831    3833    3834    3835    3834
    3836    3835    3837    3838    3839    3838    3840    3839
    3841    3842    3843    3842    3844    3843    3845    3846
    3847    3846    3848    3847    3849    3850    3851    3850
    3852    3851    3853    3854    3855    3854    3856    3855
    3857    3858    3859    3858    3860    3859    3861    3862
    3863    3862    3864    3863    3865    3866    3867    3866
    3868    3867    3869    3870    3871    3870    3872    3871
    3873    3874    3875    3874    3876    3875    3877    3878
    3879    3878    3880    3879    3881    3882    3883    3882
    3884    3883    3885    3886    3887    3886    3888    3887
    3889    3890    3891    3890    3892    3891    3893    3894
    3895    3894    3896    3895    3897    3898    3899    3898
    3900    3899    3901    3902    3903    3902    3904    3903
    3905    3906    3907    3906    3908    3907    3909    3910
    3911    3910    3912    3911    3913    3914    3915    3914
    3916    3915    3917    3918    3919    3918    3920    3919
    3921    3922    3923    3922    3924    3923    3925    3926
    3927    3926    3928    3927    3929    3930    3931    3930
    3932    3931    3933    3934    3935    3934    3936    3935
    3937    3938    3939    3938    3940    3939    3941    3942
    3943    3942    3944    3943    3945    3946    3947    3946
    3948    3947    3949    3950    3951    3950    3952    3951
    3953    3954    3955    3954    3956    3955    3957    3958
    3959    3958    3960    3959    3961    3962    3963    3962
    3964    3963    3965    3966    3967    3966    3968    3967
    3969    3970    3971    3970    3972    3971    3973    3974
    3975    3974    3976    3975    3977    3978    3979    3978
    3980    3979    3981    3982    3983    3982    3984    3983
    3985    3986    3987    3986    3988    3987    3989    3990
    3991    3990    3992    3991    3993    3994    3995    3994
    3996    3995    3997    3998    3999    3998    4000    3999

    2000 !NTHETA: angles
       1       2       3       4       3       2       5       6       7
       8       7       6       9      10      11      12      11      10
      13      14      15      16      15      14      17      18      19
      20      19      18      21      22      23      24      23      22
      25      26      27      28      27      26      29      30      31
      32      31      30      33      34      35      36      35      34
      37      38      39      40      39      38      41      42      43
      44      43      42      45      46      47      48      47      46
      49      50      51      52      51      50      53      54      55
      56      55      54      57      58      59      60      59      58
      61      62      63      64      63      62      65      66      67
      68      67      66      69      70      71      72      71      70
      73      74      75      76      75      74      77      78      79
      80      79      78      81      82      83      84      83      82
      85      86      87      88      87      86      89      90      91
      92      91      90      93      94      95      96      95      94
      97      98      99     100      99      98     101     102     103
     104     103     102     105     106     107     108     107     106
     109     110     111     112     111     110     113     114     115
     116     115     114     117     118     119     120     119     118
     121     122     123     124     123     122     125     126     127
     128     127     126     129     130     131     132     131     130
     133     134     135     136     135     134     137     138     139
     140     139     138     141     142     143     144     143     142
     145     146     147     148     147     146     149     150     151
     152     151     150     153     154     155     156     155     154
     157     158     159     160     159     158     161     162     163
     164     163     162     165     166     167     168     167     166
     169     170     171     172     171     170     173     174     175
     176     175     174     177     178     179     180     179     178
     181     182     183     184     183     182     185     186     187
     188     187     186     189     190     191     192     191     190
     193     194     195     196     195     194     197     198     199
     200     199     198     201     202     203     204     203     202
     205     206     207     208     207     206     209     210     211
     212     211     210     213     214     215     216     215     214
     217     218     219     220     219     218     221     222     223
     224     223     222     225     226     227     228     227     226
     229     230     231     232     231     230     233     234     235
     236     235     234     237     238     239     240     239     238
     241     242     243     244     243     242     245     246     247
     248     247     246     249     250     251     252     251     250
     253     254     255     256     255     254     257     258     259
     260     259     258     261     262     263     264     263     262
     265     266     267     268     267     266     269     270     271
     272     271     270     273     274     275     276     275     274
     277     278     279     280     279     278     281     282     283
     284     283     282     285     286     287     288     287     286
     289     290     291     292     291     290     293     294     295
     296     295     294     297     298     299     300     299     298
     301     302     303     304     303     302     305     306     307
     308     307     306     309     310     311     312     311     310
     313     314     315     316     315     314     317     318     319
     320     319     318     321     322     323     324     323     322
     325     326     327     328     327     326     329     330     331
     332     331     330     333     334     335     336     335     334
     337     338     339     340     339     338     341     342     343
     344     343     342     345     346     347     348     347     346
     349     350     351     352     351     350     353     354     355
     356     355     354     357     358     359     360     359     358
     361     362     363     364     363     362     365     366     367
     368     367     366     369     370     371     372     371     370
     373     374     375     376     375     374     377     378     379
     380     379     378     381     382     383     384     383     382
     385     386     387     388     387     386     389     390     391
     392     391     390     393     394     395     396     395     394
     397     398     399     400     399     398     401     402     403
     404     403     402     405     406     407     408     407     406
     409     410     411     412     411     410     413     414     415
     416     415     414     417     418     419     420     419     418
     421     422     423     424     423     422     425     426     427
     428     427     426     429     430     431     432     431     430
     433     434     435     436     435     434     437     438     439
     440     439     438     441     442     443     444     443     442
     445     446     447     448     447     446     449     450     451
     452     451     450     453     454     455     456     455     454
     457     458     459     460     459     458     461     462     463
     464     463     462     465     466     467     468     467     466
     469     470     471     472     471     470     473     474     475
     476     475     474     477     478     479     480     479     478
     481     482     483     484     483     482     485     486     487
     488     487     486     489     490     491     492     491     490
     493     494     495     496     495     494     497     498     499
     500     499     498     501     502     503     504     503     502
     505     506     507     508     507     506     509     510     511
     512     511     510     513     514     515     516     515     514
     517     518     519     520     519     518     521     522     523
     524     523     522     525     526     527     528     527     526
     529     530     531     532     531     530     533     534     535
     536     535     534     537     538     539     540     539     538
     541     542     543     544     543     542     545     546     547
     548     547     546     549     550     551     552     551     550
     553     554     555     556     555     554     557     558     559
     560     559     558     561     562     563     564     563     562
     565     566     567     568     567     566     569     570     571
     572     571     570     573     574     575     576     575     574
     577     578     579     580     579     578     581     582     583
     584     583     582     585     586     587     588     587     586
     589     590     591     592     591     590     593     594     595
     596     595     594     597     598     599     600     599     598
     601     602     603     604     603     602     605     606     607
     608     607     606     609     610     611     612     611     610
     613     614     615     616     615     614     617     618     619
     620     619     618     621     622     623     624     623     622
     625     626     627     628     627     626     629     630     631
     632     631     630     633     634     635     636     635     634
     637     638     639     640     639     638     641     642     643
     644     643     642     645     646     647     648     647     646
     649     650     651     652     651     650     653     654     655
     656     655     654     657     658     659     660     659     658
     661     662     663     664     663     662     665     666     667
     668     667     666     669     670     671     672     671     670
     673     674     675     676     675     674     677     678     679
     680     679     678     681     682     683     684     683     682
     685     686     687     688     687     686     689     690     691
     692     691     690     693     694     695     696     695     694
     697     698     699     700     699     698     701     702     703
     704     703     702     705     706     707     708     707     706
     709     710     711     712     711     710     713     714     715
     716     715     714     717     718     719     720     719     718
     721     722     723     724     723     722     725     726     727
     728     727     726     729     730     731     732     731     730
     733     734     735     736     735     734     737     738     739
     740     739     738     741     742     743     744     743     742
     745     746     747     748     747     746     749     750     751
     752     751     750     753     754     755     756     755     754
     757     758     759     760     759     758     761     762     763
     764     763     762     765     766     767     768     767     766
     769     770     771     772     771     770     773     774     775
     776     775     774     777     778     779     780     779     778
     781     782     783     784     783     782     785     786     787
     788     787     786     789     790     791     792     791     790
     793     794     795     796     795     794     797     798     799
     800     799     798     801     802     803     804     803     802
     805     806     807     808     807     806     809     810     811
     812     811     810     813     814     815     816     815     814
     817     818     819     820     819     818     821     822     823
     824     823     822     825     826     827     828     827     826
     829     830     831     832     831     830     833     834     835
     836     835     834     837     838     839     840     839     838
     841     842     843     844     843     842     845     846     847
     848     847     846     849     850     851     852     851     850
     853     854     855     856     855     854     857     858     859
     860     859     858     861     862     863     864     863     862
     865     866     867     868     867     866     869     870     871
     872     871     870     873     874     875     876     875     874
     877     878     879     880     879     878     881     882     883
     884     883     882     885     886     887     888     887     886
     889     890     891     892     891     890     893     894     895
     896     895     894     897     898     899     900     899     898
     901     902     903     904     903     902     905     906     907
     908     907     906     909     910     911     912     911     910
     913     914     915     916     915     914     917     918     919
     920     919     918     921     922     923     924     923     922
     925     926     927     928     927     926     929     930     931
     932     931     930     933     934     935     936     935     934
     937     938     939     940     939     938     941     942     943
     944     943     942     945     946     947     948     947     946
     949     950     951     952     951     950     953     954     955
     956     955     954     957     958     959     960     959     958
     961     962     963     964     963     962     965     966     967
     968     967     966     969     970     971     972     971     970
     973     974     975     976     975     974     977     978     979
     980     979     978     981     982     983     984     983     982
     985     986     987     988     987     986     989     990     991
     992     991     990     993     994     995     996     995     994
     997     998     999    1000     999     998    1001    1002    1003
    1004    1003    1002    1005    1006    1007    1008    1007    1006
    1009    1010    1011    1012    1011    1010    1013    1014    1015
    1016    1015    1014    1017    1018    1019    1020    1019    1018
    1021    1022    1023    1024    1023    1022    1025    1026    1027
    1028    1027    1026    1029    1030    1031    1032    1031    1030
    1033    1034    1035    1036    1035    1034    1037    1038    1039
    1040    1039    1038    1041    1042    1043    1044    1043    1042
    1045    1046    1047    1048    1047    1046    1049    1050    1051
    1052    1051    1050    1053    1054    1055    1056    1055    1054
    1057    1058    1059    1060    1059    1058    1061    1062    1063
    1064    1063    1062    1065    1066    1067    1068    1067    1066
    1069    1070    1071    1072    1071    1070    1073    1074    1075
    1076    1075    1074    1077    1078    1079    1080    1079    1078
    1081    1082    1083    1084    1083    1082    1085    1086    1087
    1088    1087    1086    1089    1090    1091    1092    1091    1090
    1093    1094    1095    1096    1095    1094    1097    1098    1099
    1100    1099    1098    1101    1102    1103    1104    1103    1102
    1105    1106    1107    1108    1107    1106    1109    1110    1111
    1112    1111    1110    1113    1114    1115    1116    1115    1114
    1117    1118    1119    1120    1119    1118    1121    1122    1123
    1124    1123    1122    1125    1126    1127    1128    1127    1126
    1129    1130    1131    1132    1131    1130    1133    1134    1135
    1136    1135    1134    1137    1138    1139    1140    1139    1138
    1141    1142    1143    1144    1143    1142    1145    1146    1147
    1148    1147    1146    1149    1150    1151    1152    1151    1150
    1153    1154    1155    1156    1155    1154    1157    1158    1159
    1160    1159    1158    1161    1162    1163    1164    1163    1162
    1165    1166    1167    1168    1167    1166    1169    1170    1171
    1172    1171    1170    1173    1174    1175    1176    1175    1174
    1177    1178    1179    1180    1179    1178    1181    1182    1183
    1184    1183    1182    1185    1186    1187    1188    1187    1186
    1189    1190    1191    1192    1191    1190    1193    1194    1195
    1196    1195    1194    1197    1198    1199    1200    1199    1198
    1201    1202    1203    1204    1203    1202    1205    1206    1207
    1208    1207    1206    1209    1210    1211    1212    1211    1210
    1213    1214    1215    1216    1215    1214    1217    1218    1219
    1220    1219    1218    1221    1222    1223    1224    1223    1222
    1225    1226    1227    1228    1227    1226    1229    1230    1231
    1232    1231    1230    1233    1234    1235    1236    1235    1234
    1237    1238    1239    1240    1239    1238    1241    1242    1243
    1244    1243    1242    1245    1246    1247    1248    1247    1246
    1249    1250    1251    1252    1251    1250    1253    1254    1255
    1256    1255    1254    1257    1258    1259    1260    1259    1258
    1261    1262    1263    1264    1263    1262    1265    1266    1267
    1268    1267    1266    1269    1270    1271    1272    1271    1270
    1273    1274    1275    1276    1275    1274    1277    1278    1279
    1280    1279    1278    1281    1282    1283    1284    1283    1282
    1285    1286    1287    1288    1287    1286    1289    1290    1291
    1292    1291    1290    1293    1294    1295    1296    1295    1294
    1297    1298    1299    1300    1299    1298    1301    1302    1303
    1304    1303    1302    1305    1306    1307    1308    1307    1306
    1309    1310    1311    1312    1311    1310    1313    1314    1315
    1316    1315    1314    1317    1318    1319    1320    1319    1318
    1321    1322    1323    1324    1323    1322    1325    1326    1327
    1328    1327    1326    1329    1330    1331    1332    1331    1330
    1333    1334    1335    1336    1335    1334    1337    1338    1339
    1340    1339    1338    1341    1342    1343    1344    1343    1342
    1345    1346    1347    1348    1347    1346    1349    1350    1351
    1352    1351    1350    1353    1354    1355    1356    1355    1354
    1357    1358    1359    1360    1359    1358    1361    1362    1363
    1364    1363    1362    1365    1366    1367    1368    1367    1366
    1369    1370    1371    1372    1371    1370    1373    1374    1375
    1376    1375    1374    1377    1378    1379    1380    1379    1378
    1381    1382    1383    1384    1383    1382    1385    1386    1387
    1388    1387    1386    1389    1390    1391    1392    1391    1390
    1393    1394    1395    1396    1395    1394    1397    1398    1399
    1400    1399    1398    1401    1402    1403    1404    1403    1402
    1405    1406    1407    1408    1407    1406    1409    1410    1411
    1412    1411    1410    1413    1414    1415    1416    1415    1414
    1417    1418    1419    1420    1419    1418    1421    1422    1423
    1424    1423    1422    1425    1426    1427    1428    1427    1426
    1429    1430    1431    1432    1431    1430    1433    1434    1435
    1436    1435    1434    1437    1438    1439    1440    1439    1438
    1441    1442    1443    1444    1443    1442    1445    1446    1447
    1448    1447    1446    1449    1450    1451    1452    1451    1450
    1453    1454    1455    1456    1455    1454    1457    1458    1459
    1460    1459    1458    1461    1462    1463    1464    1463    1462
    1465    1466    1467    1468    1467    1466    1469    1470    1471
    1472    1471    1470    1473    1474    1475    1476    1475    1474
    1477    1478    1479    1480    1479    1478    1481    1482    1483
    1484    1483    1482    1485    1486    1487    1488    1487    1486
    1489    1490    1491    1492    1491    1490    1493    1494    1495
    1496    1495    1494    1497    1498    1499    1500    1499    1498
    1501    1502    1503    1504    1503    1502    1505    1506    1507
    1508    1507    1506    1509    1510    1511    1512    1511    1510
    1513    1514    1515    1516    1515    1514    1517    1518    1519
    1520    1519    1518    1521    1522    1523    1524    1523    1522
    1525    1526    1527    1528    1527    1526    1529    1530    1531
    1532    1531    1530    1533    1534    1535    1536    1535    1534
    1537    1538    1539    1540    1539    1538    1541    1542    1543
    1544    1543    1542    1545    1546    1547    1548    1547    1546
    1549    1550    1551    1552    1551    1550    1553    1554    1555
    1556    1555    1554    1557    1558    1559    1560    1559    1558
    1561    1562    1563    1564    1563    1562    1565    1566    1567
    1568    1567    1566    1569    1570    1571    1572    1571    1570
    1573    1574    1575    1576    1575    1574    1577    1578    1579
    1580    1579    1578    1581    1582    1583    1584    1583    1582
    1585    1586    1587    1588    1587    1586    1589    1590    1591
    1592    1591    1590    1593    1594    1595    1596    1595    1594
    1597    1598    1599    1600    1599    1598    1601    1602    1603
    1604    1603    1602    1605    1606    1607    1608    1607    1606
    1609    1610    1611    1612    1611    1610    1613    1614    1615
    1616    1615    1614    1617    1618    1619    1620    1619    1618
    1621    1622    1623    1624    1623    1622    1625    1626    1627
    1628    1627    1626    1629    1630    1631    1632    1631    1630
    1633    1634    1635    1636    1635    1634    1637    1638    1639
    1640    1639    1638    1641    1642    1643    1644    1643    1642
    1645    1646    1647    1648    1647    1646    1649    1650    1651
    1652    1651    1650    1653    1654    1655    1656    1655    1654
    1657    1658    1659    1660    1659    1658    1661    1662    1663
    1664    1663    1662    1665    1666    1667    1668    1667    1666
    1669    1670    1671    1672    1671    1670    1673    1674    1675
    1676    1675    1674    1677    1678    1679    1680    1679    1678
    1681    1682    1683    1684    1683    1682    1685    1686    1687
    1688    1687    1686    1689    1690    1691    1692    1691    1690
    1693    1694    1695    1696    1695    1694    1697    1698    1699
    1700    1699    1698    1701    1702    1703    1704    1703    1702
    1705    1706    1707    1708    1707    1706    1709    1710    1711
    1712    1711    1710    1713    1714    1715    1716    1715    1714
    1717    1718    1719    1720    1719    1718    1721    1722    1723
    1724    1723    1722    1725    1726    1727    1728    1727    1726
    1729    1730    1731    1732    1731    1730    1733    1734    1735
    1736    1735    1734    1737    1738    1739    1740    1739    1738
    1741    1742    1743    1744    1743    1742    1745    1746    1747
    1748    1747    1746    1749    1750    1751    1752    1751    1750
    1753    1754    1755    1756    1755    1754    1757    1758    1759
    1760    1759    1758    1761    1762    1763    1764    1763    1762
    1765    1766    1767    1768    1767    1766    1769    1770    1771
    1772    1771    1770    1773    1774    1775    1776    1775    1774
    1777    1778    1779    1780    1779    1778    1781    1782    1783
    1784    1783    1782    1785    1786    1787    1788    1787    1786
    1789    1790    1791    1792    1791    1790    1793    1794    1795
    1796    1795    1794    1797    1798    1799    1800    1799    1798
    1801    1802    1803    1804    1803    1802    1805    1806    1807
    1808    1807    1806    1809    1810    1811    1812    1811    1810
    1813    1814    1815    1816    1815    1814    1817    1818    1819
    1820    1819    1818    1821    1822    1823    1824    1823    1822
    1825    1826    1827    1828    1827    1826    1829    1830    1831
    1832    1831    1830    1833    1834    1835    1836    1835    1834
    1837    1838    1839    1840    1839    1838    1841    1842    1843
    1844    1843    1842    1845    1846    1847    1848    1847    1846
    1849    1850    1851    1852    1851    1850    1853    1854    1855
    1856    1855    1854    1857    1858    1859    1860    1859    1858
    1861    1862    1863    1864    1863    1862    1865    1866    1867
    1868    1867    1866    1869    1870    1871    1872    1871    1870
    1873    1874    1875    1876    1875    1874    1877    1878    1879
    1880    1879    1878    1881    1882    1883    1884    1883    1882
    1885    1886    1887    1888    1887    1886    1889    1890    1891
    1892    1891    1890    1893    1894    1895    1896    1895    1894
    1897    1898    1899    1900    1899    1898    1901    1902    1903
    1904    1903    1902    1905    1906    1907    1908    1907    1906
    1909    1910    1911    1912    1911    1910    1913    1914    1915
    1916    1915    1914    1917    1918    1919    1920    1919    1918
    1921    1922    1923    1924    1923    1922    1925    1926    1927
    1928    1927    1926    1929    1930    1931    1932    1931    1930
    1933    1934    1935    1936    1935    1934    1937    1938    1939
    1940    1939    1938    1941    1942    1943    1944    1943    1942
    1945    1946    1947    1948    1947    1946    1949    1950    1951
    1952    1951    1950    1953    1954    1955    1956    1955    1954
    1957    1958    1959    1960    1959    1958    1961    1962    1963
    1964    1963    1962    1965    1966    1967    1968    1967    1966
    1969    1970    1971    1972    1971    1970    1973    1974    1975
    1976    1975    1974    1977    1978    1979    1980    1979    1978
    1981    1982    1983    1984    1983    1982    1985    1986    1987
    1988    1987    1986    1989    1990    1991    1992    1991    1990
    1993    1994    1995    1996    1995    1994    1997    1998    1999
    2000    1999    1998    2001    2002    2003    2004    2003    2002
    2005    2006    2007    2008    2007    2006    2009    2010    2011
    2012    2011    2010    2013    2014    2015    2016    2015    2014
    2017    2018    2019    2020    2019    2018    2021    2022    2023
    2024    2023    2022    2025    2026    2027    2028    2027    2026
    2029    2030    2031    2032    2031    2030    2033    2034    2035
    2036    2035    2034    2037    2038    2039    2040    2039    2038
    2041    2042    2043    2044    2043    2042    2045    2046    2047
    2048    2047    2046    2049    2050    2051    2052    2051    2050
    2053    2054    2055    2056    2055    2054    2057    2058    2059
    2060    2059    2058    2061    2062    2063    2064    2063    2062
    2065    2066    2067    2068    2067    2066    2069    2070    2071
    2072    2071    2070    2073    2074    2075    2076    2075    2074
    2077    2078    2079    2080    2079    2078    2081    2082    2083
    2084    2083    2082    2085    2086    2087    2088    2087    2086
    2089    2090    2091    2092    2091    2090    2093    2094    2095
    2096    2095    2094    2097    2098    2099    2100    2099    2098
    2101    2102    2103    2104    2103    2102    2105    2106    2107
    2108    2107    2106    2109    2110    2111    2112    2111    2110
    2113    2114    2115    2116    2115    2114    2117    2118    2119
    2120    2119    2118    2121    2122    2123    2124    2123    2122
    2125    2126    2127    2128    2127    2126    2129    2130    2131
    2132    2131    2130    2133    2134    2135    2136    2135    2134
    2137    2138    2139    2140    2139    2138    2141    2142    2143
    2144    2143    2142    2145    2146    2147    2148    2147    2146
    2149    2150    2151    2152    2151    2150    2153    2154    2155
    2156    2155    2154    2157    2158    2159    2160    2159    2158
    2161    2162    2163    2164    2163    2162    2165    2166    2167
    2168    2167    2166    2169    2170    2171    2172    2171    2170
    2173    2174    2175    2176    2175    2174    2177    2178    2179
    2180    2179    2178    2181    2182    2183    2184    2183    2182
    2185    2186    2187    2188    2187    2186    2189    2190    2191
    2192    2191    2190    2193    2194    2195    2196    2195    2194
    2197    2198    2199    2200    2199    2198    2201    2202    2203
    2204    2203    2202    2205    2206    2207    2208    2207    2206
    2209    2210    2211    2212    2211    2210    2213    2214    2215
    2216    2215    2214    2217    2218    2219    2220    2219    2218
    2221    2222    2223    2224    2223    2222    2225    2226    2227
    2228    2227    2226    2229    2230    2231    2232    2231    2230
    2233    2234    2235    2236    2235    2234    2237    2238    2239
    2240    2239    2238    2241    2242    2243    2244    2243    2242
    2245    2246    2247    2248    2247    2246    2249    2250    2251
    2252    2251    2250    2253    2254    2255    2256    2255    2254
    2257    2258    2259    2260    2259    2258    2261    2262    2263
    2264    2263    2262    2265    2266    2267    2268    2267    2266
    2269    2270    2271    2272    2271    2270    2273    2274    2275
    2276    2275    2274    2277    2278    2279    2280    2279    2278
    2281    2282    2283    2284    2283    2282    2285    2286    2287
    2288    2287    2286    2289    2290    2291    2292    2291    2290
    2293    2294    2295    2296    2295    2294    2297    2298    2299
    2300    2299    2298    2301    2302    2303    2304    2303    2302
    2305    2306    2307    2308    2307    2306    2309    2310    2311
    2312    2311    2310    2313    2314    2315    2316    2315    2314
    2317    2318    2319    2320    2319    2318    2321    2322    2323
    2324    2323    2322    2325    2326    2327    2328    2327    2326
    2329    2330    2331    2332    2331    2330    2333    2334    2335
    2336    2335    2334    2337    2338    2339    2340    2339    2338
    2341    2342    2343    2344    2343    2342    2345    2346    2347
    2348    2347    2346    2349    2350    2351    2352    2351    2350
    2353    2354    2355    2356    2355    2354    2357    2358    2359
    2360    2359    2358    2361    2362    2363    2364    2363    2362
    2365    2366    2367    2368    2367    2366    2369    2370    2371
    2372    2371    2370    2373    2374    2375    2376    2375    2374
    2377    2378    2379    2380    2379    2378    2381    2382    2383
    2384    2383    2382    2385    2386    2387    2388    2387    2386
    2389    2390    2391    2392    2391    2390    2393    2394    2395
    2396    2395    2394    2397    2398    2399    2400    2399    2398
    2401    2402    2403    2404    2403    2402    2405    2406    2407
    2408    2407    2406    2409    2410    2411    2412    2411    2410
    2413    2414    2415    2416    2415    2414    2417    2418    2419
    2420    2419    2418    2421    2422    2423    2424    2423    2422
    2425    2426    2427    2428    2427    2426    2429    2430    2431
    2432    2431    2430    2433    2434    2435    2436    2435    2434
    2437    2438    2439    2440    2439    2438    2441    2442    2443
    2444    2443    2442    2445    2446    2447    2448    2447    2446
    2449    2450    2451    2452    2451    2450    2453    2454    2455
    2456    2455    2454    2457    2458    2459    2460    2459    2458
    2461    2462    2463    2464    2463    2462    2465    2466    2467
    2468    2467    2466    2469    2470    2471    2472    2471    2470
    2473    2474    2475    2476    2475    2474    2477    2478    2479
    2480    2479    2478    2481    2482    2483    2484    2483    2482
    2485    2486    2487    2488    2487    2486    2489    2490    2491
    2492    2491    2490    2493    2494    2495    2496    2495    2494
    2497    2498    2499    2500    2499    2498    2501    2502    2503
    2504    2503    2502    2505    2506    2507    2508    2507    2506
    2509    2510    2511    2512    2511    2510    2513    2514    2515
    2516    2515    2514    2517    2518    2519    2520    2519    2518
    2521    2522    2523    2524    2523    2522    2525    2526    2527
    2528    2527    2526    2529    2530    2531    2532    2531    2530
    2533    2534    2535    2536    2535    2534    2537    2538    2539
    2540    2539    2538    2541    2542    2543    2544    2543    2542
    2545    2546    2547    2548    2547    2546    2549    2550    2551
    2552    2551    2550    2553    2554    2555    2556    2555    2554
    2557    2558    2559    2560    2559    2558    2561    2562    2563
    2564    2563    2562    2565    2566    2567    2568    2567    2566
    2569    2570    2571    2572    2571    2570    2573    2574    2575
    2576    2575    2574    2577    2578    2579    2580    2579    2578
    2581    2582    2583    2584    2583    2582    2585    2586    2587
    2588    2587    2586    2589    2590    2591    2592    2591    2590
    2593    2594    2595    2596    2595    2594    2597    2598    2599
    2600    2599    2598    2601    2602    2603    2604    2603    2602
    2605    2606    2607    2608    2607    2606    2609    2610    2611
    2612    2611    2610    2613    2614    2615    2616    2615    2614
    2617    2618    2619    2620    2619    2618    2621    2622    2623
    2624    2623    2622    2625    2626    2627    2628    2627    2626
    2629    2630    2631    2632    2631    2630    2633    2634    2635
    2636    2635    2634    2637    2638    2639    2640    2639    2638
    2641    2642    2643    2644    2643    2642    2645    2646    2647
    2648    2647    2646    2649    2650    2651    2652    2651    2650
    2653    2654    2655    2656    2655    2654    2657    2658    2659
    2660    2659    2658    2661    2662    2663    2664    2663    2662
    2665    2666    2667    2668    2667    2666    2669    2670    2671
    2672    2671    2670    2673    2674    2675    2676    2675    2674
    2677    2678    2679    2680    2679    2678    2681    2682    2683
    2684    2683    2682    2685    2686    2687    2688    2687    2686
    2689    2690    2691    2692    2691    2690    2693    2694    2695
    2696    2695    2694    2697    2698    2699    2700    2699    2698
    2701    2702    2703    2704    2703    2702    2705    2706    2707
    2708    2707    2706    2709    2710    2711    2712    2711    2710
    2713    2714    2715    2716    2715    2714    2717    2718    2719
    2720    2719    2718    2721    2722    2723    2724    2723    2722
    2725    2726    2727    2728    2727    2726    2729    2730    2731
    2732    2731    2730    2733    2734    2735    2736    2735    2734
    2737    2738    2739    2740    2739    2738    2741    2742    2743
    2744    2743    2742    2745    2746    2747    2748    2747    2746
    2749    2750    2751    2752    2751    2750    2753    2754    2755
    2756    2755    2754    2757    2758    2759    2760    2759    2758
    2761    2762    2763    2764    2763    2762    2765    2766    2767
    2768    2767    2766    2769    2770    2771    2772    2771    2770
    2773    2774    2775    2776    2775    2774    2777    2778    2779
    2780    2779    2778    2781    2782    2783    2784    2783    2782
    2785    2786    2787    2788    2787    2786    2789    2790    2791
    2792    2791    2790    2793    2794    2795    2796    2795    2794
    2797    2798    2799    2800    2799    2798    2801    2802    2803
    2804    2803    2802    2805    2806    2807    2808    2807    2806
    2809    2810    2811    2812    2811    2810    2813    2814    2815
    2816    2815    2814    2817    2818    2819    2820    2819    2818
    2821    2822    2823    2824    2823    2822    2825    2826    2827
    2828    2827    2826    2829    2830    2831    2832    2831    2830
    2833    2834    2835    2836    2835    2834    2837    2838    2839
    2840    2839    2838    2841    2842    2843    2844    2843    2842
    2845    2846    2847    2848    2847    2846    2849    2850    2851
    2852    2851    2850    2853    2854    2855    2856    2855    2854
    2857    2858    2859    2860    2859    2858    2861    2862    2863
    2864    2863    2862    2865    2866    2867    2868    2867    2866
    2869    2870    2871    2872    2871    2870    2873    2874    2875
    2876    2875    2874    2877    2878    2879    2880    2879    2878
    2881    2882    2883    2884    2883    2882    2885    2886    2887
    2888    2887    2886    2889    2890    2891    2892    2891    2890
    2893    2894    2895    2896    2895    2894    2897    2898    2899
    2900    2899    2898    2901    2902    2903    2904    2903    2902
    2905    2906    2907    2908    2907    2906    2909    2910    2911
    2912    2911    2910    2913    2914    2915    2916    2915    2914
    2917    2918    2919    2920    2919    2918    2921    2922    2923
    2924    2923    2922    2925    2926    2927    2928    2927    2926
    2929    2930    2931    2932    2931    2930    2933    2934    2935
    2936    2935    2934    2937    2938    2939    2940    2939    2938
    2941    2942    2943    2944    2943    2942    2945    2946    2947
    2948    2947    2946    2949    2950    2951    2952    2951    2950
    2953    2954    2955    2956    2955    2954    2957    2958    2959
    2960    2959    2958    2961    2962    2963    2964    2963    2962
    2965    2966    2967    2968    2967    2966    2969    2970    2971
    2972    2971    2970    2973    2974    2975    2976    2975    2974
    2977    2978    2979    2980    2979    2978    2981    2982    2983
    2984    2983    2982    2985    2986    2987    2988    2987    2986
    2989    2990    2991    2992    2991    2990    2993    2994    2995
    2996    2995    2994    2997    2998    2999    3000    2999    2998
    3001    3002    3003    3004    3003    3002    3005    3006    3007
    3008    3007    3006    3009    3010    3011    3012    3011    3010
    3013    3014    3015    3016    3015    3014    3017    3018    3019
    3020    3019    3018    3021    3022    3023    3024    3023    3022
    3025    3026    3027    3028    3027    3026    3029    3030    3031
    3032    3031    3030    3033    3034    3035    3036    3035    3034
    3037    3038    3039    3040    3039    3038    3041    3042    3043
    3044    3043    3042    3045    3046    3047    3048    3047    3046
    3049    3050    3051    3052    3051    3050    3053    3054    3055
    3056    3055    3054    3057    3058    3059    3060    3059    3058
    3061    3062    3063    3064    3063    3062    3065    3066    3067
    3068    3067    3066    3069    3070    3071    3072    3071    3070
    3073    3074    3075    3076    3075    3074    3077    3078    3079
    3080    3079    3078    3081    3082    3083    3084    3083    3082
    3085    3086    3087    3088    3087    3086    3089    3090    3091
    3092    3091    3090    3093    3094    3095    3096    3095    3094
    3097    3098    3099    3100    3099    3098    3101    3102    3103
    3104    3103    3102    3105    3106    3107    3108    3107    3106
    3109    3110    3111    3112    3111    3110    3113    3114    3115
    3116    3115    3114    3117    3118    3119    3120    3119    3118
    3121    3122    3123    3124    3123    3122    3125    3126    3127
    3128    3127    3126    3129    3130    3131    3132    3131    3130
    3133    3134    3135    3136    3135    3134    3137    3138    3139
    3140    3139    3138    3141    3142    3143    3144    3143    3142
    3145    3146    3147    3148    3147    3146    3149    3150    3151
    3152    3151    3150    3153    3154    3155    3156    3155    3154
    3157    3158    3159    3160    3159    3158    3161    3162    3163
    3164    3163    3162    3165    3166    3167    3168    3167    3166
    3169    3170    3171    3172    3171    3170    3173    3174    3175
    3176    3175    3174    3177    3178    3179    3180    3179    3178
    3181    3182    3183    3184    3183    3182    3185    3186    3187
    3188    3187    3186    3189    3190    3191    3192    3191    3190
    3193    3194    3195    3196    3195    3194    3197    3198    3199
    3200    3199    3198    3201    3202    3203    3204    3203    3202
    3205    3206    3207    3208    3207    3206    3209    3210    3211
    3212    3211    3210    3213    3214    3215    3216    3215    3214
    3217    3218    3219    3220    3219    3218    3221    3222    3223
    3224    3223    3222    3225    3226    3227    3228    3227    3226
    3229    3230    3231    3232    3231    3230    3233    3234    3235
    3236    3235    3234    3237    3238    3239    3240    3239    3238
    3241    3242    3243    3244    3243    3242    3245    3246    3247
    3248    3247    3246    3249    3250    3251    3252    3251    3250
    3253    3254    3255    3256    3255    3254    3257    3258    3259
    3260    3259    3258    3261    3262    3263    3264    3263    3262
    3265    3266    3267    3268    3267    3266    3269    3270    3271
    3272    3271    3270    3273    3274    3275    3276    3275    3274
    3277    3278    3279    3280    3279    3278    3281    3282    3283
    3284    3283    3282    3285    3286    3287    3288    3287    3286
    3289    3290    3291    3292    3291    3290    3293    3294    3295
    3296    3295    3294    3297    3298    3299    3300    3299    3298
    3301    3302    3303    3304    3303    3302    3305    3306    3307
    3308    3307    3306    3309    3310    3311    3312    3311    3310
    3313    3314    3315    3316    3315    3314    3317    3318    3319
    3320    3319    3318    3321    3322    3323    3324    3323    3322
    3325    3326    3327    3328    3327    3326    3329    3330    3331
    3332    3331    3330    3333    3334    3335    3336    3335    3334
    3337    3338    3339    3340    3339    3338    3341    3342    3343
    3344    3343    3342    3345    3346    3347    3348    3347    3346
    3349    3350    3351    3352    3351    3350    3353    3354    3355
    3356    3355    3354    3357    3358    3359    3360    3359    3358
    3361    3362    3363    3364    3363    3362    3365    3366    3367
    3368    3367    3366    3369    3370    3371    3372    3371    3370
    3373    3374    3375    3376    3375    3374    3377    3378    3379
    3380    3379    3378    3381    3382    3383    3384    3383    3382
    3385    3386    3387    3388    3387    3386    3389    3390    3391
    3392    3391    3390    3393    3394    3395    3396    3395    3394
    3397    3398    3399    3400    3399    3398    3401    3402    3403
    3404    3403    3402    3405    3406    3407    3408    3407    3406
    3409    3410    3411    3412    3411    3410    3413    3414    3415
    3416    3415    3414    3417    3418    3419    3420    3419    3418
    3421    3422    3423    3424    3423    3422    3425    3426    3427
    3428    3427    3426    3429    3430    3431    3432    3431    3430
    3433    3434    3435    3436    3435    3434    3437    3438    3439
    3440    3439    3438    3441    3442    3443    3444    3443    3442
    3445    3446    3447    3448    3447    3446    3449    3450    3451
    3452    3451    3450    3453    3454    3455    3456    3455    3454
    3457    3458    3459    3460    3459    3458    3461    3462    3463
    3464    3463    3462    3465    3466    3467    3468    3467    3466
    3469    3470    3471    3472    3471    3470    3473    3474    3475
    3476    3475    3474    3477    3478    3479    3480    3479    3478
    3481    3482    3483    3484    3483    3482    3485    3486    3487
    3488    3487    3486    3489    3490    3491    3492    3491    3490
    3493    3494    3495    3496    3495    3494    3497    3498    3499
    3500    3499    3498    3501    3502    3503    3504    3503    3502
    3505    3506    3507    3508    3507    3506    3509    3510    3511
    3512    3511    3510    3513    3514    3515    3516    3515    3514
    3517    3518    3519    3520    3519    3518    3521    3522    3523
    3524    3523    3522    3525    3526    3527    3528    3527    3526
    3529    3530    3531    3532    3531    3530    3533    3534    3535
    3536    3535    3534    3537    3538    3539    3540    3539    3538
    3541    3542    3543    3544    3543    3542    3545    3546    3547
    3548    3547    3546    3549    3550    3551    3552    3551    3550
    3553    3554    3555    3556    3555    3554    3557    3558    3559
    3560    3559    3558    3561    3562    3563    3564    3563    3562
    3565    3566    3567    3568    3567    3566    3569    3570    3571
    3572    3571    3570    3573    3574    3575    3576    3575    3574
    3577    3578    3579    3580    3579    3578    3581    3582    3583
    3584    3583    3582    3585    3586    3587    3588    3587    3586
    3589    3590    3591    3592    3591    3590    3593    3594    3595
    3596    3595    3594    3597    3598    3599    3600    3599    3598
    3601    3602    3603    3604    3603    3602    3605    3606    3607
    3608    3607    3606    3609    3610    3611    3612    3611    3610
    3613    3614    3615    3616    3615    3614    3617    3618    3619
    3620    3619    3618    3621    3622    3623    3624    3623    3622
    3625    3626    3627    3628    3627    3626    3629    3630    3631
    3632    3631    3630    3633    3634    3635    3636    3635    3634
    3637    3638    3639    3640    3639    3638    3641    3642    3643
    3644    3643    3642    3645    3646    3647    3648    3647    3646
    3649    3650    3651    3652    3651    3650    3653    3654    3655
    3656    3655    3654    3657    3658    3659    3660    3659    3658
    3661    3662    3663    3664    3663    3662    3665    3666    3667
    3668    3667    3666    3669    3670    3671    3672    3671    3670
    3673    3674    3675    3676    3675    3674    3677    3678    3679
    3680    3679    3678    3681    3682    3683    3684    3683    3682
    3685    3686    3687    3688    3687    3686    3689    3690    3691
    3692    3691    3690    3693    3694    3695    3696    3695    3694
    3697    3698    3699    3700    3699    3698    3701    3702    3703
    3704    3703    3702    3705    3706    3707    3708    3707    3706
    3709    3710    3711    3712    3711    3710    3713    3714    3715
    3716    3715    3714    3717    3718    3719    3720    3719    3718
    3721    3722    3723    3724    3723    3722    3725    3726    3727
    3728    3727    3726    3729    3730    3731    3732    3731    3730
    3733    3734    3735    3736    3735    3734    3737    3738    3739
    3740    3739    3738    3741    3742    3743    3744    3743    3742
    3745    3746    3747    3748    3747    3746    3749    3750    3751
    3752    3751    3750    3753    3754    3755    3756    3755    3754
    3757    3758    3759    3760    3759    3758    3761    3762    3763
    3764    3763    3762    3765    3766    3767    3768    3767    3766
    3769    3770    3771    3772    3771    3770    3773    3774    3775
    3776    3775    3774    3777    3778    3779    3780    3779    3778
    3781    3782    3783    3784    3783    3782    3785    3786    3787
    3788    3787    3786    3789    3790    3791    3792    3791    3790
    3793    3794    3795    3796    3795    3794    3797    3798    3799
    3800    3799    3798    3801    3802    3803    3804    3803    3802
    3805    3806    3807    3808    3807    3806    3809    3810    3811
    3812    3811    3810    3813    3814    3815    3816    3815    3814
    3817    3818    3819    3820    3819    3818    3821    3822    3823
    3824    3823    3822    3825    3826    3827    3828    3827    3826
    3829    3830    3831    3832    3831    3830    3833    3834    3835
    3836    3835    3834    3837    3838    3839    3840    3839    3838
    3841    3842    3843    3844    3843    3842    3845    3846    3847
    3848    3847    3846    3849    3850    3851    3852    3851    3850
    3853    3854    3855    3856    3855    3854    3857    3858    3859
    3860    3859    3858    3861    3862    3863    3864    3863    3862
    3865    3866    3867    3868    3867    3866    3869    3870    3871
    3872    3871    3870    3873    3874    3875    3876    3875    3874
    3877    3878    3879    3880    3879    3878    3881    3882    3883
    3884    3883    3882    3885    3886    3887    3888    3887    3886
    3889    3890    3891    3892    3891    3890    3893    3894    3895
    3896    3895    3894    3897    3898    3899    3900    3899    3898
    3901    3902    3903    3904    3903    3902    3905    3906    3907
    3908    3907    3906    3909    3910    3911    3912    3911    3910
    3913    3914    3915    3916    3915    3914    3917    3918    3919
    3920    3919    3918    3921    3922    3923    3924    3923    3922
    3925    3926    3927    3928    3927    3926    3929    3930    3931
    3932    3931    3930    3933    3934    3935    3936    3935    3934
    3937    3938    3939    3940    3939    3938    3941    3942    3943
    3944    3943    3942    3945    3946    3947    3948    3947    3946
    3949    3950    3951    3952    3951    3950    3953    3954    3955
    3956    3955    3954    3957    3958    3959    3960    3959    3958
    3961    3962    3963    3964    3963    3962    3965    3966    3967
    3968    3967    3966    3969    3970    3971    3972    3971    3970
    3973    3974    3975    3976    3975    3974    3977    3978    3979
    3980    3979    3978    3981    3982    3983    3984    3983    3982
    3985    3986    3987    3988    3987    3986    3989    3990    3991
    3992    3991    3990    3993    3994    3995    3996    3995    3994
    3997    3998    3999    4000    3999    3998

    1000 !NPHI: dihedrals
       4       3       2       1       8       7       6       5
      12      11      10       9      16      15      14      13
      20      19      18      17      24      23      22      21
      28      27      26      25      32      31      30      29
      36      35      34      33      40      39      38      37
      44      43      42      41      48      47      46      45
      52      51      50      49      56      55      54      53
      60      59      58      57      64      63      62      61
      68      67      66      65      72      71      70      69
      76      75      74      73      80      79      78      77
      84      83      82      81      88      87      86      85
      92      91      90      89      96      95      94      93
     100      99      98      97     104     103     102     101
     108     107     106     105     112     111     110     109
     116     115     114     113     120     119     118     117
     124     123     122     121     128     127     126     125
     132     131     130     129     136     135     134     133
     140     139     138     137     144     143     142     141
     148     147     146     145     152     151     150     149
     156     155     154     153     160     159     158     157
     164     163     162     161     168     167     166     165
     172     171     170     169     176     175     174     173
     180     179     178     177     184     183     182     181
     188     187     186     185     192     191     190     189
     196     195     194     193     200     199     198     197
     204     203     202     201     208     207     206     205
     212     211     210     209     216     215     214     213
     220     219     218     217     224     223     222     221
     228     227     226     225     232     231     230     229
     236     235     234     233     240     239     238     237
     244     243     242     241     248     247     246     245
     252     251     250     249     256     255     254     253
     260     259     258     257     264     263     262     261
     268     267     266     265     272     271     270     269
     276     275     274     273     280     279     278     277
     284     283     282     281     288     287     286     285
     292     291     290     289     296     295     294     293
     300     299     298     297     304     303     302     301
     308     307     306     305     312     311     310     309
     316     315     314     313     320     319     318     317
     324     323     322     321     328     327     326     325
     332     331     330     329     336     335     334     333
     340     339     338     337     344     343     342     341
     348     347     346     345     352     351     350     349
     356     355     354     353     360     359     358     357
     364     363     362     361     368     367     366     365
     372     371     370     369     376     375     374     373
     380     379     378     377     384     383     382     381
     388     387     386     385     392     391     390     389
     396     395     394     393     400     399     398     397
     404     403     402     401     408     407     406     405
     412     411     410     409     416     415     414     413
     420     419     418     417     424     423     422     421
     428     427     426     425     432     431     430     429
     436     435     434     433     440     439     438     437
     444     443     442     441     448     447     446     445
     452     451     450     449     456     455     454     453
     460     459     458     457     464     463     462     461
     468     467     466     465     472     471     470     469
     476     475     474     473     480     479     478     477
     484     483     482     481     488     487     486     485
     492     491     490     489     496     495     494     493
     500     499     498     497     504     503     502     501
     508     507     506     505     512     511     510     509
     516     515     514     513     520     519     518     517
     524     523     522     521     528     527     526     525
     532     531     530     529     536     535     534     533
     540     539     538     537     544     543     542     541
     548     547     546     545     552     551     550     549
     556     555     554     553     560     559     558     557
     564     563     562     561     568     567     566     565
     572     571     570     569     576     575     574     573
     580     579     578     577     584     583     582     581
     588     587     586     585     592     591     590     589
     596     595     594     593     600     599     598     597
     604     603     602     601     608     607     606     605
     612     611     610     609     616     615     614     613
     620     619     618     617     624     623     622     621
     628     627     626     625     632     631     630     629
     636     635     634     633     640     639     638     637
     644     643     642     641     648     647     646     645
     652     651     650     649     656     655     654     653
     660     659     658     657     664     663     662     661
     668     667     666     665     672     671     670     669
     676     675     674     673     680     679     678     677
     684     683     682     681     688     687     686     685
     692     691     690     689     696     695     694     693
     700     699     698     697     704     703     702     701
     708     707     706     705     712     711     710     709
     716     715     714     713     720     719     718     717
     724     723     722     721     728     727     726     725
     732     731     730     729     736     735     734     733
     740     739     738     737     744     743     742     741
     748     747     746     745     752     751     750     749
     756     755     754     753     760     759     758     757
     764     763     762     761     768     767     766     765
     772     771     770     769     776     775     774     773
     780     779     778     777     784     783     782     781
     788     787     786     785     792     791     790     789
     796     795     794     793     800     799     798     797
     804     803     802     801     808     807     806     805
     812     811     810     809     816     815     814     813
     820     819     818     817     824     823     822     821
     828     827     826     825     832     831     830     829
     836     835     834     833     840     839     838     837
     844     843     842     841     848     847     846     845
     852     851     850     849     856     855     854     853
     860     859     858     857     864     863     862     861
     868     867     866     865     872     871     870     869
     876     875     874     873     880     879     878     877
     884     883     882     881     888     887     886     885
     892     891     890     889     896     895     894     893
     900     899     898     897     904     903     902     901
     908     907     906     905     912     911     910     909
     916     915     914     913     920     919     918     917
     924     923     922     921     928     927     926     925
     932     931     930     929     936     935     934     933
     940     939     938     937     944     943     942     941
     948     947     946     945     952     951     950     949
     956     955     954     953     960     959     958     957
     964     963     962     961     968     967     966     965
     972     971     970     969     976     975     974     973
     980     979     978     977     984     983     982     981
     988     987     986     985     992     991     990     989
     996     995     994     993    1000     999     998     997
    1004    1003    1002    1001    1008    1007    1006    1005
    1012    1011    1010    1009    1016    1015    1014    1013
    1020    1019    1018    1017    1024    1023    1022    1021
    1028    1027    1026    1025    1032    1031    1030    1029
    1036    1035    1034    1033    1040    1039    1038    1037
    1044    1043    1042    1041    1048    1047    1046    1045
    1052    1051    1050    1049    1056    1055    1054    1053
    1060    1059    1058    1057    1064    1063    1062    1061
    1068    1067    1066    1065    1072    1071    1070    1069
    1076    1075    1074    1073    1080    1079    1078    1077
    1084    1083    1082    1081    1088    1087    1086    1085
    1092    1091    1090    1089    1096    1095    1094    1093
    1100    1099    1098    1097    1104    1103    1102    1101
    1108    1107    1106    1105    1112    1111    1110    1109
    1116    1115    1114    1113    1120    1119    1118    1117
    1124    1123    1122    1121    1128    1127    1126    1125
    1132    1131    1130    1129    1136    1135    1134    1133
    1140    1139    1138    1137    1144    1143    1142    1141
    1148    1147    1146    1145    1152    1151    1150    1149
    1156    1155    1154    1153    1160    1159    1158    1157
    1164    1163    1162    1161    1168    1167    1166    1165
    1172    1171    1170    1169    1176    1175    1174    1173
    1180    1179    1178    1177    1184    1183    1182    1181
    1188    1187    1186    1185    1192    1191    1190    1189
    1196    1195    1194    1193    1200    1199    1198    1197
    1204    1203    1202    1201    1208    1207    1206    1205
    1212    1211    1210    1209    1216    1215    1214    1213
    1220    1219    1218    1217    1224    1223    1222    1221
    1228    1227    1226    1225    1232    1231    1230    1229
    1236    1235    1234    1233    1240    1239    1238    1237
    1244    1243    1242    1241    1248    1247    1246    1245
    1252    1251    1250    1249    1256    1255    1254    1253
    1260    1259    1258    1257    1264    1263    1262    1261
    1268    1267    1266    1265    1272    1271    1270    1269
    1276    1275    1274    1273    1280    1279    1278    1277
    1284    1283    1282    1281    1288    1287    1286    1285
    1292    1291    1290    1289    1296    1295    1294    1293
    1300    1299    1298    1297    1304    1303    1302    1301
    1308    1307    1306    1305    1312    1311    1310    1309
    1316    1315    1314    1313    1320    1319    1318    1317
    1324    1323    1322    1321    1328    1327    1326    1325
    1332    1331    1330    1329    1336    1335    1334    1333
    1340    1339    1338    1337    1344    1343    1342    1341
    1348    1347    1346    1345    1352    1351    1350    1349
    1356    1355    1354    1353    1360    1359    1358    1357
    1364    1363    1362    1361    1368    1367    1366    1365
    1372    1371    1370    1369    1376    1375    1374    1373
    1380    1379    1378    1377    1384    1383    1382    1381
    1388    1387    1386    1385    1392    1391    1390    1389
    1396    1395    1394    1393    1400    1399    1398    1397
    1404    1403    1402    1401    1408    1407    1406    1405
    1412    1411    1410    1409    1416    1415    1414    1413
    1420    1419    1418    1417    1424    1423    1422    1421
    1428    1427    1426    1425    1432    1431    1430    1429
    1436    1435    1434    1433    1440    1439    1438    1437
    1444    1443    1442    1441    1448    1447    1446    1445
    1452    1451    1450    1449    1456    1455    1454    1453
    1460    1459    1458    1457    1464    1463    1462    1461
    1468    1467    1466    1465    1472    1471    1470    1469
    1476    1475    1474    1473    1480    1479    1478    1477
    1484    1483    1482    1481    1488    1487    1486    1485
    1492    1491    1490    1489    1496    1495    1494    1493
    1500    1499    1498    1497    1504    1503    1502    1501
    1508    1507    1506    1505    1512    1511    1510    1509
    1516    1515    1514    1513    1520    1519    1518    1517
    1524    1523    1522    1521    1528    1527    1526    1525
    1532    1531    1530    1529    1536    1535    1534    1533
    1540    1539    1538    1537    1544    1543    1542    1541
    1548    1547    1546    1545    1552    1551    1550    1549
    1556    1555    1554    1553    1560    1559    1558    1557
    1564    1563    1562    1561    1568    1567    1566    1565
    1572    1571    1570    1569    1576    1575    1574    1573
    1580    1579    1578    1577    1584    1583    1582    1581
    1588    1587    1586    1585    1592    1591    1590    1589
    1596    1595    1594    1593    1600    1599    1598    1597
    1604    1603    1602    1601    1608    1607    1606    1605
    1612    1611    1610    1609    1616    1615    1614    1613
    1620    1619    1618    1617    1624    1623    1622    1621
    1628    1627    1626    1625    1632    1631    1630    1629
    1636    1635    1634    1633    1640    1639    1638    1637
    1644    1643    1642    1641    1648    1647    1646    1645
    1652    1651    1650    1649    1656    1655    1654    1653
    1660    1659    1658    1657    1664    1663    1662    1661
    1668    1667    1666    1665    1672    1671    1670    1669
    1676    1675    1674    1673    1680    1679    1678    1677
    1684    1683    1682    1681    1688    1687    1686    1685
    1692    1691    1690    1689    1696    1695    1694    1693
    1700    1699    1698    1697    1704    1703    1702    1701
    1708    1707    1706    1705    1712    1711    1710    1709
    1716    1715    1714    1713    1720    1719    1718    1717
    1724    1723    1722    1721    1728    1727    1726    1725
    1732    1731    1730    1729    1736    1735    1734    1733
    1740    1739    1738    1737    1744    1743    1742    1741
    1748    1747    1746    1745    1752    1751    1750    1749
    1756    1755    1754    1753    1760    1759    1758    1757
    1764    1763    1762    1761    1768    1767    1766    1765
    1772    1771    1770    1769    1776    1775    1774    1773
    1780    1779    1778    1777    1784    1783    1782    1781
    1788    1787    1786    1785    1792    1791    1790    1789
    1796    1795    1794    1793    1800    1799    1798    1797
    1804    1803    1802    1801    1808    1807    1806    1805
    1812    1811    1810    1809    1816    1815    1814    1813
    1820    1819    1818    1817    1824    1823    1822    1821
    1828    1827    1826    1825    1832    1831    1830    1829
    1836    1835    1834    1833    1840    1839    1838    1837
    1844    1843    1842    1841    1848    1847    1846    1845
    1852    1851    1850    1849    1856    1855    1854    1853
    1860    1859    1858    1857    1864    1863    1862    1861
    1868    1867    1866    1865    1872    1871    1870    1869
    1876    1875    1874    1873    1880    1879    1878    1877
    1884    1883    1882    1881    1888    1887    1886    1885
    1892    1891    1890    1889    1896    1895    1894    1893
    1900    1899    1898    1897    1904    1903    1902    1901
    1908    1907    1906    1905    1912    1911    1910    1909
    1916    1915    1914    1913    1920    1919    1918    1917
    1924    1923    1922    1921    1928    1927    1926    1925
    1932    1931    1930    1929    1936    1935    1934    1933
    1940    1939    1938    1937    1944    1943    1942    1941
    1948    1947    1946    1945    1952    1951    1950    1949
    1956    1955    1954    1953    1960    1959    1958    1957
    1964    1963    1962    1961    1968    1967    1966    1965
    1972    1971    1970    1969    1976    1975    1974    1973
    1980    1979    1978    1977    1984    1983    1982    1981
    1988    1987    1986    1985    1992    1991    1990    1989
    1996    1995    1994    1993    2000    1999    1998    1997
    2004    2003    2002    2001    2008    2007    2006    2005
    2012    2011    2010    2009    2016    2015    2014    2013
    2020    2019    2018    2017    2024    2023    2022    2021
    2028    2027    2026    2025    2032    2031    2030    2029
    2036    2035    2034    2033    2040    2039    2038    2037
    2044    2043    2042    2041    2048    2047    2046    2045
    2052    2051    2050    2049    2056    2055    2054    2053
    2060    2059    2058    2057    2064    2063    2062    2061
    2068    2067    2066    2065    2072    2071    2070    2069
    2076    2075    2074    2073    2080    2079    2078    2077
    2084    2083    2082    2081    2088    2087    2086    2085
    2092    2091    2090    2089    2096    2095    2094    2093
    2100    2099    2098    2097    2104    2103    2102    2101
    2108    2107    2106    2105    2112    2111    2110    2109
    2116    2115    2114    2113    2120    2119    2118    2117
    2124    2123    2122    2121    2128    2127    2126    2125
    2132    2131    2130    2129    2136    2135    2134    2133
    2140    2139    2138    2137    2144    2143    2142    2141
    2148    2147    2146    2145    2152    2151    2150    2149
    2156    2155    2154    2153    2160    2159    2158    2157
    2164    2163    2162    2161    2168    2167    2166    2165
    2172    2171    2170    2169    2176    2175    2174    2173
    2180    2179    2178    2177    2184    2183    2182    2181
    2188    2187    2186    2185    2192    2191    2190    2189
    2196    2195    2194    2193    2200    2199    2198    2197
    2204    2203    2202    2201    2208    2207    2206    2205
    2212    2211    2210    2209    2216    2215    2214    2213
    2220    2219    2218    2217    2224    2223    2222    2221
    2228    2227    2226    2225    2232    2231    2230    2229
    2236    2235    2234    2233    2240    2239    2238    2237
    2244    2243    2242    2241    2248    2247    2246    2245
    2252    2251    2250    2249    2256    2255    2254    2253
    2260    2259    2258    2257    2264    2263    2262    2261
    2268    2267    2266    2265    2272    2271    2270    2269
    2276    2275    2274    2273    2280    2279    2278    2277
    2284    2283    2282    2281    2288    2287    2286    2285
    2292    2291    2290    2289    2296    2295    2294    2293
    2300    2299    2298    2297    2304    2303    2302    2301
    2308    2307    2306    2305    2312    2311    2310    2309
    2316    2315    2314    2313    2320    2319    2318    2317
    2324    2323    2322    2321    2328    2327    2326    2325
    2332    2331    2330    2329    2336    2335    2334    2333
    2340    2339    2338    2337    2344    2343    2342    2341
    2348    2347    2346    2345    2352    2351    2350    2349
    2356    2355    2354    2353    2360    2359    2358    2357
    2364    2363    2362    2361    2368    2367    2366    2365
    2372    2371    2370    2369    2376    2375    2374    2373
    2380    2379    2378    2377    2384    2383    2382    2381
    2388    2387    2386    2385    2392    2391    2390    2389
    2396    2395    2394    2393    2400    2399    2398    2397
    2404    2403    2402    2401    2408    2407    2406    2405
    2412    2411    2410    2409    2416    2415    2414    2413
    2420    2419    2418    2417    2424    2423    2422    2421
    2428    2427    2426    2425    2432    2431    2430    2429
    2436    2435    2434    2433    2440    2439    2438    2437
    2444    2443    2442    2441    2448    2447    2446    2445
    2452    2451    2450    2449    2456    2455    2454    2453
    2460    2459    2458    2457    2464    2463    2462    2461
    2468    2467    2466    2465    2472    2471    2470    2469
    2476    2475    2474    2473    2480    2479    2478    2477
    2484    2483    2482    2481    2488    2487    2486    2485
    2492    2491    2490    2489    2496    2495    2494    2493
    2500    2499    2498    2497    2504    2503    2502    2501
    2508    2507    2506    2505    2512    2511    2510    2509
    2516    2515    2514    2513    2520    2519    2518    2517
    2524    2523    2522    2521    2528    2527    2526    2525
    2532    2531    2530    2529    2536    2535    2534    2533
    2540    2539    2538    2537    2544    2543    2542    2541
    2548    2547    2546    2545    2552    2551    2550    2549
    2556    2555    2554    2553    2560    2559    2558    2557
    2564    2563    2562    2561    2568    2567    2566    2565
    2572    2571    2570    2569    2576    2575    2574    2573
    2580    2579    2578    2577    2584    2583    2582    2581
    2588    2587    2586    2585    2592    2591    2590    2589
    2596    2595    2594    2593    2600    2599    2598    2597
    2604    2603    2602    2601    2608    2607    2606    2605
    2612    2611    2610    2609    2616    2615    2614    2613
    2620    2619    2618    2617    2624    2623    2622    2621
    2628    2627    2626    2625    2632    2631    2630    2629
    2636    2635    2634    2633    2640    2639    2638    2637
    2644    2643    2642    2641    2648    2647    2646    2645
    2652    2651    2650    2649    2656    2655    2654    2653
    2660    2659    2658    2657    2664    2663    2662    2661
    2668    2667    2666    2665    2672    2671    2670    2669
    2676    2675    2674    2673    2680    2679    2678    2677
    2684    2683    2682    2681    2688    2687    2686    2685
    2692    2691    2690    2689    2696    2695    2694    2693
    2700    2699    2698    2697    2704    2703    2702    2701
    2708    2707    2706    2705    2712    2711    2710    2709
    2716    2715    2714    2713    2720    2719    2718    2717
    2724    2723    2722    2721    2728    2727    2726    2725
    2732    2731    2730    2729    2736    2735    2734    2733
    2740    2739    2738    2737    2744    2743    2742    2741
    2748    2747    2746    2745    2752    2751    2750    2749
    2756    2755    2754    2753    2760    2759    2758    2757
    2764    2763    2762    2761    2768    2767    2766    2765
    2772    2771    2770    2769    2776    2775    2774    2773
    2780    2779    2778    2777    2784    2783    2782    2781
    2788    2787    2786    2785    2792    2791    2790    2789
    2796    2795    2794    2793    2800    2799    2798    2797
    2804    2803    2802    2801    2808    2807    2806    2805
    2812    2811    2810    2809    2816    2815    2814    2813
    2820    2819    2818    2817    2824    2823    2822    2821
    2828    2827    2826    2825    2832    2831    2830    2829
    2836    2835    2834    2833    2840    2839    2838    2837
    2844    2843    2842    2841    2848    2847    2846    2845
    2852    2851    2850    2849    2856    2855    2854    2853
    2860    2859    2858    2857    2864    2863    2862    2861
    2868    2867    2866    2865    2872    2871    2870    2869
    2876    2875    2874    2873    2880    2879    2878    2877
    2884    2883    2882    2881    2888    2887    2886    2885
    2892    2891    2890    2889    2896    2895    2894    2893
    2900    2899    2898    2897    2904    2903    2902    2901
    2908    2907    2906    2905    2912    2911    2910    2909
    2916    2915    2914    2913    2920    2919    2918    2917
    2924    2923    2922    2921    2928    2927    2926    2925
    2932    2931    2930    2929    2936    2935    2934    2933
    2940    2939    2938    2937    2944    2943    2942    2941
    2948    2947    2946    2945    2952    2951    2950    2949
    2956    2955    2954    2953    2960    2959    2958    2957
    2964    2963    2962    2961    2968    2967    2966    2965
    2972    2971    2970    2969    2976    2975    2974    2973
    2980    2979    2978    2977    2984    2983    2982    2981
    2988    2987    2986    2985    2992    2991    2990    2989
    2996    2995    2994    2993    3000    2999    2998    2997
    3004    3003    3002    3001    3008    3007    3006    3005
    3012    3011    3010    3009    3016    3015    3014    3013
    3020    3019    3018    3017    3024    3023    3022    3021
    3028    3027    3026    3025    3032    3031    3030    3029
    3036    3035    3034    3033    3040    3039    3038    3037
    3044    3043    3042    3041    3048    3047    3046    3045
    3052    3051    3050    3049    3056    3055    3054    3053
    3060    3059    3058    3057    3064    3063    3062    3061
    3068    3067    3066    3065    3072    3071    3070    3069
    3076    3075    3074    3073    3080    3079    3078    3077
    3084    3083    3082    3081    3088    3087    3086    3085
    3092    3091    3090    3089    3096    3095    3094    3093
    3100    3099    3098    3097    3104    3103    3102    3101
    3108    3107    3106    3105    3112    3111    3110    3109
    3116    3115    3114    3113    3120    3119    3118    3117
    3124    3123    3122    3121    3128    3127    3126    3125
    3132    3131    3130    3129    3136    3135    3134    3133
    3140    3139    3138    3137    3144    3143    3142    3141
    3148    3147    3146    3145    3152    3151    3150    3149
    3156    3155    3154    3153    3160    3159    3158    3157
    3164    3163    3162    3161    3168    3167    3166    3165
    3172    3171    3170    3169    3176    3175    3174    3173
    3180    3179    3178    3177    3184    3183    3182    3181
    3188    3187    3186    3185    3192    3191    3190    3189
    3196    3195    3194    3193    3200    3199    3198    3197
    3204    3203    3202    3201    3208    3207    3206    3205
    3212    3211    3210    3209    3216    3215    3214    3213
    3220    3219    3218    3217    3224    3223    3222    3221
    3228    3227    3226    3225    3232    3231    3230    3229
    3236    3235    3234    3233    3240    3239    3238    3237
    3244    3243    3242    3241    3248    3247    3246    3245
    3252    3251    3250    3249    3256    3255    3254    3253
    3260    3259    3258    3257    3264    3263    3262    3261
    3268    3267    3266    3265    3272    3271    3270    3269
    3276    3275    3274    3273    3280    3279    3278    3277
    3284    3283    3282    3281    3288    3287    3286    3285
    3292    3291    3290    3289    3296    3295    3294    3293
    3300    3299    3298    3297    3304    3303    3302    3301
    3308    3307    3306    3305    3312    3311    3310    3309
    3316    3315    3314    3313    3320    3319    3318    3317
    3324    3323    3322    3321    3328    3327    3326    3325
    3332    3331    3330    3329    3336    3335    3334    3333
    3340    3339    3338    3337    3344    3343    3342    3341
    3348    3347    3346    3345    3352    3351    3350    3349
    3356    3355    3354    3353    3360    3359    3358    3357
    3364    3363    3362    3361    3368    3367    3366    3365
    3372    3371    3370    3369    3376    3375    3374    3373
    3380    3379    3378    3377    3384    3383    3382    3381
    3388    3387    3386    3385    3392    3391    3390    3389
    3396    3395    3394    3393    3400    3399    3398    3397
    3404    3403    3402    3401    3408    3407    3406    3405
    3412    3411    3410    3409    3416    3415    3414    3413
    3420    3419    3418    3417    3424    3423    3422    3421
    3428    3427    3426    3425    3432    3431    3430    3429
    3436    3435    3434    3433    3440    3439    3438    3437
    3444    3443    3442    3441    3448    3447    3446    3445
    3452    3451    3450    3449    3456    3455    3454    3453
    3460    3459    3458    3457    3464    3463    3462    3461
    3468    3467    3466    3465    3472    3471    3470    3469
    3476    3475    3474    3473    3480    3479    3478    3477
    3484    3483    3482    3481    3488    3487    3486    3485
    3492    3491    3490    3489    3496    3495    3494    3493
    3500    3499    3498    3497    3504    3503    3502    3501
    3508    3507    3506    3505    3512    3511    3510    3509
    3516    3515    3514    3513    3520    3519    3518    3517
    3524    3523    3522    3521    3528    3527    3526    3525
    3532    3531    3530    3529    3536    3535    3534    3533
    3540    3539    3538    3537    3544    3543    3542    3541
    3548    3547    3546    3545    3552    3551    3550    3549
    3556    3555    3554    3553    3560    3559    3558    3557
    3564    3563    3562    3561    3568    3567    3566    3565
    3572    3571    3570    3569    3576    3575    3574    3573
    3580    3579    3578    3577    3584    3583    3582    3581
    3588    3587    3586    3585    3592    3591    3590    3589
    3596    3595    3594    3593    3600    3599    3598    3597
    3604    3603    3602    3601    3608    3607    3606    3605
    3612    3611    3610    3609    3616    3615    3614    3613
    3620    3619    3618    3617    3624    3623    3622    3621
    3628    3627    3626    3625    3632    3631    3630    3629
    3636    3635    3634    3633    3640    3639    3638    3637
    3644    3643    3642    3641    3648    3647    3646    3645
    3652    3651    3650    3649    3656    3655    3654    3653
    3660    3659    3658    3657    3664    3663    3662    3661
    3668    3667    3666    3665    3672    3671    3670    3669
    3676    3675    3674    3673    3680    3679    3678    3677
    3684    3683    3682    3681    3688    3687    3686    3685
    3692    3691    3690    3689    3696    3695    3694    3693
    3700    3699    3698    3697    3704    3703    3702    3701
    3708    3707    3706    3705    3712    3711    3710    3709
    3716    3715    3714    3713    3720    3719    3718    3717
    3724    3723    3722    3721    3728    3727    3726    3725
    3732    3731    3730    3729    3736    3735    3734    3733
    3740    3739    3738    3737    3744    3743    3742    3741
    3748    3747    3746    3745    3752    3751    3750    3749
    3756    3755    3754    3753    3760    3759    3758    3757
    3764    3763    3762    3761    3768    3767    3766    3765
    3772    3771    3770    3769    3776    3775    3774    3773
    3780    3779    3778    3777    3784    3783    3782    3781
    3788    3787    3786    3785    3792    3791    3790    3789
    3796    3795    3794    3793    3800    3799    3798    3797
    3804    3803    3802    3801    3808    3807    3806    3805
    3812    3811    3810    3809    3816    3815    3814    3813
    3820    3819    3818    3817    3824    3823    3822    3821
    3828    3827    3826    3825    3832    3831    3830    3829
    3836    3835    3834    3833    3840    3839    3838    3837
    3844    3843    3842    3841    3848    3847    3846    3845
    3852    3851    3850    3849    3856    3855    3854    3853
    3860    3859    3858    3857    3864    3863    3862    3861
    3868    3867    3866    3865    3872    3871    3870    3869
    3876    3875    3874    3873    3880    3879    3878    3877
    3884    3883    3882    3881    3888    3887    3886    3885
    3892    3891    3890    3889    3896    3895    3894    3893
    3900    3899    3898    3897    3904    3903    3902    3901
    3908    3907    3906    3905    3912    3911    3910    3909
    3916    3915    3914    3913    3920    3919    3918    3917
    3924    3923    3922    3921    3928    3927    3926    3925
    3932    3931    3930    3929    3936    3935    3934    3933
    3940    3939    3938    3937    3944    3943    3942    3941
    3948    3947    3946    3945    3952    3951    3950    3949
    3956    3955    3954    3953    3960    3959    3958    3957
    3964    3963    3962    3961    3968    3967    3966    3965
    3972    3971    3970    3969    3976    3975    3974    3973
    3980    3979    3978    3977    3984    3983    3982    3981
    3988    3987    3986    3985    3992    3991    3990    3989
    3996    3995    3994    3993    4000    3999    3998    3997

       0 !NIMPHI: impropers


       0 !NDON: donors

       0 !NACC: acceptors

       0 !NNB

       0 !NGRP 

