PSF

       2 !NTITLE 
 REMARKS Restart PSF produced by GOMC
 REMARKS Contains Geometry data for molecules in Box 1

    2344 !NATOM 
       1 A    1    ETH  C1   CG3310   -0.270000       12.0110           0
       2 A    1    ETH  C2   CG3310   -0.270000       12.0110           0
       3 A    1    ETH  H1   HGA30    0.090000        1.0080           0
       4 A    1    ETH  H2   HGA30    0.090000        1.0080           0
       5 A    1    ETH  H3   HGA30    0.090000        1.0080           0
       6 A    1    ETH  H4   HGA30    0.090000        1.0080           0
       7 A    1    ETH  H5   HGA30    0.090000        1.0080           0
       8 A    1    ETH  H6   HGA30    0.090000        1.0080           0
       9 A    2    ETH  C1   CG3310   -0.270000       12.0110           0
      10 A    2    ETH  C2   CG3310   -0.270000       12.0110           0
      11 A    2    ETH  H1   HGA30    0.090000        1.0080           0
      12 A    2    ETH  H2   HGA30    0.090000        1.0080           0
      13 A    2    ETH  H3   HGA30    0.090000        1.0080           0
      14 A    2    ETH  H4   HGA30    0.090000        1.0080           0
      15 A    2    ETH  H5   HGA30    0.090000        1.0080           0
      16 A    2    ETH  H6   HGA30    0.090000        1.0080           0
      17 A    3    ETH  C1   CG3310   -0.270000       12.0110           0
      18 A    3    ETH  C2   CG3310   -0.270000       12.0110           0
      19 A    3    ETH  H1   HGA30    0.090000        1.0080           0
      20 A    3    ETH  H2   HGA30    0.090000        1.0080           0
      21 A    3    ETH  H3   HGA30    0.090000        1.0080           0
      22 A    3    ETH  H4   HGA30    0.090000        1.0080           0
      23 A    3    ETH  H5   HGA30    0.090000        1.0080           0
      24 A    3    ETH  H6   HGA30    0.090000        1.0080           0
      25 A    4    ETH  C1   CG3310   -0.270000       12.0110           0
      26 A    4    ETH  C2   CG3310   -0.270000       12.0110           0
      27 A    4    ETH  H1   HGA30    0.090000        1.0080           0
      28 A    4    ETH  H2   HGA30    0.090000        1.0080           0
      29 A    4    ETH  H3   HGA30    0.090000        1.0080           0
      30 A    4    ETH  H4   HGA30    0.090000        1.0080           0
      31 A    4    ETH  H5   HGA30    0.090000        1.0080           0
      32 A    4    ETH  H6   HGA30    0.090000        1.0080           0
      33 A    5    ETH  C1   CG3310   -0.270000       12.0110           0
      34 A    5    ETH  C2   CG3310   -0.270000       12.0110           0
      35 A    5    ETH  H1   HGA30    0.090000        1.0080           0
      36 A    5    ETH  H2   HGA30    0.090000        1.0080           0
      37 A    5    ETH  H3   HGA30    0.090000        1.0080           0
      38 A    5    ETH  H4   HGA30    0.090000        1.0080           0
      39 A    5    ETH  H5   HGA30    0.090000        1.0080           0
      40 A    5    ETH  H6   HGA30    0.090000        1.0080           0
      41 A    6    ETH  C1   CG3310   -0.270000       12.0110           0
      42 A    6    ETH  C2   CG3310   -0.270000       12.0110           0
      43 A    6    ETH  H1   HGA30    0.090000        1.0080           0
      44 A    6    ETH  H2   HGA30    0.090000        1.0080           0
      45 A    6    ETH  H3   HGA30    0.090000        1.0080           0
      46 A    6    ETH  H4   HGA30    0.090000        1.0080           0
      47 A    6    ETH  H5   HGA30    0.090000        1.0080           0
      48 A    6    ETH  H6   HGA30    0.090000        1.0080           0
      49 A    7    ETH  C1   CG3310   -0.270000       12.0110           0
      50 A    7    ETH  C2   CG3310   -0.270000       12.0110           0
      51 A    7    ETH  H1   HGA30    0.090000        1.0080           0
      52 A    7    ETH  H2   HGA30    0.090000        1.0080           0
      53 A    7    ETH  H3   HGA30    0.090000        1.0080           0
      54 A    7    ETH  H4   HGA30    0.090000        1.0080           0
      55 A    7    ETH  H5   HGA30    0.090000        1.0080           0
      56 A    7    ETH  H6   HGA30    0.090000        1.0080           0
      57 A    8    ETH  C1   CG3310   -0.270000       12.0110           0
      58 A    8    ETH  C2   CG3310   -0.270000       12.0110           0
      59 A    8    ETH  H1   HGA30    0.090000        1.0080           0
      60 A    8    ETH  H2   HGA30    0.090000        1.0080           0
      61 A    8    ETH  H3   HGA30    0.090000        1.0080           0
      62 A    8    ETH  H4   HGA30    0.090000        1.0080           0
      63 A    8    ETH  H5   HGA30    0.090000        1.0080           0
      64 A    8    ETH  H6   HGA30    0.090000        1.0080           0
      65 A    9    ETH  C1   CG3310   -0.270000       12.0110           0
      66 A    9    ETH  C2   CG3310   -0.270000       12.0110           0
      67 A    9    ETH  H1   HGA30    0.090000        1.0080           0
      68 A    9    ETH  H2   HGA30    0.090000        1.0080           0
      69 A    9    ETH  H3   HGA30    0.090000        1.0080           0
      70 A    9    ETH  H4   HGA30    0.090000        1.0080           0
      71 A    9    ETH  H5   HGA30    0.090000        1.0080           0
      72 A    9    ETH  H6   HGA30    0.090000        1.0080           0
      73 A    10   ETH  C1   CG3310   -0.270000       12.0110           0
      74 A    10   ETH  C2   CG3310   -0.270000       12.0110           0
      75 A    10   ETH  H1   HGA30    0.090000        1.0080           0
      76 A    10   ETH  H2   HGA30    0.090000        1.0080           0
      77 A    10   ETH  H3   HGA30    0.090000        1.0080           0
      78 A    10   ETH  H4   HGA30    0.090000        1.0080           0
      79 A    10   ETH  H5   HGA30    0.090000        1.0080           0
      80 A    10   ETH  H6   HGA30    0.090000        1.0080           0
      81 A    11   ETH  C1   CG3310   -0.270000       12.0110           0
      82 A    11   ETH  C2   CG3310   -0.270000       12.0110           0
      83 A    11   ETH  H1   HGA30    0.090000        1.0080           0
      84 A    11   ETH  H2   HGA30    0.090000        1.0080           0
      85 A    11   ETH  H3   HGA30    0.090000        1.0080           0
      86 A    11   ETH  H4   HGA30    0.090000        1.0080           0
      87 A    11   ETH  H5   HGA30    0.090000        1.0080           0
      88 A    11   ETH  H6   HGA30    0.090000        1.0080           0
      89 A    12   ETH  C1   CG3310   -0.270000       12.0110           0
      90 A    12   ETH  C2   CG3310   -0.270000       12.0110           0
      91 A    12   ETH  H1   HGA30    0.090000        1.0080           0
      92 A    12   ETH  H2   HGA30    0.090000        1.0080           0
      93 A    12   ETH  H3   HGA30    0.090000        1.0080           0
      94 A    12   ETH  H4   HGA30    0.090000        1.0080           0
      95 A    12   ETH  H5   HGA30    0.090000        1.0080           0
      96 A    12   ETH  H6   HGA30    0.090000        1.0080           0
      97 A    13   ETH  C1   CG3310   -0.270000       12.0110           0
      98 A    13   ETH  C2   CG3310   -0.270000       12.0110           0
      99 A    13   ETH  H1   HGA30    0.090000        1.0080           0
     100 A    13   ETH  H2   HGA30    0.090000        1.0080           0
     101 A    13   ETH  H3   HGA30    0.090000        1.0080           0
     102 A    13   ETH  H4   HGA30    0.090000        1.0080           0
     103 A    13   ETH  H5   HGA30    0.090000        1.0080           0
     104 A    13   ETH  H6   HGA30    0.090000        1.0080           0
     105 A    14   ETH  C1   CG3310   -0.270000       12.0110           0
     106 A    14   ETH  C2   CG3310   -0.270000       12.0110           0
     107 A    14   ETH  H1   HGA30    0.090000        1.0080           0
     108 A    14   ETH  H2   HGA30    0.090000        1.0080           0
     109 A    14   ETH  H3   HGA30    0.090000        1.0080           0
     110 A    14   ETH  H4   HGA30    0.090000        1.0080           0
     111 A    14   ETH  H5   HGA30    0.090000        1.0080           0
     112 A    14   ETH  H6   HGA30    0.090000        1.0080           0
     113 A    15   ETH  C1   CG3310   -0.270000       12.0110           0
     114 A    15   ETH  C2   CG3310   -0.270000       12.0110           0
     115 A    15   ETH  H1   HGA30    0.090000        1.0080           0
     116 A    15   ETH  H2   HGA30    0.090000        1.0080           0
     117 A    15   ETH  H3   HGA30    0.090000        1.0080           0
     118 A    15   ETH  H4   HGA30    0.090000        1.0080           0
     119 A    15   ETH  H5   HGA30    0.090000        1.0080           0
     120 A    15   ETH  H6   HGA30    0.090000        1.0080           0
     121 A    16   ETH  C1   CG3310   -0.270000       12.0110           0
     122 A    16   ETH  C2   CG3310   -0.270000       12.0110           0
     123 A    16   ETH  H1   HGA30    0.090000        1.0080           0
     124 A    16   ETH  H2   HGA30    0.090000        1.0080           0
     125 A    16   ETH  H3   HGA30    0.090000        1.0080           0
     126 A    16   ETH  H4   HGA30    0.090000        1.0080           0
     127 A    16   ETH  H5   HGA30    0.090000        1.0080           0
     128 A    16   ETH  H6   HGA30    0.090000        1.0080           0
     129 A    17   ETH  C1   CG3310   -0.270000       12.0110           0
     130 A    17   ETH  C2   CG3310   -0.270000       12.0110           0
     131 A    17   ETH  H1   HGA30    0.090000        1.0080           0
     132 A    17   ETH  H2   HGA30    0.090000        1.0080           0
     133 A    17   ETH  H3   HGA30    0.090000        1.0080           0
     134 A    17   ETH  H4   HGA30    0.090000        1.0080           0
     135 A    17   ETH  H5   HGA30    0.090000        1.0080           0
     136 A    17   ETH  H6   HGA30    0.090000        1.0080           0
     137 A    18   ETH  C1   CG3310   -0.270000       12.0110           0
     138 A    18   ETH  C2   CG3310   -0.270000       12.0110           0
     139 A    18   ETH  H1   HGA30    0.090000        1.0080           0
     140 A    18   ETH  H2   HGA30    0.090000        1.0080           0
     141 A    18   ETH  H3   HGA30    0.090000        1.0080           0
     142 A    18   ETH  H4   HGA30    0.090000        1.0080           0
     143 A    18   ETH  H5   HGA30    0.090000        1.0080           0
     144 A    18   ETH  H6   HGA30    0.090000        1.0080           0
     145 A    19   ETH  C1   CG3310   -0.270000       12.0110           0
     146 A    19   ETH  C2   CG3310   -0.270000       12.0110           0
     147 A    19   ETH  H1   HGA30    0.090000        1.0080           0
     148 A    19   ETH  H2   HGA30    0.090000        1.0080           0
     149 A    19   ETH  H3   HGA30    0.090000        1.0080           0
     150 A    19   ETH  H4   HGA30    0.090000        1.0080           0
     151 A    19   ETH  H5   HGA30    0.090000        1.0080           0
     152 A    19   ETH  H6   HGA30    0.090000        1.0080           0
     153 A    20   ETH  C1   CG3310   -0.270000       12.0110           0
     154 A    20   ETH  C2   CG3310   -0.270000       12.0110           0
     155 A    20   ETH  H1   HGA30    0.090000        1.0080           0
     156 A    20   ETH  H2   HGA30    0.090000        1.0080           0
     157 A    20   ETH  H3   HGA30    0.090000        1.0080           0
     158 A    20   ETH  H4   HGA30    0.090000        1.0080           0
     159 A    20   ETH  H5   HGA30    0.090000        1.0080           0
     160 A    20   ETH  H6   HGA30    0.090000        1.0080           0
     161 A    21   ETH  C1   CG3310   -0.270000       12.0110           0
     162 A    21   ETH  C2   CG3310   -0.270000       12.0110           0
     163 A    21   ETH  H1   HGA30    0.090000        1.0080           0
     164 A    21   ETH  H2   HGA30    0.090000        1.0080           0
     165 A    21   ETH  H3   HGA30    0.090000        1.0080           0
     166 A    21   ETH  H4   HGA30    0.090000        1.0080           0
     167 A    21   ETH  H5   HGA30    0.090000        1.0080           0
     168 A    21   ETH  H6   HGA30    0.090000        1.0080           0
     169 A    22   ETH  C1   CG3310   -0.270000       12.0110           0
     170 A    22   ETH  C2   CG3310   -0.270000       12.0110           0
     171 A    22   ETH  H1   HGA30    0.090000        1.0080           0
     172 A    22   ETH  H2   HGA30    0.090000        1.0080           0
     173 A    22   ETH  H3   HGA30    0.090000        1.0080           0
     174 A    22   ETH  H4   HGA30    0.090000        1.0080           0
     175 A    22   ETH  H5   HGA30    0.090000        1.0080           0
     176 A    22   ETH  H6   HGA30    0.090000        1.0080           0
     177 A    23   ETH  C1   CG3310   -0.270000       12.0110           0
     178 A    23   ETH  C2   CG3310   -0.270000       12.0110           0
     179 A    23   ETH  H1   HGA30    0.090000        1.0080           0
     180 A    23   ETH  H2   HGA30    0.090000        1.0080           0
     181 A    23   ETH  H3   HGA30    0.090000        1.0080           0
     182 A    23   ETH  H4   HGA30    0.090000        1.0080           0
     183 A    23   ETH  H5   HGA30    0.090000        1.0080           0
     184 A    23   ETH  H6   HGA30    0.090000        1.0080           0
     185 A    24   ETH  C1   CG3310   -0.270000       12.0110           0
     186 A    24   ETH  C2   CG3310   -0.270000       12.0110           0
     187 A    24   ETH  H1   HGA30    0.090000        1.0080           0
     188 A    24   ETH  H2   HGA30    0.090000        1.0080           0
     189 A    24   ETH  H3   HGA30    0.090000        1.0080           0
     190 A    24   ETH  H4   HGA30    0.090000        1.0080           0
     191 A    24   ETH  H5   HGA30    0.090000        1.0080           0
     192 A    24   ETH  H6   HGA30    0.090000        1.0080           0
     193 A    25   ETH  C1   CG3310   -0.270000       12.0110           0
     194 A    25   ETH  C2   CG3310   -0.270000       12.0110           0
     195 A    25   ETH  H1   HGA30    0.090000        1.0080           0
     196 A    25   ETH  H2   HGA30    0.090000        1.0080           0
     197 A    25   ETH  H3   HGA30    0.090000        1.0080           0
     198 A    25   ETH  H4   HGA30    0.090000        1.0080           0
     199 A    25   ETH  H5   HGA30    0.090000        1.0080           0
     200 A    25   ETH  H6   HGA30    0.090000        1.0080           0
     201 A    26   ETH  C1   CG3310   -0.270000       12.0110           0
     202 A    26   ETH  C2   CG3310   -0.270000       12.0110           0
     203 A    26   ETH  H1   HGA30    0.090000        1.0080           0
     204 A    26   ETH  H2   HGA30    0.090000        1.0080           0
     205 A    26   ETH  H3   HGA30    0.090000        1.0080           0
     206 A    26   ETH  H4   HGA30    0.090000        1.0080           0
     207 A    26   ETH  H5   HGA30    0.090000        1.0080           0
     208 A    26   ETH  H6   HGA30    0.090000        1.0080           0
     209 A    27   ETH  C1   CG3310   -0.270000       12.0110           0
     210 A    27   ETH  C2   CG3310   -0.270000       12.0110           0
     211 A    27   ETH  H1   HGA30    0.090000        1.0080           0
     212 A    27   ETH  H2   HGA30    0.090000        1.0080           0
     213 A    27   ETH  H3   HGA30    0.090000        1.0080           0
     214 A    27   ETH  H4   HGA30    0.090000        1.0080           0
     215 A    27   ETH  H5   HGA30    0.090000        1.0080           0
     216 A    27   ETH  H6   HGA30    0.090000        1.0080           0
     217 A    28   ETH  C1   CG3310   -0.270000       12.0110           0
     218 A    28   ETH  C2   CG3310   -0.270000       12.0110           0
     219 A    28   ETH  H1   HGA30    0.090000        1.0080           0
     220 A    28   ETH  H2   HGA30    0.090000        1.0080           0
     221 A    28   ETH  H3   HGA30    0.090000        1.0080           0
     222 A    28   ETH  H4   HGA30    0.090000        1.0080           0
     223 A    28   ETH  H5   HGA30    0.090000        1.0080           0
     224 A    28   ETH  H6   HGA30    0.090000        1.0080           0
     225 A    29   ETH  C1   CG3310   -0.270000       12.0110           0
     226 A    29   ETH  C2   CG3310   -0.270000       12.0110           0
     227 A    29   ETH  H1   HGA30    0.090000        1.0080           0
     228 A    29   ETH  H2   HGA30    0.090000        1.0080           0
     229 A    29   ETH  H3   HGA30    0.090000        1.0080           0
     230 A    29   ETH  H4   HGA30    0.090000        1.0080           0
     231 A    29   ETH  H5   HGA30    0.090000        1.0080           0
     232 A    29   ETH  H6   HGA30    0.090000        1.0080           0
     233 A    30   ETH  C1   CG3310   -0.270000       12.0110           0
     234 A    30   ETH  C2   CG3310   -0.270000       12.0110           0
     235 A    30   ETH  H1   HGA30    0.090000        1.0080           0
     236 A    30   ETH  H2   HGA30    0.090000        1.0080           0
     237 A    30   ETH  H3   HGA30    0.090000        1.0080           0
     238 A    30   ETH  H4   HGA30    0.090000        1.0080           0
     239 A    30   ETH  H5   HGA30    0.090000        1.0080           0
     240 A    30   ETH  H6   HGA30    0.090000        1.0080           0
     241 A    31   ETH  C1   CG3310   -0.270000       12.0110           0
     242 A    31   ETH  C2   CG3310   -0.270000       12.0110           0
     243 A    31   ETH  H1   HGA30    0.090000        1.0080           0
     244 A    31   ETH  H2   HGA30    0.090000        1.0080           0
     245 A    31   ETH  H3   HGA30    0.090000        1.0080           0
     246 A    31   ETH  H4   HGA30    0.090000        1.0080           0
     247 A    31   ETH  H5   HGA30    0.090000        1.0080           0
     248 A    31   ETH  H6   HGA30    0.090000        1.0080           0
     249 A    32   ETH  C1   CG3310   -0.270000       12.0110           0
     250 A    32   ETH  C2   CG3310   -0.270000       12.0110           0
     251 A    32   ETH  H1   HGA30    0.090000        1.0080           0
     252 A    32   ETH  H2   HGA30    0.090000        1.0080           0
     253 A    32   ETH  H3   HGA30    0.090000        1.0080           0
     254 A    32   ETH  H4   HGA30    0.090000        1.0080           0
     255 A    32   ETH  H5   HGA30    0.090000        1.0080           0
     256 A    32   ETH  H6   HGA30    0.090000        1.0080           0
     257 A    33   ETH  C1   CG3310   -0.270000       12.0110           0
     258 A    33   ETH  C2   CG3310   -0.270000       12.0110           0
     259 A    33   ETH  H1   HGA30    0.090000        1.0080           0
     260 A    33   ETH  H2   HGA30    0.090000        1.0080           0
     261 A    33   ETH  H3   HGA30    0.090000        1.0080           0
     262 A    33   ETH  H4   HGA30    0.090000        1.0080           0
     263 A    33   ETH  H5   HGA30    0.090000        1.0080           0
     264 A    33   ETH  H6   HGA30    0.090000        1.0080           0
     265 A    34   ETH  C1   CG3310   -0.270000       12.0110           0
     266 A    34   ETH  C2   CG3310   -0.270000       12.0110           0
     267 A    34   ETH  H1   HGA30    0.090000        1.0080           0
     268 A    34   ETH  H2   HGA30    0.090000        1.0080           0
     269 A    34   ETH  H3   HGA30    0.090000        1.0080           0
     270 A    34   ETH  H4   HGA30    0.090000        1.0080           0
     271 A    34   ETH  H5   HGA30    0.090000        1.0080           0
     272 A    34   ETH  H6   HGA30    0.090000        1.0080           0
     273 A    35   ETH  C1   CG3310   -0.270000       12.0110           0
     274 A    35   ETH  C2   CG3310   -0.270000       12.0110           0
     275 A    35   ETH  H1   HGA30    0.090000        1.0080           0
     276 A    35   ETH  H2   HGA30    0.090000        1.0080           0
     277 A    35   ETH  H3   HGA30    0.090000        1.0080           0
     278 A    35   ETH  H4   HGA30    0.090000        1.0080           0
     279 A    35   ETH  H5   HGA30    0.090000        1.0080           0
     280 A    35   ETH  H6   HGA30    0.090000        1.0080           0
     281 A    36   ETH  C1   CG3310   -0.270000       12.0110           0
     282 A    36   ETH  C2   CG3310   -0.270000       12.0110           0
     283 A    36   ETH  H1   HGA30    0.090000        1.0080           0
     284 A    36   ETH  H2   HGA30    0.090000        1.0080           0
     285 A    36   ETH  H3   HGA30    0.090000        1.0080           0
     286 A    36   ETH  H4   HGA30    0.090000        1.0080           0
     287 A    36   ETH  H5   HGA30    0.090000        1.0080           0
     288 A    36   ETH  H6   HGA30    0.090000        1.0080           0
     289 A    37   ETH  C1   CG3310   -0.270000       12.0110           0
     290 A    37   ETH  C2   CG3310   -0.270000       12.0110           0
     291 A    37   ETH  H1   HGA30    0.090000        1.0080           0
     292 A    37   ETH  H2   HGA30    0.090000        1.0080           0
     293 A    37   ETH  H3   HGA30    0.090000        1.0080           0
     294 A    37   ETH  H4   HGA30    0.090000        1.0080           0
     295 A    37   ETH  H5   HGA30    0.090000        1.0080           0
     296 A    37   ETH  H6   HGA30    0.090000        1.0080           0
     297 A    38   ETH  C1   CG3310   -0.270000       12.0110           0
     298 A    38   ETH  C2   CG3310   -0.270000       12.0110           0
     299 A    38   ETH  H1   HGA30    0.090000        1.0080           0
     300 A    38   ETH  H2   HGA30    0.090000        1.0080           0
     301 A    38   ETH  H3   HGA30    0.090000        1.0080           0
     302 A    38   ETH  H4   HGA30    0.090000        1.0080           0
     303 A    38   ETH  H5   HGA30    0.090000        1.0080           0
     304 A    38   ETH  H6   HGA30    0.090000        1.0080           0
     305 A    39   ETH  C1   CG3310   -0.270000       12.0110           0
     306 A    39   ETH  C2   CG3310   -0.270000       12.0110           0
     307 A    39   ETH  H1   HGA30    0.090000        1.0080           0
     308 A    39   ETH  H2   HGA30    0.090000        1.0080           0
     309 A    39   ETH  H3   HGA30    0.090000        1.0080           0
     310 A    39   ETH  H4   HGA30    0.090000        1.0080           0
     311 A    39   ETH  H5   HGA30    0.090000        1.0080           0
     312 A    39   ETH  H6   HGA30    0.090000        1.0080           0
     313 A    40   ETH  C1   CG3310   -0.270000       12.0110           0
     314 A    40   ETH  C2   CG3310   -0.270000       12.0110           0
     315 A    40   ETH  H1   HGA30    0.090000        1.0080           0
     316 A    40   ETH  H2   HGA30    0.090000        1.0080           0
     317 A    40   ETH  H3   HGA30    0.090000        1.0080           0
     318 A    40   ETH  H4   HGA30    0.090000        1.0080           0
     319 A    40   ETH  H5   HGA30    0.090000        1.0080           0
     320 A    40   ETH  H6   HGA30    0.090000        1.0080           0
     321 A    41   ETH  C1   CG3310   -0.270000       12.0110           0
     322 A    41   ETH  C2   CG3310   -0.270000       12.0110           0
     323 A    41   ETH  H1   HGA30    0.090000        1.0080           0
     324 A    41   ETH  H2   HGA30    0.090000        1.0080           0
     325 A    41   ETH  H3   HGA30    0.090000        1.0080           0
     326 A    41   ETH  H4   HGA30    0.090000        1.0080           0
     327 A    41   ETH  H5   HGA30    0.090000        1.0080           0
     328 A    41   ETH  H6   HGA30    0.090000        1.0080           0
     329 A    42   ETH  C1   CG3310   -0.270000       12.0110           0
     330 A    42   ETH  C2   CG3310   -0.270000       12.0110           0
     331 A    42   ETH  H1   HGA30    0.090000        1.0080           0
     332 A    42   ETH  H2   HGA30    0.090000        1.0080           0
     333 A    42   ETH  H3   HGA30    0.090000        1.0080           0
     334 A    42   ETH  H4   HGA30    0.090000        1.0080           0
     335 A    42   ETH  H5   HGA30    0.090000        1.0080           0
     336 A    42   ETH  H6   HGA30    0.090000        1.0080           0
     337 A    43   ETH  C1   CG3310   -0.270000       12.0110           0
     338 A    43   ETH  C2   CG3310   -0.270000       12.0110           0
     339 A    43   ETH  H1   HGA30    0.090000        1.0080           0
     340 A    43   ETH  H2   HGA30    0.090000        1.0080           0
     341 A    43   ETH  H3   HGA30    0.090000        1.0080           0
     342 A    43   ETH  H4   HGA30    0.090000        1.0080           0
     343 A    43   ETH  H5   HGA30    0.090000        1.0080           0
     344 A    43   ETH  H6   HGA30    0.090000        1.0080           0
     345 A    44   ETH  C1   CG3310   -0.270000       12.0110           0
     346 A    44   ETH  C2   CG3310   -0.270000       12.0110           0
     347 A    44   ETH  H1   HGA30    0.090000        1.0080           0
     348 A    44   ETH  H2   HGA30    0.090000        1.0080           0
     349 A    44   ETH  H3   HGA30    0.090000        1.0080           0
     350 A    44   ETH  H4   HGA30    0.090000        1.0080           0
     351 A    44   ETH  H5   HGA30    0.090000        1.0080           0
     352 A    44   ETH  H6   HGA30    0.090000        1.0080           0
     353 A    45   ETH  C1   CG3310   -0.270000       12.0110           0
     354 A    45   ETH  C2   CG3310   -0.270000       12.0110           0
     355 A    45   ETH  H1   HGA30    0.090000        1.0080           0
     356 A    45   ETH  H2   HGA30    0.090000        1.0080           0
     357 A    45   ETH  H3   HGA30    0.090000        1.0080           0
     358 A    45   ETH  H4   HGA30    0.090000        1.0080           0
     359 A    45   ETH  H5   HGA30    0.090000        1.0080           0
     360 A    45   ETH  H6   HGA30    0.090000        1.0080           0
     361 A    46   ETH  C1   CG3310   -0.270000       12.0110           0
     362 A    46   ETH  C2   CG3310   -0.270000       12.0110           0
     363 A    46   ETH  H1   HGA30    0.090000        1.0080           0
     364 A    46   ETH  H2   HGA30    0.090000        1.0080           0
     365 A    46   ETH  H3   HGA30    0.090000        1.0080           0
     366 A    46   ETH  H4   HGA30    0.090000        1.0080           0
     367 A    46   ETH  H5   HGA30    0.090000        1.0080           0
     368 A    46   ETH  H6   HGA30    0.090000        1.0080           0
     369 A    47   ETH  C1   CG3310   -0.270000       12.0110           0
     370 A    47   ETH  C2   CG3310   -0.270000       12.0110           0
     371 A    47   ETH  H1   HGA30    0.090000        1.0080           0
     372 A    47   ETH  H2   HGA30    0.090000        1.0080           0
     373 A    47   ETH  H3   HGA30    0.090000        1.0080           0
     374 A    47   ETH  H4   HGA30    0.090000        1.0080           0
     375 A    47   ETH  H5   HGA30    0.090000        1.0080           0
     376 A    47   ETH  H6   HGA30    0.090000        1.0080           0
     377 A    48   ETH  C1   CG3310   -0.270000       12.0110           0
     378 A    48   ETH  C2   CG3310   -0.270000       12.0110           0
     379 A    48   ETH  H1   HGA30    0.090000        1.0080           0
     380 A    48   ETH  H2   HGA30    0.090000        1.0080           0
     381 A    48   ETH  H3   HGA30    0.090000        1.0080           0
     382 A    48   ETH  H4   HGA30    0.090000        1.0080           0
     383 A    48   ETH  H5   HGA30    0.090000        1.0080           0
     384 A    48   ETH  H6   HGA30    0.090000        1.0080           0
     385 A    49   ETH  C1   CG3310   -0.270000       12.0110           0
     386 A    49   ETH  C2   CG3310   -0.270000       12.0110           0
     387 A    49   ETH  H1   HGA30    0.090000        1.0080           0
     388 A    49   ETH  H2   HGA30    0.090000        1.0080           0
     389 A    49   ETH  H3   HGA30    0.090000        1.0080           0
     390 A    49   ETH  H4   HGA30    0.090000        1.0080           0
     391 A    49   ETH  H5   HGA30    0.090000        1.0080           0
     392 A    49   ETH  H6   HGA30    0.090000        1.0080           0
     393 A    50   ETH  C1   CG3310   -0.270000       12.0110           0
     394 A    50   ETH  C2   CG3310   -0.270000       12.0110           0
     395 A    50   ETH  H1   HGA30    0.090000        1.0080           0
     396 A    50   ETH  H2   HGA30    0.090000        1.0080           0
     397 A    50   ETH  H3   HGA30    0.090000        1.0080           0
     398 A    50   ETH  H4   HGA30    0.090000        1.0080           0
     399 A    50   ETH  H5   HGA30    0.090000        1.0080           0
     400 A    50   ETH  H6   HGA30    0.090000        1.0080           0
     401 A    51   ETH  C1   CG3310   -0.270000       12.0110           0
     402 A    51   ETH  C2   CG3310   -0.270000       12.0110           0
     403 A    51   ETH  H1   HGA30    0.090000        1.0080           0
     404 A    51   ETH  H2   HGA30    0.090000        1.0080           0
     405 A    51   ETH  H3   HGA30    0.090000        1.0080           0
     406 A    51   ETH  H4   HGA30    0.090000        1.0080           0
     407 A    51   ETH  H5   HGA30    0.090000        1.0080           0
     408 A    51   ETH  H6   HGA30    0.090000        1.0080           0
     409 A    52   ETH  C1   CG3310   -0.270000       12.0110           0
     410 A    52   ETH  C2   CG3310   -0.270000       12.0110           0
     411 A    52   ETH  H1   HGA30    0.090000        1.0080           0
     412 A    52   ETH  H2   HGA30    0.090000        1.0080           0
     413 A    52   ETH  H3   HGA30    0.090000        1.0080           0
     414 A    52   ETH  H4   HGA30    0.090000        1.0080           0
     415 A    52   ETH  H5   HGA30    0.090000        1.0080           0
     416 A    52   ETH  H6   HGA30    0.090000        1.0080           0
     417 A    53   ETH  C1   CG3310   -0.270000       12.0110           0
     418 A    53   ETH  C2   CG3310   -0.270000       12.0110           0
     419 A    53   ETH  H1   HGA30    0.090000        1.0080           0
     420 A    53   ETH  H2   HGA30    0.090000        1.0080           0
     421 A    53   ETH  H3   HGA30    0.090000        1.0080           0
     422 A    53   ETH  H4   HGA30    0.090000        1.0080           0
     423 A    53   ETH  H5   HGA30    0.090000        1.0080           0
     424 A    53   ETH  H6   HGA30    0.090000        1.0080           0
     425 A    54   ETH  C1   CG3310   -0.270000       12.0110           0
     426 A    54   ETH  C2   CG3310   -0.270000       12.0110           0
     427 A    54   ETH  H1   HGA30    0.090000        1.0080           0
     428 A    54   ETH  H2   HGA30    0.090000        1.0080           0
     429 A    54   ETH  H3   HGA30    0.090000        1.0080           0
     430 A    54   ETH  H4   HGA30    0.090000        1.0080           0
     431 A    54   ETH  H5   HGA30    0.090000        1.0080           0
     432 A    54   ETH  H6   HGA30    0.090000        1.0080           0
     433 A    55   ETH  C1   CG3310   -0.270000       12.0110           0
     434 A    55   ETH  C2   CG3310   -0.270000       12.0110           0
     435 A    55   ETH  H1   HGA30    0.090000        1.0080           0
     436 A    55   ETH  H2   HGA30    0.090000        1.0080           0
     437 A    55   ETH  H3   HGA30    0.090000        1.0080           0
     438 A    55   ETH  H4   HGA30    0.090000        1.0080           0
     439 A    55   ETH  H5   HGA30    0.090000        1.0080           0
     440 A    55   ETH  H6   HGA30    0.090000        1.0080           0
     441 A    56   ETH  C1   CG3310   -0.270000       12.0110           0
     442 A    56   ETH  C2   CG3310   -0.270000       12.0110           0
     443 A    56   ETH  H1   HGA30    0.090000        1.0080           0
     444 A    56   ETH  H2   HGA30    0.090000        1.0080           0
     445 A    56   ETH  H3   HGA30    0.090000        1.0080           0
     446 A    56   ETH  H4   HGA30    0.090000        1.0080           0
     447 A    56   ETH  H5   HGA30    0.090000        1.0080           0
     448 A    56   ETH  H6   HGA30    0.090000        1.0080           0
     449 A    57   ETH  C1   CG3310   -0.270000       12.0110           0
     450 A    57   ETH  C2   CG3310   -0.270000       12.0110           0
     451 A    57   ETH  H1   HGA30    0.090000        1.0080           0
     452 A    57   ETH  H2   HGA30    0.090000        1.0080           0
     453 A    57   ETH  H3   HGA30    0.090000        1.0080           0
     454 A    57   ETH  H4   HGA30    0.090000        1.0080           0
     455 A    57   ETH  H5   HGA30    0.090000        1.0080           0
     456 A    57   ETH  H6   HGA30    0.090000        1.0080           0
     457 A    58   ETH  C1   CG3310   -0.270000       12.0110           0
     458 A    58   ETH  C2   CG3310   -0.270000       12.0110           0
     459 A    58   ETH  H1   HGA30    0.090000        1.0080           0
     460 A    58   ETH  H2   HGA30    0.090000        1.0080           0
     461 A    58   ETH  H3   HGA30    0.090000        1.0080           0
     462 A    58   ETH  H4   HGA30    0.090000        1.0080           0
     463 A    58   ETH  H5   HGA30    0.090000        1.0080           0
     464 A    58   ETH  H6   HGA30    0.090000        1.0080           0
     465 A    59   ETH  C1   CG3310   -0.270000       12.0110           0
     466 A    59   ETH  C2   CG3310   -0.270000       12.0110           0
     467 A    59   ETH  H1   HGA30    0.090000        1.0080           0
     468 A    59   ETH  H2   HGA30    0.090000        1.0080           0
     469 A    59   ETH  H3   HGA30    0.090000        1.0080           0
     470 A    59   ETH  H4   HGA30    0.090000        1.0080           0
     471 A    59   ETH  H5   HGA30    0.090000        1.0080           0
     472 A    59   ETH  H6   HGA30    0.090000        1.0080           0
     473 A    60   ETH  C1   CG3310   -0.270000       12.0110           0
     474 A    60   ETH  C2   CG3310   -0.270000       12.0110           0
     475 A    60   ETH  H1   HGA30    0.090000        1.0080           0
     476 A    60   ETH  H2   HGA30    0.090000        1.0080           0
     477 A    60   ETH  H3   HGA30    0.090000        1.0080           0
     478 A    60   ETH  H4   HGA30    0.090000        1.0080           0
     479 A    60   ETH  H5   HGA30    0.090000        1.0080           0
     480 A    60   ETH  H6   HGA30    0.090000        1.0080           0
     481 A    61   ETH  C1   CG3310   -0.270000       12.0110           0
     482 A    61   ETH  C2   CG3310   -0.270000       12.0110           0
     483 A    61   ETH  H1   HGA30    0.090000        1.0080           0
     484 A    61   ETH  H2   HGA30    0.090000        1.0080           0
     485 A    61   ETH  H3   HGA30    0.090000        1.0080           0
     486 A    61   ETH  H4   HGA30    0.090000        1.0080           0
     487 A    61   ETH  H5   HGA30    0.090000        1.0080           0
     488 A    61   ETH  H6   HGA30    0.090000        1.0080           0
     489 A    62   ETH  C1   CG3310   -0.270000       12.0110           0
     490 A    62   ETH  C2   CG3310   -0.270000       12.0110           0
     491 A    62   ETH  H1   HGA30    0.090000        1.0080           0
     492 A    62   ETH  H2   HGA30    0.090000        1.0080           0
     493 A    62   ETH  H3   HGA30    0.090000        1.0080           0
     494 A    62   ETH  H4   HGA30    0.090000        1.0080           0
     495 A    62   ETH  H5   HGA30    0.090000        1.0080           0
     496 A    62   ETH  H6   HGA30    0.090000        1.0080           0
     497 A    63   ETH  C1   CG3310   -0.270000       12.0110           0
     498 A    63   ETH  C2   CG3310   -0.270000       12.0110           0
     499 A    63   ETH  H1   HGA30    0.090000        1.0080           0
     500 A    63   ETH  H2   HGA30    0.090000        1.0080           0
     501 A    63   ETH  H3   HGA30    0.090000        1.0080           0
     502 A    63   ETH  H4   HGA30    0.090000        1.0080           0
     503 A    63   ETH  H5   HGA30    0.090000        1.0080           0
     504 A    63   ETH  H6   HGA30    0.090000        1.0080           0
     505 A    64   ETH  C1   CG3310   -0.270000       12.0110           0
     506 A    64   ETH  C2   CG3310   -0.270000       12.0110           0
     507 A    64   ETH  H1   HGA30    0.090000        1.0080           0
     508 A    64   ETH  H2   HGA30    0.090000        1.0080           0
     509 A    64   ETH  H3   HGA30    0.090000        1.0080           0
     510 A    64   ETH  H4   HGA30    0.090000        1.0080           0
     511 A    64   ETH  H5   HGA30    0.090000        1.0080           0
     512 A    64   ETH  H6   HGA30    0.090000        1.0080           0
     513 A    65   ETH  C1   CG3310   -0.270000       12.0110           0
     514 A    65   ETH  C2   CG3310   -0.270000       12.0110           0
     515 A    65   ETH  H1   HGA30    0.090000        1.0080           0
     516 A    65   ETH  H2   HGA30    0.090000        1.0080           0
     517 A    65   ETH  H3   HGA30    0.090000        1.0080           0
     518 A    65   ETH  H4   HGA30    0.090000        1.0080           0
     519 A    65   ETH  H5   HGA30    0.090000        1.0080           0
     520 A    65   ETH  H6   HGA30    0.090000        1.0080           0
     521 A    66   ETH  C1   CG3310   -0.270000       12.0110           0
     522 A    66   ETH  C2   CG3310   -0.270000       12.0110           0
     523 A    66   ETH  H1   HGA30    0.090000        1.0080           0
     524 A    66   ETH  H2   HGA30    0.090000        1.0080           0
     525 A    66   ETH  H3   HGA30    0.090000        1.0080           0
     526 A    66   ETH  H4   HGA30    0.090000        1.0080           0
     527 A    66   ETH  H5   HGA30    0.090000        1.0080           0
     528 A    66   ETH  H6   HGA30    0.090000        1.0080           0
     529 A    67   ETH  C1   CG3310   -0.270000       12.0110           0
     530 A    67   ETH  C2   CG3310   -0.270000       12.0110           0
     531 A    67   ETH  H1   HGA30    0.090000        1.0080           0
     532 A    67   ETH  H2   HGA30    0.090000        1.0080           0
     533 A    67   ETH  H3   HGA30    0.090000        1.0080           0
     534 A    67   ETH  H4   HGA30    0.090000        1.0080           0
     535 A    67   ETH  H5   HGA30    0.090000        1.0080           0
     536 A    67   ETH  H6   HGA30    0.090000        1.0080           0
     537 A    68   ETH  C1   CG3310   -0.270000       12.0110           0
     538 A    68   ETH  C2   CG3310   -0.270000       12.0110           0
     539 A    68   ETH  H1   HGA30    0.090000        1.0080           0
     540 A    68   ETH  H2   HGA30    0.090000        1.0080           0
     541 A    68   ETH  H3   HGA30    0.090000        1.0080           0
     542 A    68   ETH  H4   HGA30    0.090000        1.0080           0
     543 A    68   ETH  H5   HGA30    0.090000        1.0080           0
     544 A    68   ETH  H6   HGA30    0.090000        1.0080           0
     545 A    69   ETH  C1   CG3310   -0.270000       12.0110           0
     546 A    69   ETH  C2   CG3310   -0.270000       12.0110           0
     547 A    69   ETH  H1   HGA30    0.090000        1.0080           0
     548 A    69   ETH  H2   HGA30    0.090000        1.0080           0
     549 A    69   ETH  H3   HGA30    0.090000        1.0080           0
     550 A    69   ETH  H4   HGA30    0.090000        1.0080           0
     551 A    69   ETH  H5   HGA30    0.090000        1.0080           0
     552 A    69   ETH  H6   HGA30    0.090000        1.0080           0
     553 A    70   ETH  C1   CG3310   -0.270000       12.0110           0
     554 A    70   ETH  C2   CG3310   -0.270000       12.0110           0
     555 A    70   ETH  H1   HGA30    0.090000        1.0080           0
     556 A    70   ETH  H2   HGA30    0.090000        1.0080           0
     557 A    70   ETH  H3   HGA30    0.090000        1.0080           0
     558 A    70   ETH  H4   HGA30    0.090000        1.0080           0
     559 A    70   ETH  H5   HGA30    0.090000        1.0080           0
     560 A    70   ETH  H6   HGA30    0.090000        1.0080           0
     561 A    71   ETH  C1   CG3310   -0.270000       12.0110           0
     562 A    71   ETH  C2   CG3310   -0.270000       12.0110           0
     563 A    71   ETH  H1   HGA30    0.090000        1.0080           0
     564 A    71   ETH  H2   HGA30    0.090000        1.0080           0
     565 A    71   ETH  H3   HGA30    0.090000        1.0080           0
     566 A    71   ETH  H4   HGA30    0.090000        1.0080           0
     567 A    71   ETH  H5   HGA30    0.090000        1.0080           0
     568 A    71   ETH  H6   HGA30    0.090000        1.0080           0
     569 A    72   ETH  C1   CG3310   -0.270000       12.0110           0
     570 A    72   ETH  C2   CG3310   -0.270000       12.0110           0
     571 A    72   ETH  H1   HGA30    0.090000        1.0080           0
     572 A    72   ETH  H2   HGA30    0.090000        1.0080           0
     573 A    72   ETH  H3   HGA30    0.090000        1.0080           0
     574 A    72   ETH  H4   HGA30    0.090000        1.0080           0
     575 A    72   ETH  H5   HGA30    0.090000        1.0080           0
     576 A    72   ETH  H6   HGA30    0.090000        1.0080           0
     577 A    73   ETH  C1   CG3310   -0.270000       12.0110           0
     578 A    73   ETH  C2   CG3310   -0.270000       12.0110           0
     579 A    73   ETH  H1   HGA30    0.090000        1.0080           0
     580 A    73   ETH  H2   HGA30    0.090000        1.0080           0
     581 A    73   ETH  H3   HGA30    0.090000        1.0080           0
     582 A    73   ETH  H4   HGA30    0.090000        1.0080           0
     583 A    73   ETH  H5   HGA30    0.090000        1.0080           0
     584 A    73   ETH  H6   HGA30    0.090000        1.0080           0
     585 A    74   ETH  C1   CG3310   -0.270000       12.0110           0
     586 A    74   ETH  C2   CG3310   -0.270000       12.0110           0
     587 A    74   ETH  H1   HGA30    0.090000        1.0080           0
     588 A    74   ETH  H2   HGA30    0.090000        1.0080           0
     589 A    74   ETH  H3   HGA30    0.090000        1.0080           0
     590 A    74   ETH  H4   HGA30    0.090000        1.0080           0
     591 A    74   ETH  H5   HGA30    0.090000        1.0080           0
     592 A    74   ETH  H6   HGA30    0.090000        1.0080           0
     593 A    75   ETH  C1   CG3310   -0.270000       12.0110           0
     594 A    75   ETH  C2   CG3310   -0.270000       12.0110           0
     595 A    75   ETH  H1   HGA30    0.090000        1.0080           0
     596 A    75   ETH  H2   HGA30    0.090000        1.0080           0
     597 A    75   ETH  H3   HGA30    0.090000        1.0080           0
     598 A    75   ETH  H4   HGA30    0.090000        1.0080           0
     599 A    75   ETH  H5   HGA30    0.090000        1.0080           0
     600 A    75   ETH  H6   HGA30    0.090000        1.0080           0
     601 A    76   ETH  C1   CG3310   -0.270000       12.0110           0
     602 A    76   ETH  C2   CG3310   -0.270000       12.0110           0
     603 A    76   ETH  H1   HGA30    0.090000        1.0080           0
     604 A    76   ETH  H2   HGA30    0.090000        1.0080           0
     605 A    76   ETH  H3   HGA30    0.090000        1.0080           0
     606 A    76   ETH  H4   HGA30    0.090000        1.0080           0
     607 A    76   ETH  H5   HGA30    0.090000        1.0080           0
     608 A    76   ETH  H6   HGA30    0.090000        1.0080           0
     609 A    77   ETH  C1   CG3310   -0.270000       12.0110           0
     610 A    77   ETH  C2   CG3310   -0.270000       12.0110           0
     611 A    77   ETH  H1   HGA30    0.090000        1.0080           0
     612 A    77   ETH  H2   HGA30    0.090000        1.0080           0
     613 A    77   ETH  H3   HGA30    0.090000        1.0080           0
     614 A    77   ETH  H4   HGA30    0.090000        1.0080           0
     615 A    77   ETH  H5   HGA30    0.090000        1.0080           0
     616 A    77   ETH  H6   HGA30    0.090000        1.0080           0
     617 A    78   ETH  C1   CG3310   -0.270000       12.0110           0
     618 A    78   ETH  C2   CG3310   -0.270000       12.0110           0
     619 A    78   ETH  H1   HGA30    0.090000        1.0080           0
     620 A    78   ETH  H2   HGA30    0.090000        1.0080           0
     621 A    78   ETH  H3   HGA30    0.090000        1.0080           0
     622 A    78   ETH  H4   HGA30    0.090000        1.0080           0
     623 A    78   ETH  H5   HGA30    0.090000        1.0080           0
     624 A    78   ETH  H6   HGA30    0.090000        1.0080           0
     625 A    79   ETH  C1   CG3310   -0.270000       12.0110           0
     626 A    79   ETH  C2   CG3310   -0.270000       12.0110           0
     627 A    79   ETH  H1   HGA30    0.090000        1.0080           0
     628 A    79   ETH  H2   HGA30    0.090000        1.0080           0
     629 A    79   ETH  H3   HGA30    0.090000        1.0080           0
     630 A    79   ETH  H4   HGA30    0.090000        1.0080           0
     631 A    79   ETH  H5   HGA30    0.090000        1.0080           0
     632 A    79   ETH  H6   HGA30    0.090000        1.0080           0
     633 A    80   ETH  C1   CG3310   -0.270000       12.0110           0
     634 A    80   ETH  C2   CG3310   -0.270000       12.0110           0
     635 A    80   ETH  H1   HGA30    0.090000        1.0080           0
     636 A    80   ETH  H2   HGA30    0.090000        1.0080           0
     637 A    80   ETH  H3   HGA30    0.090000        1.0080           0
     638 A    80   ETH  H4   HGA30    0.090000        1.0080           0
     639 A    80   ETH  H5   HGA30    0.090000        1.0080           0
     640 A    80   ETH  H6   HGA30    0.090000        1.0080           0
     641 A    81   ETH  C1   CG3310   -0.270000       12.0110           0
     642 A    81   ETH  C2   CG3310   -0.270000       12.0110           0
     643 A    81   ETH  H1   HGA30    0.090000        1.0080           0
     644 A    81   ETH  H2   HGA30    0.090000        1.0080           0
     645 A    81   ETH  H3   HGA30    0.090000        1.0080           0
     646 A    81   ETH  H4   HGA30    0.090000        1.0080           0
     647 A    81   ETH  H5   HGA30    0.090000        1.0080           0
     648 A    81   ETH  H6   HGA30    0.090000        1.0080           0
     649 A    82   ETH  C1   CG3310   -0.270000       12.0110           0
     650 A    82   ETH  C2   CG3310   -0.270000       12.0110           0
     651 A    82   ETH  H1   HGA30    0.090000        1.0080           0
     652 A    82   ETH  H2   HGA30    0.090000        1.0080           0
     653 A    82   ETH  H3   HGA30    0.090000        1.0080           0
     654 A    82   ETH  H4   HGA30    0.090000        1.0080           0
     655 A    82   ETH  H5   HGA30    0.090000        1.0080           0
     656 A    82   ETH  H6   HGA30    0.090000        1.0080           0
     657 A    83   ETH  C1   CG3310   -0.270000       12.0110           0
     658 A    83   ETH  C2   CG3310   -0.270000       12.0110           0
     659 A    83   ETH  H1   HGA30    0.090000        1.0080           0
     660 A    83   ETH  H2   HGA30    0.090000        1.0080           0
     661 A    83   ETH  H3   HGA30    0.090000        1.0080           0
     662 A    83   ETH  H4   HGA30    0.090000        1.0080           0
     663 A    83   ETH  H5   HGA30    0.090000        1.0080           0
     664 A    83   ETH  H6   HGA30    0.090000        1.0080           0
     665 A    84   ETH  C1   CG3310   -0.270000       12.0110           0
     666 A    84   ETH  C2   CG3310   -0.270000       12.0110           0
     667 A    84   ETH  H1   HGA30    0.090000        1.0080           0
     668 A    84   ETH  H2   HGA30    0.090000        1.0080           0
     669 A    84   ETH  H3   HGA30    0.090000        1.0080           0
     670 A    84   ETH  H4   HGA30    0.090000        1.0080           0
     671 A    84   ETH  H5   HGA30    0.090000        1.0080           0
     672 A    84   ETH  H6   HGA30    0.090000        1.0080           0
     673 A    85   ETH  C1   CG3310   -0.270000       12.0110           0
     674 A    85   ETH  C2   CG3310   -0.270000       12.0110           0
     675 A    85   ETH  H1   HGA30    0.090000        1.0080           0
     676 A    85   ETH  H2   HGA30    0.090000        1.0080           0
     677 A    85   ETH  H3   HGA30    0.090000        1.0080           0
     678 A    85   ETH  H4   HGA30    0.090000        1.0080           0
     679 A    85   ETH  H5   HGA30    0.090000        1.0080           0
     680 A    85   ETH  H6   HGA30    0.090000        1.0080           0
     681 A    86   ETH  C1   CG3310   -0.270000       12.0110           0
     682 A    86   ETH  C2   CG3310   -0.270000       12.0110           0
     683 A    86   ETH  H1   HGA30    0.090000        1.0080           0
     684 A    86   ETH  H2   HGA30    0.090000        1.0080           0
     685 A    86   ETH  H3   HGA30    0.090000        1.0080           0
     686 A    86   ETH  H4   HGA30    0.090000        1.0080           0
     687 A    86   ETH  H5   HGA30    0.090000        1.0080           0
     688 A    86   ETH  H6   HGA30    0.090000        1.0080           0
     689 A    87   ETH  C1   CG3310   -0.270000       12.0110           0
     690 A    87   ETH  C2   CG3310   -0.270000       12.0110           0
     691 A    87   ETH  H1   HGA30    0.090000        1.0080           0
     692 A    87   ETH  H2   HGA30    0.090000        1.0080           0
     693 A    87   ETH  H3   HGA30    0.090000        1.0080           0
     694 A    87   ETH  H4   HGA30    0.090000        1.0080           0
     695 A    87   ETH  H5   HGA30    0.090000        1.0080           0
     696 A    87   ETH  H6   HGA30    0.090000        1.0080           0
     697 A    88   ETH  C1   CG3310   -0.270000       12.0110           0
     698 A    88   ETH  C2   CG3310   -0.270000       12.0110           0
     699 A    88   ETH  H1   HGA30    0.090000        1.0080           0
     700 A    88   ETH  H2   HGA30    0.090000        1.0080           0
     701 A    88   ETH  H3   HGA30    0.090000        1.0080           0
     702 A    88   ETH  H4   HGA30    0.090000        1.0080           0
     703 A    88   ETH  H5   HGA30    0.090000        1.0080           0
     704 A    88   ETH  H6   HGA30    0.090000        1.0080           0
     705 A    89   ETH  C1   CG3310   -0.270000       12.0110           0
     706 A    89   ETH  C2   CG3310   -0.270000       12.0110           0
     707 A    89   ETH  H1   HGA30    0.090000        1.0080           0
     708 A    89   ETH  H2   HGA30    0.090000        1.0080           0
     709 A    89   ETH  H3   HGA30    0.090000        1.0080           0
     710 A    89   ETH  H4   HGA30    0.090000        1.0080           0
     711 A    89   ETH  H5   HGA30    0.090000        1.0080           0
     712 A    89   ETH  H6   HGA30    0.090000        1.0080           0
     713 A    90   ETH  C1   CG3310   -0.270000       12.0110           0
     714 A    90   ETH  C2   CG3310   -0.270000       12.0110           0
     715 A    90   ETH  H1   HGA30    0.090000        1.0080           0
     716 A    90   ETH  H2   HGA30    0.090000        1.0080           0
     717 A    90   ETH  H3   HGA30    0.090000        1.0080           0
     718 A    90   ETH  H4   HGA30    0.090000        1.0080           0
     719 A    90   ETH  H5   HGA30    0.090000        1.0080           0
     720 A    90   ETH  H6   HGA30    0.090000        1.0080           0
     721 A    91   ETH  C1   CG3310   -0.270000       12.0110           0
     722 A    91   ETH  C2   CG3310   -0.270000       12.0110           0
     723 A    91   ETH  H1   HGA30    0.090000        1.0080           0
     724 A    91   ETH  H2   HGA30    0.090000        1.0080           0
     725 A    91   ETH  H3   HGA30    0.090000        1.0080           0
     726 A    91   ETH  H4   HGA30    0.090000        1.0080           0
     727 A    91   ETH  H5   HGA30    0.090000        1.0080           0
     728 A    91   ETH  H6   HGA30    0.090000        1.0080           0
     729 A    92   ETH  C1   CG3310   -0.270000       12.0110           0
     730 A    92   ETH  C2   CG3310   -0.270000       12.0110           0
     731 A    92   ETH  H1   HGA30    0.090000        1.0080           0
     732 A    92   ETH  H2   HGA30    0.090000        1.0080           0
     733 A    92   ETH  H3   HGA30    0.090000        1.0080           0
     734 A    92   ETH  H4   HGA30    0.090000        1.0080           0
     735 A    92   ETH  H5   HGA30    0.090000        1.0080           0
     736 A    92   ETH  H6   HGA30    0.090000        1.0080           0
     737 A    93   ETH  C1   CG3310   -0.270000       12.0110           0
     738 A    93   ETH  C2   CG3310   -0.270000       12.0110           0
     739 A    93   ETH  H1   HGA30    0.090000        1.0080           0
     740 A    93   ETH  H2   HGA30    0.090000        1.0080           0
     741 A    93   ETH  H3   HGA30    0.090000        1.0080           0
     742 A    93   ETH  H4   HGA30    0.090000        1.0080           0
     743 A    93   ETH  H5   HGA30    0.090000        1.0080           0
     744 A    93   ETH  H6   HGA30    0.090000        1.0080           0
     745 A    94   ETH  C1   CG3310   -0.270000       12.0110           0
     746 A    94   ETH  C2   CG3310   -0.270000       12.0110           0
     747 A    94   ETH  H1   HGA30    0.090000        1.0080           0
     748 A    94   ETH  H2   HGA30    0.090000        1.0080           0
     749 A    94   ETH  H3   HGA30    0.090000        1.0080           0
     750 A    94   ETH  H4   HGA30    0.090000        1.0080           0
     751 A    94   ETH  H5   HGA30    0.090000        1.0080           0
     752 A    94   ETH  H6   HGA30    0.090000        1.0080           0
     753 A    95   ETH  C1   CG3310   -0.270000       12.0110           0
     754 A    95   ETH  C2   CG3310   -0.270000       12.0110           0
     755 A    95   ETH  H1   HGA30    0.090000        1.0080           0
     756 A    95   ETH  H2   HGA30    0.090000        1.0080           0
     757 A    95   ETH  H3   HGA30    0.090000        1.0080           0
     758 A    95   ETH  H4   HGA30    0.090000        1.0080           0
     759 A    95   ETH  H5   HGA30    0.090000        1.0080           0
     760 A    95   ETH  H6   HGA30    0.090000        1.0080           0
     761 A    96   ETH  C1   CG3310   -0.270000       12.0110           0
     762 A    96   ETH  C2   CG3310   -0.270000       12.0110           0
     763 A    96   ETH  H1   HGA30    0.090000        1.0080           0
     764 A    96   ETH  H2   HGA30    0.090000        1.0080           0
     765 A    96   ETH  H3   HGA30    0.090000        1.0080           0
     766 A    96   ETH  H4   HGA30    0.090000        1.0080           0
     767 A    96   ETH  H5   HGA30    0.090000        1.0080           0
     768 A    96   ETH  H6   HGA30    0.090000        1.0080           0
     769 A    97   ETH  C1   CG3310   -0.270000       12.0110           0
     770 A    97   ETH  C2   CG3310   -0.270000       12.0110           0
     771 A    97   ETH  H1   HGA30    0.090000        1.0080           0
     772 A    97   ETH  H2   HGA30    0.090000        1.0080           0
     773 A    97   ETH  H3   HGA30    0.090000        1.0080           0
     774 A    97   ETH  H4   HGA30    0.090000        1.0080           0
     775 A    97   ETH  H5   HGA30    0.090000        1.0080           0
     776 A    97   ETH  H6   HGA30    0.090000        1.0080           0
     777 A    98   ETH  C1   CG3310   -0.270000       12.0110           0
     778 A    98   ETH  C2   CG3310   -0.270000       12.0110           0
     779 A    98   ETH  H1   HGA30    0.090000        1.0080           0
     780 A    98   ETH  H2   HGA30    0.090000        1.0080           0
     781 A    98   ETH  H3   HGA30    0.090000        1.0080           0
     782 A    98   ETH  H4   HGA30    0.090000        1.0080           0
     783 A    98   ETH  H5   HGA30    0.090000        1.0080           0
     784 A    98   ETH  H6   HGA30    0.090000        1.0080           0
     785 A    99   ETH  C1   CG3310   -0.270000       12.0110           0
     786 A    99   ETH  C2   CG3310   -0.270000       12.0110           0
     787 A    99   ETH  H1   HGA30    0.090000        1.0080           0
     788 A    99   ETH  H2   HGA30    0.090000        1.0080           0
     789 A    99   ETH  H3   HGA30    0.090000        1.0080           0
     790 A    99   ETH  H4   HGA30    0.090000        1.0080           0
     791 A    99   ETH  H5   HGA30    0.090000        1.0080           0
     792 A    99   ETH  H6   HGA30    0.090000        1.0080           0
     793 A    100  ETH  C1   CG3310   -0.270000       12.0110           0
     794 A    100  ETH  C2   CG3310   -0.270000       12.0110           0
     795 A    100  ETH  H1   HGA30    0.090000        1.0080           0
     796 A    100  ETH  H2   HGA30    0.090000        1.0080           0
     797 A    100  ETH  H3   HGA30    0.090000        1.0080           0
     798 A    100  ETH  H4   HGA30    0.090000        1.0080           0
     799 A    100  ETH  H5   HGA30    0.090000        1.0080           0
     800 A    100  ETH  H6   HGA30    0.090000        1.0080           0
     801 A    101  ETH  C1   CG3310   -0.270000       12.0110           0
     802 A    101  ETH  C2   CG3310   -0.270000       12.0110           0
     803 A    101  ETH  H1   HGA30    0.090000        1.0080           0
     804 A    101  ETH  H2   HGA30    0.090000        1.0080           0
     805 A    101  ETH  H3   HGA30    0.090000        1.0080           0
     806 A    101  ETH  H4   HGA30    0.090000        1.0080           0
     807 A    101  ETH  H5   HGA30    0.090000        1.0080           0
     808 A    101  ETH  H6   HGA30    0.090000        1.0080           0
     809 A    102  ETH  C1   CG3310   -0.270000       12.0110           0
     810 A    102  ETH  C2   CG3310   -0.270000       12.0110           0
     811 A    102  ETH  H1   HGA30    0.090000        1.0080           0
     812 A    102  ETH  H2   HGA30    0.090000        1.0080           0
     813 A    102  ETH  H3   HGA30    0.090000        1.0080           0
     814 A    102  ETH  H4   HGA30    0.090000        1.0080           0
     815 A    102  ETH  H5   HGA30    0.090000        1.0080           0
     816 A    102  ETH  H6   HGA30    0.090000        1.0080           0
     817 A    103  ETH  C1   CG3310   -0.270000       12.0110           0
     818 A    103  ETH  C2   CG3310   -0.270000       12.0110           0
     819 A    103  ETH  H1   HGA30    0.090000        1.0080           0
     820 A    103  ETH  H2   HGA30    0.090000        1.0080           0
     821 A    103  ETH  H3   HGA30    0.090000        1.0080           0
     822 A    103  ETH  H4   HGA30    0.090000        1.0080           0
     823 A    103  ETH  H5   HGA30    0.090000        1.0080           0
     824 A    103  ETH  H6   HGA30    0.090000        1.0080           0
     825 A    104  ETH  C1   CG3310   -0.270000       12.0110           0
     826 A    104  ETH  C2   CG3310   -0.270000       12.0110           0
     827 A    104  ETH  H1   HGA30    0.090000        1.0080           0
     828 A    104  ETH  H2   HGA30    0.090000        1.0080           0
     829 A    104  ETH  H3   HGA30    0.090000        1.0080           0
     830 A    104  ETH  H4   HGA30    0.090000        1.0080           0
     831 A    104  ETH  H5   HGA30    0.090000        1.0080           0
     832 A    104  ETH  H6   HGA30    0.090000        1.0080           0
     833 A    105  ETH  C1   CG3310   -0.270000       12.0110           0
     834 A    105  ETH  C2   CG3310   -0.270000       12.0110           0
     835 A    105  ETH  H1   HGA30    0.090000        1.0080           0
     836 A    105  ETH  H2   HGA30    0.090000        1.0080           0
     837 A    105  ETH  H3   HGA30    0.090000        1.0080           0
     838 A    105  ETH  H4   HGA30    0.090000        1.0080           0
     839 A    105  ETH  H5   HGA30    0.090000        1.0080           0
     840 A    105  ETH  H6   HGA30    0.090000        1.0080           0
     841 A    106  ETH  C1   CG3310   -0.270000       12.0110           0
     842 A    106  ETH  C2   CG3310   -0.270000       12.0110           0
     843 A    106  ETH  H1   HGA30    0.090000        1.0080           0
     844 A    106  ETH  H2   HGA30    0.090000        1.0080           0
     845 A    106  ETH  H3   HGA30    0.090000        1.0080           0
     846 A    106  ETH  H4   HGA30    0.090000        1.0080           0
     847 A    106  ETH  H5   HGA30    0.090000        1.0080           0
     848 A    106  ETH  H6   HGA30    0.090000        1.0080           0
     849 A    107  ETH  C1   CG3310   -0.270000       12.0110           0
     850 A    107  ETH  C2   CG3310   -0.270000       12.0110           0
     851 A    107  ETH  H1   HGA30    0.090000        1.0080           0
     852 A    107  ETH  H2   HGA30    0.090000        1.0080           0
     853 A    107  ETH  H3   HGA30    0.090000        1.0080           0
     854 A    107  ETH  H4   HGA30    0.090000        1.0080           0
     855 A    107  ETH  H5   HGA30    0.090000        1.0080           0
     856 A    107  ETH  H6   HGA30    0.090000        1.0080           0
     857 A    108  ETH  C1   CG3310   -0.270000       12.0110           0
     858 A    108  ETH  C2   CG3310   -0.270000       12.0110           0
     859 A    108  ETH  H1   HGA30    0.090000        1.0080           0
     860 A    108  ETH  H2   HGA30    0.090000        1.0080           0
     861 A    108  ETH  H3   HGA30    0.090000        1.0080           0
     862 A    108  ETH  H4   HGA30    0.090000        1.0080           0
     863 A    108  ETH  H5   HGA30    0.090000        1.0080           0
     864 A    108  ETH  H6   HGA30    0.090000        1.0080           0
     865 A    109  ETH  C1   CG3310   -0.270000       12.0110           0
     866 A    109  ETH  C2   CG3310   -0.270000       12.0110           0
     867 A    109  ETH  H1   HGA30    0.090000        1.0080           0
     868 A    109  ETH  H2   HGA30    0.090000        1.0080           0
     869 A    109  ETH  H3   HGA30    0.090000        1.0080           0
     870 A    109  ETH  H4   HGA30    0.090000        1.0080           0
     871 A    109  ETH  H5   HGA30    0.090000        1.0080           0
     872 A    109  ETH  H6   HGA30    0.090000        1.0080           0
     873 A    110  ETH  C1   CG3310   -0.270000       12.0110           0
     874 A    110  ETH  C2   CG3310   -0.270000       12.0110           0
     875 A    110  ETH  H1   HGA30    0.090000        1.0080           0
     876 A    110  ETH  H2   HGA30    0.090000        1.0080           0
     877 A    110  ETH  H3   HGA30    0.090000        1.0080           0
     878 A    110  ETH  H4   HGA30    0.090000        1.0080           0
     879 A    110  ETH  H5   HGA30    0.090000        1.0080           0
     880 A    110  ETH  H6   HGA30    0.090000        1.0080           0
     881 A    111  ETH  C1   CG3310   -0.270000       12.0110           0
     882 A    111  ETH  C2   CG3310   -0.270000       12.0110           0
     883 A    111  ETH  H1   HGA30    0.090000        1.0080           0
     884 A    111  ETH  H2   HGA30    0.090000        1.0080           0
     885 A    111  ETH  H3   HGA30    0.090000        1.0080           0
     886 A    111  ETH  H4   HGA30    0.090000        1.0080           0
     887 A    111  ETH  H5   HGA30    0.090000        1.0080           0
     888 A    111  ETH  H6   HGA30    0.090000        1.0080           0
     889 A    112  ETH  C1   CG3310   -0.270000       12.0110           0
     890 A    112  ETH  C2   CG3310   -0.270000       12.0110           0
     891 A    112  ETH  H1   HGA30    0.090000        1.0080           0
     892 A    112  ETH  H2   HGA30    0.090000        1.0080           0
     893 A    112  ETH  H3   HGA30    0.090000        1.0080           0
     894 A    112  ETH  H4   HGA30    0.090000        1.0080           0
     895 A    112  ETH  H5   HGA30    0.090000        1.0080           0
     896 A    112  ETH  H6   HGA30    0.090000        1.0080           0
     897 A    113  ETH  C1   CG3310   -0.270000       12.0110           0
     898 A    113  ETH  C2   CG3310   -0.270000       12.0110           0
     899 A    113  ETH  H1   HGA30    0.090000        1.0080           0
     900 A    113  ETH  H2   HGA30    0.090000        1.0080           0
     901 A    113  ETH  H3   HGA30    0.090000        1.0080           0
     902 A    113  ETH  H4   HGA30    0.090000        1.0080           0
     903 A    113  ETH  H5   HGA30    0.090000        1.0080           0
     904 A    113  ETH  H6   HGA30    0.090000        1.0080           0
     905 A    114  ETH  C1   CG3310   -0.270000       12.0110           0
     906 A    114  ETH  C2   CG3310   -0.270000       12.0110           0
     907 A    114  ETH  H1   HGA30    0.090000        1.0080           0
     908 A    114  ETH  H2   HGA30    0.090000        1.0080           0
     909 A    114  ETH  H3   HGA30    0.090000        1.0080           0
     910 A    114  ETH  H4   HGA30    0.090000        1.0080           0
     911 A    114  ETH  H5   HGA30    0.090000        1.0080           0
     912 A    114  ETH  H6   HGA30    0.090000        1.0080           0
     913 A    115  ETH  C1   CG3310   -0.270000       12.0110           0
     914 A    115  ETH  C2   CG3310   -0.270000       12.0110           0
     915 A    115  ETH  H1   HGA30    0.090000        1.0080           0
     916 A    115  ETH  H2   HGA30    0.090000        1.0080           0
     917 A    115  ETH  H3   HGA30    0.090000        1.0080           0
     918 A    115  ETH  H4   HGA30    0.090000        1.0080           0
     919 A    115  ETH  H5   HGA30    0.090000        1.0080           0
     920 A    115  ETH  H6   HGA30    0.090000        1.0080           0
     921 A    116  ETH  C1   CG3310   -0.270000       12.0110           0
     922 A    116  ETH  C2   CG3310   -0.270000       12.0110           0
     923 A    116  ETH  H1   HGA30    0.090000        1.0080           0
     924 A    116  ETH  H2   HGA30    0.090000        1.0080           0
     925 A    116  ETH  H3   HGA30    0.090000        1.0080           0
     926 A    116  ETH  H4   HGA30    0.090000        1.0080           0
     927 A    116  ETH  H5   HGA30    0.090000        1.0080           0
     928 A    116  ETH  H6   HGA30    0.090000        1.0080           0
     929 A    117  ETH  C1   CG3310   -0.270000       12.0110           0
     930 A    117  ETH  C2   CG3310   -0.270000       12.0110           0
     931 A    117  ETH  H1   HGA30    0.090000        1.0080           0
     932 A    117  ETH  H2   HGA30    0.090000        1.0080           0
     933 A    117  ETH  H3   HGA30    0.090000        1.0080           0
     934 A    117  ETH  H4   HGA30    0.090000        1.0080           0
     935 A    117  ETH  H5   HGA30    0.090000        1.0080           0
     936 A    117  ETH  H6   HGA30    0.090000        1.0080           0
     937 A    118  ETH  C1   CG3310   -0.270000       12.0110           0
     938 A    118  ETH  C2   CG3310   -0.270000       12.0110           0
     939 A    118  ETH  H1   HGA30    0.090000        1.0080           0
     940 A    118  ETH  H2   HGA30    0.090000        1.0080           0
     941 A    118  ETH  H3   HGA30    0.090000        1.0080           0
     942 A    118  ETH  H4   HGA30    0.090000        1.0080           0
     943 A    118  ETH  H5   HGA30    0.090000        1.0080           0
     944 A    118  ETH  H6   HGA30    0.090000        1.0080           0
     945 A    119  ETH  C1   CG3310   -0.270000       12.0110           0
     946 A    119  ETH  C2   CG3310   -0.270000       12.0110           0
     947 A    119  ETH  H1   HGA30    0.090000        1.0080           0
     948 A    119  ETH  H2   HGA30    0.090000        1.0080           0
     949 A    119  ETH  H3   HGA30    0.090000        1.0080           0
     950 A    119  ETH  H4   HGA30    0.090000        1.0080           0
     951 A    119  ETH  H5   HGA30    0.090000        1.0080           0
     952 A    119  ETH  H6   HGA30    0.090000        1.0080           0
     953 A    120  ETH  C1   CG3310   -0.270000       12.0110           0
     954 A    120  ETH  C2   CG3310   -0.270000       12.0110           0
     955 A    120  ETH  H1   HGA30    0.090000        1.0080           0
     956 A    120  ETH  H2   HGA30    0.090000        1.0080           0
     957 A    120  ETH  H3   HGA30    0.090000        1.0080           0
     958 A    120  ETH  H4   HGA30    0.090000        1.0080           0
     959 A    120  ETH  H5   HGA30    0.090000        1.0080           0
     960 A    120  ETH  H6   HGA30    0.090000        1.0080           0
     961 A    121  ETH  C1   CG3310   -0.270000       12.0110           0
     962 A    121  ETH  C2   CG3310   -0.270000       12.0110           0
     963 A    121  ETH  H1   HGA30    0.090000        1.0080           0
     964 A    121  ETH  H2   HGA30    0.090000        1.0080           0
     965 A    121  ETH  H3   HGA30    0.090000        1.0080           0
     966 A    121  ETH  H4   HGA30    0.090000        1.0080           0
     967 A    121  ETH  H5   HGA30    0.090000        1.0080           0
     968 A    121  ETH  H6   HGA30    0.090000        1.0080           0
     969 A    122  ETH  C1   CG3310   -0.270000       12.0110           0
     970 A    122  ETH  C2   CG3310   -0.270000       12.0110           0
     971 A    122  ETH  H1   HGA30    0.090000        1.0080           0
     972 A    122  ETH  H2   HGA30    0.090000        1.0080           0
     973 A    122  ETH  H3   HGA30    0.090000        1.0080           0
     974 A    122  ETH  H4   HGA30    0.090000        1.0080           0
     975 A    122  ETH  H5   HGA30    0.090000        1.0080           0
     976 A    122  ETH  H6   HGA30    0.090000        1.0080           0
     977 A    123  ETH  C1   CG3310   -0.270000       12.0110           0
     978 A    123  ETH  C2   CG3310   -0.270000       12.0110           0
     979 A    123  ETH  H1   HGA30    0.090000        1.0080           0
     980 A    123  ETH  H2   HGA30    0.090000        1.0080           0
     981 A    123  ETH  H3   HGA30    0.090000        1.0080           0
     982 A    123  ETH  H4   HGA30    0.090000        1.0080           0
     983 A    123  ETH  H5   HGA30    0.090000        1.0080           0
     984 A    123  ETH  H6   HGA30    0.090000        1.0080           0
     985 A    124  ETH  C1   CG3310   -0.270000       12.0110           0
     986 A    124  ETH  C2   CG3310   -0.270000       12.0110           0
     987 A    124  ETH  H1   HGA30    0.090000        1.0080           0
     988 A    124  ETH  H2   HGA30    0.090000        1.0080           0
     989 A    124  ETH  H3   HGA30    0.090000        1.0080           0
     990 A    124  ETH  H4   HGA30    0.090000        1.0080           0
     991 A    124  ETH  H5   HGA30    0.090000        1.0080           0
     992 A    124  ETH  H6   HGA30    0.090000        1.0080           0
     993 A    125  ETH  C1   CG3310   -0.270000       12.0110           0
     994 A    125  ETH  C2   CG3310   -0.270000       12.0110           0
     995 A    125  ETH  H1   HGA30    0.090000        1.0080           0
     996 A    125  ETH  H2   HGA30    0.090000        1.0080           0
     997 A    125  ETH  H3   HGA30    0.090000        1.0080           0
     998 A    125  ETH  H4   HGA30    0.090000        1.0080           0
     999 A    125  ETH  H5   HGA30    0.090000        1.0080           0
    1000 A    125  ETH  H6   HGA30    0.090000        1.0080           0
    1001 A    126  ETH  C1   CG3310   -0.270000       12.0110           0
    1002 A    126  ETH  C2   CG3310   -0.270000       12.0110           0
    1003 A    126  ETH  H1   HGA30    0.090000        1.0080           0
    1004 A    126  ETH  H2   HGA30    0.090000        1.0080           0
    1005 A    126  ETH  H3   HGA30    0.090000        1.0080           0
    1006 A    126  ETH  H4   HGA30    0.090000        1.0080           0
    1007 A    126  ETH  H5   HGA30    0.090000        1.0080           0
    1008 A    126  ETH  H6   HGA30    0.090000        1.0080           0
    1009 A    127  ETH  C1   CG3310   -0.270000       12.0110           0
    1010 A    127  ETH  C2   CG3310   -0.270000       12.0110           0
    1011 A    127  ETH  H1   HGA30    0.090000        1.0080           0
    1012 A    127  ETH  H2   HGA30    0.090000        1.0080           0
    1013 A    127  ETH  H3   HGA30    0.090000        1.0080           0
    1014 A    127  ETH  H4   HGA30    0.090000        1.0080           0
    1015 A    127  ETH  H5   HGA30    0.090000        1.0080           0
    1016 A    127  ETH  H6   HGA30    0.090000        1.0080           0
    1017 A    128  ETH  C1   CG3310   -0.270000       12.0110           0
    1018 A    128  ETH  C2   CG3310   -0.270000       12.0110           0
    1019 A    128  ETH  H1   HGA30    0.090000        1.0080           0
    1020 A    128  ETH  H2   HGA30    0.090000        1.0080           0
    1021 A    128  ETH  H3   HGA30    0.090000        1.0080           0
    1022 A    128  ETH  H4   HGA30    0.090000        1.0080           0
    1023 A    128  ETH  H5   HGA30    0.090000        1.0080           0
    1024 A    128  ETH  H6   HGA30    0.090000        1.0080           0
    1025 A    129  ETH  C1   CG3310   -0.270000       12.0110           0
    1026 A    129  ETH  C2   CG3310   -0.270000       12.0110           0
    1027 A    129  ETH  H1   HGA30    0.090000        1.0080           0
    1028 A    129  ETH  H2   HGA30    0.090000        1.0080           0
    1029 A    129  ETH  H3   HGA30    0.090000        1.0080           0
    1030 A    129  ETH  H4   HGA30    0.090000        1.0080           0
    1031 A    129  ETH  H5   HGA30    0.090000        1.0080           0
    1032 A    129  ETH  H6   HGA30    0.090000        1.0080           0
    1033 A    130  ETH  C1   CG3310   -0.270000       12.0110           0
    1034 A    130  ETH  C2   CG3310   -0.270000       12.0110           0
    1035 A    130  ETH  H1   HGA30    0.090000        1.0080           0
    1036 A    130  ETH  H2   HGA30    0.090000        1.0080           0
    1037 A    130  ETH  H3   HGA30    0.090000        1.0080           0
    1038 A    130  ETH  H4   HGA30    0.090000        1.0080           0
    1039 A    130  ETH  H5   HGA30    0.090000        1.0080           0
    1040 A    130  ETH  H6   HGA30    0.090000        1.0080           0
    1041 A    131  ETH  C1   CG3310   -0.270000       12.0110           0
    1042 A    131  ETH  C2   CG3310   -0.270000       12.0110           0
    1043 A    131  ETH  H1   HGA30    0.090000        1.0080           0
    1044 A    131  ETH  H2   HGA30    0.090000        1.0080           0
    1045 A    131  ETH  H3   HGA30    0.090000        1.0080           0
    1046 A    131  ETH  H4   HGA30    0.090000        1.0080           0
    1047 A    131  ETH  H5   HGA30    0.090000        1.0080           0
    1048 A    131  ETH  H6   HGA30    0.090000        1.0080           0
    1049 A    132  ETH  C1   CG3310   -0.270000       12.0110           0
    1050 A    132  ETH  C2   CG3310   -0.270000       12.0110           0
    1051 A    132  ETH  H1   HGA30    0.090000        1.0080           0
    1052 A    132  ETH  H2   HGA30    0.090000        1.0080           0
    1053 A    132  ETH  H3   HGA30    0.090000        1.0080           0
    1054 A    132  ETH  H4   HGA30    0.090000        1.0080           0
    1055 A    132  ETH  H5   HGA30    0.090000        1.0080           0
    1056 A    132  ETH  H6   HGA30    0.090000        1.0080           0
    1057 A    133  ETH  C1   CG3310   -0.270000       12.0110           0
    1058 A    133  ETH  C2   CG3310   -0.270000       12.0110           0
    1059 A    133  ETH  H1   HGA30    0.090000        1.0080           0
    1060 A    133  ETH  H2   HGA30    0.090000        1.0080           0
    1061 A    133  ETH  H3   HGA30    0.090000        1.0080           0
    1062 A    133  ETH  H4   HGA30    0.090000        1.0080           0
    1063 A    133  ETH  H5   HGA30    0.090000        1.0080           0
    1064 A    133  ETH  H6   HGA30    0.090000        1.0080           0
    1065 A    134  ETH  C1   CG3310   -0.270000       12.0110           0
    1066 A    134  ETH  C2   CG3310   -0.270000       12.0110           0
    1067 A    134  ETH  H1   HGA30    0.090000        1.0080           0
    1068 A    134  ETH  H2   HGA30    0.090000        1.0080           0
    1069 A    134  ETH  H3   HGA30    0.090000        1.0080           0
    1070 A    134  ETH  H4   HGA30    0.090000        1.0080           0
    1071 A    134  ETH  H5   HGA30    0.090000        1.0080           0
    1072 A    134  ETH  H6   HGA30    0.090000        1.0080           0
    1073 A    135  ETH  C1   CG3310   -0.270000       12.0110           0
    1074 A    135  ETH  C2   CG3310   -0.270000       12.0110           0
    1075 A    135  ETH  H1   HGA30    0.090000        1.0080           0
    1076 A    135  ETH  H2   HGA30    0.090000        1.0080           0
    1077 A    135  ETH  H3   HGA30    0.090000        1.0080           0
    1078 A    135  ETH  H4   HGA30    0.090000        1.0080           0
    1079 A    135  ETH  H5   HGA30    0.090000        1.0080           0
    1080 A    135  ETH  H6   HGA30    0.090000        1.0080           0
    1081 A    136  ETH  C1   CG3310   -0.270000       12.0110           0
    1082 A    136  ETH  C2   CG3310   -0.270000       12.0110           0
    1083 A    136  ETH  H1   HGA30    0.090000        1.0080           0
    1084 A    136  ETH  H2   HGA30    0.090000        1.0080           0
    1085 A    136  ETH  H3   HGA30    0.090000        1.0080           0
    1086 A    136  ETH  H4   HGA30    0.090000        1.0080           0
    1087 A    136  ETH  H5   HGA30    0.090000        1.0080           0
    1088 A    136  ETH  H6   HGA30    0.090000        1.0080           0
    1089 A    137  ETH  C1   CG3310   -0.270000       12.0110           0
    1090 A    137  ETH  C2   CG3310   -0.270000       12.0110           0
    1091 A    137  ETH  H1   HGA30    0.090000        1.0080           0
    1092 A    137  ETH  H2   HGA30    0.090000        1.0080           0
    1093 A    137  ETH  H3   HGA30    0.090000        1.0080           0
    1094 A    137  ETH  H4   HGA30    0.090000        1.0080           0
    1095 A    137  ETH  H5   HGA30    0.090000        1.0080           0
    1096 A    137  ETH  H6   HGA30    0.090000        1.0080           0
    1097 A    138  ETH  C1   CG3310   -0.270000       12.0110           0
    1098 A    138  ETH  C2   CG3310   -0.270000       12.0110           0
    1099 A    138  ETH  H1   HGA30    0.090000        1.0080           0
    1100 A    138  ETH  H2   HGA30    0.090000        1.0080           0
    1101 A    138  ETH  H3   HGA30    0.090000        1.0080           0
    1102 A    138  ETH  H4   HGA30    0.090000        1.0080           0
    1103 A    138  ETH  H5   HGA30    0.090000        1.0080           0
    1104 A    138  ETH  H6   HGA30    0.090000        1.0080           0
    1105 A    139  ETH  C1   CG3310   -0.270000       12.0110           0
    1106 A    139  ETH  C2   CG3310   -0.270000       12.0110           0
    1107 A    139  ETH  H1   HGA30    0.090000        1.0080           0
    1108 A    139  ETH  H2   HGA30    0.090000        1.0080           0
    1109 A    139  ETH  H3   HGA30    0.090000        1.0080           0
    1110 A    139  ETH  H4   HGA30    0.090000        1.0080           0
    1111 A    139  ETH  H5   HGA30    0.090000        1.0080           0
    1112 A    139  ETH  H6   HGA30    0.090000        1.0080           0
    1113 A    140  ETH  C1   CG3310   -0.270000       12.0110           0
    1114 A    140  ETH  C2   CG3310   -0.270000       12.0110           0
    1115 A    140  ETH  H1   HGA30    0.090000        1.0080           0
    1116 A    140  ETH  H2   HGA30    0.090000        1.0080           0
    1117 A    140  ETH  H3   HGA30    0.090000        1.0080           0
    1118 A    140  ETH  H4   HGA30    0.090000        1.0080           0
    1119 A    140  ETH  H5   HGA30    0.090000        1.0080           0
    1120 A    140  ETH  H6   HGA30    0.090000        1.0080           0
    1121 A    141  ETH  C1   CG3310   -0.270000       12.0110           0
    1122 A    141  ETH  C2   CG3310   -0.270000       12.0110           0
    1123 A    141  ETH  H1   HGA30    0.090000        1.0080           0
    1124 A    141  ETH  H2   HGA30    0.090000        1.0080           0
    1125 A    141  ETH  H3   HGA30    0.090000        1.0080           0
    1126 A    141  ETH  H4   HGA30    0.090000        1.0080           0
    1127 A    141  ETH  H5   HGA30    0.090000        1.0080           0
    1128 A    141  ETH  H6   HGA30    0.090000        1.0080           0
    1129 A    142  ETH  C1   CG3310   -0.270000       12.0110           0
    1130 A    142  ETH  C2   CG3310   -0.270000       12.0110           0
    1131 A    142  ETH  H1   HGA30    0.090000        1.0080           0
    1132 A    142  ETH  H2   HGA30    0.090000        1.0080           0
    1133 A    142  ETH  H3   HGA30    0.090000        1.0080           0
    1134 A    142  ETH  H4   HGA30    0.090000        1.0080           0
    1135 A    142  ETH  H5   HGA30    0.090000        1.0080           0
    1136 A    142  ETH  H6   HGA30    0.090000        1.0080           0
    1137 A    143  ETH  C1   CG3310   -0.270000       12.0110           0
    1138 A    143  ETH  C2   CG3310   -0.270000       12.0110           0
    1139 A    143  ETH  H1   HGA30    0.090000        1.0080           0
    1140 A    143  ETH  H2   HGA30    0.090000        1.0080           0
    1141 A    143  ETH  H3   HGA30    0.090000        1.0080           0
    1142 A    143  ETH  H4   HGA30    0.090000        1.0080           0
    1143 A    143  ETH  H5   HGA30    0.090000        1.0080           0
    1144 A    143  ETH  H6   HGA30    0.090000        1.0080           0
    1145 A    144  ETH  C1   CG3310   -0.270000       12.0110           0
    1146 A    144  ETH  C2   CG3310   -0.270000       12.0110           0
    1147 A    144  ETH  H1   HGA30    0.090000        1.0080           0
    1148 A    144  ETH  H2   HGA30    0.090000        1.0080           0
    1149 A    144  ETH  H3   HGA30    0.090000        1.0080           0
    1150 A    144  ETH  H4   HGA30    0.090000        1.0080           0
    1151 A    144  ETH  H5   HGA30    0.090000        1.0080           0
    1152 A    144  ETH  H6   HGA30    0.090000        1.0080           0
    1153 A    145  ETH  C1   CG3310   -0.270000       12.0110           0
    1154 A    145  ETH  C2   CG3310   -0.270000       12.0110           0
    1155 A    145  ETH  H1   HGA30    0.090000        1.0080           0
    1156 A    145  ETH  H2   HGA30    0.090000        1.0080           0
    1157 A    145  ETH  H3   HGA30    0.090000        1.0080           0
    1158 A    145  ETH  H4   HGA30    0.090000        1.0080           0
    1159 A    145  ETH  H5   HGA30    0.090000        1.0080           0
    1160 A    145  ETH  H6   HGA30    0.090000        1.0080           0
    1161 A    146  ETH  C1   CG3310   -0.270000       12.0110           0
    1162 A    146  ETH  C2   CG3310   -0.270000       12.0110           0
    1163 A    146  ETH  H1   HGA30    0.090000        1.0080           0
    1164 A    146  ETH  H2   HGA30    0.090000        1.0080           0
    1165 A    146  ETH  H3   HGA30    0.090000        1.0080           0
    1166 A    146  ETH  H4   HGA30    0.090000        1.0080           0
    1167 A    146  ETH  H5   HGA30    0.090000        1.0080           0
    1168 A    146  ETH  H6   HGA30    0.090000        1.0080           0
    1169 A    147  ETH  C1   CG3310   -0.270000       12.0110           0
    1170 A    147  ETH  C2   CG3310   -0.270000       12.0110           0
    1171 A    147  ETH  H1   HGA30    0.090000        1.0080           0
    1172 A    147  ETH  H2   HGA30    0.090000        1.0080           0
    1173 A    147  ETH  H3   HGA30    0.090000        1.0080           0
    1174 A    147  ETH  H4   HGA30    0.090000        1.0080           0
    1175 A    147  ETH  H5   HGA30    0.090000        1.0080           0
    1176 A    147  ETH  H6   HGA30    0.090000        1.0080           0
    1177 A    148  ETH  C1   CG3310   -0.270000       12.0110           0
    1178 A    148  ETH  C2   CG3310   -0.270000       12.0110           0
    1179 A    148  ETH  H1   HGA30    0.090000        1.0080           0
    1180 A    148  ETH  H2   HGA30    0.090000        1.0080           0
    1181 A    148  ETH  H3   HGA30    0.090000        1.0080           0
    1182 A    148  ETH  H4   HGA30    0.090000        1.0080           0
    1183 A    148  ETH  H5   HGA30    0.090000        1.0080           0
    1184 A    148  ETH  H6   HGA30    0.090000        1.0080           0
    1185 A    149  ETH  C1   CG3310   -0.270000       12.0110           0
    1186 A    149  ETH  C2   CG3310   -0.270000       12.0110           0
    1187 A    149  ETH  H1   HGA30    0.090000        1.0080           0
    1188 A    149  ETH  H2   HGA30    0.090000        1.0080           0
    1189 A    149  ETH  H3   HGA30    0.090000        1.0080           0
    1190 A    149  ETH  H4   HGA30    0.090000        1.0080           0
    1191 A    149  ETH  H5   HGA30    0.090000        1.0080           0
    1192 A    149  ETH  H6   HGA30    0.090000        1.0080           0
    1193 A    150  ETH  C1   CG3310   -0.270000       12.0110           0
    1194 A    150  ETH  C2   CG3310   -0.270000       12.0110           0
    1195 A    150  ETH  H1   HGA30    0.090000        1.0080           0
    1196 A    150  ETH  H2   HGA30    0.090000        1.0080           0
    1197 A    150  ETH  H3   HGA30    0.090000        1.0080           0
    1198 A    150  ETH  H4   HGA30    0.090000        1.0080           0
    1199 A    150  ETH  H5   HGA30    0.090000        1.0080           0
    1200 A    150  ETH  H6   HGA30    0.090000        1.0080           0
    1201 A    151  ETH  C1   CG3310   -0.270000       12.0110           0
    1202 A    151  ETH  C2   CG3310   -0.270000       12.0110           0
    1203 A    151  ETH  H1   HGA30    0.090000        1.0080           0
    1204 A    151  ETH  H2   HGA30    0.090000        1.0080           0
    1205 A    151  ETH  H3   HGA30    0.090000        1.0080           0
    1206 A    151  ETH  H4   HGA30    0.090000        1.0080           0
    1207 A    151  ETH  H5   HGA30    0.090000        1.0080           0
    1208 A    151  ETH  H6   HGA30    0.090000        1.0080           0
    1209 A    152  ETH  C1   CG3310   -0.270000       12.0110           0
    1210 A    152  ETH  C2   CG3310   -0.270000       12.0110           0
    1211 A    152  ETH  H1   HGA30    0.090000        1.0080           0
    1212 A    152  ETH  H2   HGA30    0.090000        1.0080           0
    1213 A    152  ETH  H3   HGA30    0.090000        1.0080           0
    1214 A    152  ETH  H4   HGA30    0.090000        1.0080           0
    1215 A    152  ETH  H5   HGA30    0.090000        1.0080           0
    1216 A    152  ETH  H6   HGA30    0.090000        1.0080           0
    1217 A    153  ETH  C1   CG3310   -0.270000       12.0110           0
    1218 A    153  ETH  C2   CG3310   -0.270000       12.0110           0
    1219 A    153  ETH  H1   HGA30    0.090000        1.0080           0
    1220 A    153  ETH  H2   HGA30    0.090000        1.0080           0
    1221 A    153  ETH  H3   HGA30    0.090000        1.0080           0
    1222 A    153  ETH  H4   HGA30    0.090000        1.0080           0
    1223 A    153  ETH  H5   HGA30    0.090000        1.0080           0
    1224 A    153  ETH  H6   HGA30    0.090000        1.0080           0
    1225 A    154  ETH  C1   CG3310   -0.270000       12.0110           0
    1226 A    154  ETH  C2   CG3310   -0.270000       12.0110           0
    1227 A    154  ETH  H1   HGA30    0.090000        1.0080           0
    1228 A    154  ETH  H2   HGA30    0.090000        1.0080           0
    1229 A    154  ETH  H3   HGA30    0.090000        1.0080           0
    1230 A    154  ETH  H4   HGA30    0.090000        1.0080           0
    1231 A    154  ETH  H5   HGA30    0.090000        1.0080           0
    1232 A    154  ETH  H6   HGA30    0.090000        1.0080           0
    1233 A    155  ETH  C1   CG3310   -0.270000       12.0110           0
    1234 A    155  ETH  C2   CG3310   -0.270000       12.0110           0
    1235 A    155  ETH  H1   HGA30    0.090000        1.0080           0
    1236 A    155  ETH  H2   HGA30    0.090000        1.0080           0
    1237 A    155  ETH  H3   HGA30    0.090000        1.0080           0
    1238 A    155  ETH  H4   HGA30    0.090000        1.0080           0
    1239 A    155  ETH  H5   HGA30    0.090000        1.0080           0
    1240 A    155  ETH  H6   HGA30    0.090000        1.0080           0
    1241 A    156  ETH  C1   CG3310   -0.270000       12.0110           0
    1242 A    156  ETH  C2   CG3310   -0.270000       12.0110           0
    1243 A    156  ETH  H1   HGA30    0.090000        1.0080           0
    1244 A    156  ETH  H2   HGA30    0.090000        1.0080           0
    1245 A    156  ETH  H3   HGA30    0.090000        1.0080           0
    1246 A    156  ETH  H4   HGA30    0.090000        1.0080           0
    1247 A    156  ETH  H5   HGA30    0.090000        1.0080           0
    1248 A    156  ETH  H6   HGA30    0.090000        1.0080           0
    1249 A    157  ETH  C1   CG3310   -0.270000       12.0110           0
    1250 A    157  ETH  C2   CG3310   -0.270000       12.0110           0
    1251 A    157  ETH  H1   HGA30    0.090000        1.0080           0
    1252 A    157  ETH  H2   HGA30    0.090000        1.0080           0
    1253 A    157  ETH  H3   HGA30    0.090000        1.0080           0
    1254 A    157  ETH  H4   HGA30    0.090000        1.0080           0
    1255 A    157  ETH  H5   HGA30    0.090000        1.0080           0
    1256 A    157  ETH  H6   HGA30    0.090000        1.0080           0
    1257 A    158  ETH  C1   CG3310   -0.270000       12.0110           0
    1258 A    158  ETH  C2   CG3310   -0.270000       12.0110           0
    1259 A    158  ETH  H1   HGA30    0.090000        1.0080           0
    1260 A    158  ETH  H2   HGA30    0.090000        1.0080           0
    1261 A    158  ETH  H3   HGA30    0.090000        1.0080           0
    1262 A    158  ETH  H4   HGA30    0.090000        1.0080           0
    1263 A    158  ETH  H5   HGA30    0.090000        1.0080           0
    1264 A    158  ETH  H6   HGA30    0.090000        1.0080           0
    1265 A    159  ETH  C1   CG3310   -0.270000       12.0110           0
    1266 A    159  ETH  C2   CG3310   -0.270000       12.0110           0
    1267 A    159  ETH  H1   HGA30    0.090000        1.0080           0
    1268 A    159  ETH  H2   HGA30    0.090000        1.0080           0
    1269 A    159  ETH  H3   HGA30    0.090000        1.0080           0
    1270 A    159  ETH  H4   HGA30    0.090000        1.0080           0
    1271 A    159  ETH  H5   HGA30    0.090000        1.0080           0
    1272 A    159  ETH  H6   HGA30    0.090000        1.0080           0
    1273 A    160  ETH  C1   CG3310   -0.270000       12.0110           0
    1274 A    160  ETH  C2   CG3310   -0.270000       12.0110           0
    1275 A    160  ETH  H1   HGA30    0.090000        1.0080           0
    1276 A    160  ETH  H2   HGA30    0.090000        1.0080           0
    1277 A    160  ETH  H3   HGA30    0.090000        1.0080           0
    1278 A    160  ETH  H4   HGA30    0.090000        1.0080           0
    1279 A    160  ETH  H5   HGA30    0.090000        1.0080           0
    1280 A    160  ETH  H6   HGA30    0.090000        1.0080           0
    1281 A    161  ETH  C1   CG3310   -0.270000       12.0110           0
    1282 A    161  ETH  C2   CG3310   -0.270000       12.0110           0
    1283 A    161  ETH  H1   HGA30    0.090000        1.0080           0
    1284 A    161  ETH  H2   HGA30    0.090000        1.0080           0
    1285 A    161  ETH  H3   HGA30    0.090000        1.0080           0
    1286 A    161  ETH  H4   HGA30    0.090000        1.0080           0
    1287 A    161  ETH  H5   HGA30    0.090000        1.0080           0
    1288 A    161  ETH  H6   HGA30    0.090000        1.0080           0
    1289 A    162  ETH  C1   CG3310   -0.270000       12.0110           0
    1290 A    162  ETH  C2   CG3310   -0.270000       12.0110           0
    1291 A    162  ETH  H1   HGA30    0.090000        1.0080           0
    1292 A    162  ETH  H2   HGA30    0.090000        1.0080           0
    1293 A    162  ETH  H3   HGA30    0.090000        1.0080           0
    1294 A    162  ETH  H4   HGA30    0.090000        1.0080           0
    1295 A    162  ETH  H5   HGA30    0.090000        1.0080           0
    1296 A    162  ETH  H6   HGA30    0.090000        1.0080           0
    1297 A    163  ETH  C1   CG3310   -0.270000       12.0110           0
    1298 A    163  ETH  C2   CG3310   -0.270000       12.0110           0
    1299 A    163  ETH  H1   HGA30    0.090000        1.0080           0
    1300 A    163  ETH  H2   HGA30    0.090000        1.0080           0
    1301 A    163  ETH  H3   HGA30    0.090000        1.0080           0
    1302 A    163  ETH  H4   HGA30    0.090000        1.0080           0
    1303 A    163  ETH  H5   HGA30    0.090000        1.0080           0
    1304 A    163  ETH  H6   HGA30    0.090000        1.0080           0
    1305 A    164  ETH  C1   CG3310   -0.270000       12.0110           0
    1306 A    164  ETH  C2   CG3310   -0.270000       12.0110           0
    1307 A    164  ETH  H1   HGA30    0.090000        1.0080           0
    1308 A    164  ETH  H2   HGA30    0.090000        1.0080           0
    1309 A    164  ETH  H3   HGA30    0.090000        1.0080           0
    1310 A    164  ETH  H4   HGA30    0.090000        1.0080           0
    1311 A    164  ETH  H5   HGA30    0.090000        1.0080           0
    1312 A    164  ETH  H6   HGA30    0.090000        1.0080           0
    1313 A    165  ETH  C1   CG3310   -0.270000       12.0110           0
    1314 A    165  ETH  C2   CG3310   -0.270000       12.0110           0
    1315 A    165  ETH  H1   HGA30    0.090000        1.0080           0
    1316 A    165  ETH  H2   HGA30    0.090000        1.0080           0
    1317 A    165  ETH  H3   HGA30    0.090000        1.0080           0
    1318 A    165  ETH  H4   HGA30    0.090000        1.0080           0
    1319 A    165  ETH  H5   HGA30    0.090000        1.0080           0
    1320 A    165  ETH  H6   HGA30    0.090000        1.0080           0
    1321 A    166  ETH  C1   CG3310   -0.270000       12.0110           0
    1322 A    166  ETH  C2   CG3310   -0.270000       12.0110           0
    1323 A    166  ETH  H1   HGA30    0.090000        1.0080           0
    1324 A    166  ETH  H2   HGA30    0.090000        1.0080           0
    1325 A    166  ETH  H3   HGA30    0.090000        1.0080           0
    1326 A    166  ETH  H4   HGA30    0.090000        1.0080           0
    1327 A    166  ETH  H5   HGA30    0.090000        1.0080           0
    1328 A    166  ETH  H6   HGA30    0.090000        1.0080           0
    1329 A    167  ETH  C1   CG3310   -0.270000       12.0110           0
    1330 A    167  ETH  C2   CG3310   -0.270000       12.0110           0
    1331 A    167  ETH  H1   HGA30    0.090000        1.0080           0
    1332 A    167  ETH  H2   HGA30    0.090000        1.0080           0
    1333 A    167  ETH  H3   HGA30    0.090000        1.0080           0
    1334 A    167  ETH  H4   HGA30    0.090000        1.0080           0
    1335 A    167  ETH  H5   HGA30    0.090000        1.0080           0
    1336 A    167  ETH  H6   HGA30    0.090000        1.0080           0
    1337 A    168  ETH  C1   CG3310   -0.270000       12.0110           0
    1338 A    168  ETH  C2   CG3310   -0.270000       12.0110           0
    1339 A    168  ETH  H1   HGA30    0.090000        1.0080           0
    1340 A    168  ETH  H2   HGA30    0.090000        1.0080           0
    1341 A    168  ETH  H3   HGA30    0.090000        1.0080           0
    1342 A    168  ETH  H4   HGA30    0.090000        1.0080           0
    1343 A    168  ETH  H5   HGA30    0.090000        1.0080           0
    1344 A    168  ETH  H6   HGA30    0.090000        1.0080           0
    1345 A    169  ETH  C1   CG3310   -0.270000       12.0110           0
    1346 A    169  ETH  C2   CG3310   -0.270000       12.0110           0
    1347 A    169  ETH  H1   HGA30    0.090000        1.0080           0
    1348 A    169  ETH  H2   HGA30    0.090000        1.0080           0
    1349 A    169  ETH  H3   HGA30    0.090000        1.0080           0
    1350 A    169  ETH  H4   HGA30    0.090000        1.0080           0
    1351 A    169  ETH  H5   HGA30    0.090000        1.0080           0
    1352 A    169  ETH  H6   HGA30    0.090000        1.0080           0
    1353 A    170  ETH  C1   CG3310   -0.270000       12.0110           0
    1354 A    170  ETH  C2   CG3310   -0.270000       12.0110           0
    1355 A    170  ETH  H1   HGA30    0.090000        1.0080           0
    1356 A    170  ETH  H2   HGA30    0.090000        1.0080           0
    1357 A    170  ETH  H3   HGA30    0.090000        1.0080           0
    1358 A    170  ETH  H4   HGA30    0.090000        1.0080           0
    1359 A    170  ETH  H5   HGA30    0.090000        1.0080           0
    1360 A    170  ETH  H6   HGA30    0.090000        1.0080           0
    1361 A    171  ETH  C1   CG3310   -0.270000       12.0110           0
    1362 A    171  ETH  C2   CG3310   -0.270000       12.0110           0
    1363 A    171  ETH  H1   HGA30    0.090000        1.0080           0
    1364 A    171  ETH  H2   HGA30    0.090000        1.0080           0
    1365 A    171  ETH  H3   HGA30    0.090000        1.0080           0
    1366 A    171  ETH  H4   HGA30    0.090000        1.0080           0
    1367 A    171  ETH  H5   HGA30    0.090000        1.0080           0
    1368 A    171  ETH  H6   HGA30    0.090000        1.0080           0
    1369 A    172  ETH  C1   CG3310   -0.270000       12.0110           0
    1370 A    172  ETH  C2   CG3310   -0.270000       12.0110           0
    1371 A    172  ETH  H1   HGA30    0.090000        1.0080           0
    1372 A    172  ETH  H2   HGA30    0.090000        1.0080           0
    1373 A    172  ETH  H3   HGA30    0.090000        1.0080           0
    1374 A    172  ETH  H4   HGA30    0.090000        1.0080           0
    1375 A    172  ETH  H5   HGA30    0.090000        1.0080           0
    1376 A    172  ETH  H6   HGA30    0.090000        1.0080           0
    1377 A    173  ETH  C1   CG3310   -0.270000       12.0110           0
    1378 A    173  ETH  C2   CG3310   -0.270000       12.0110           0
    1379 A    173  ETH  H1   HGA30    0.090000        1.0080           0
    1380 A    173  ETH  H2   HGA30    0.090000        1.0080           0
    1381 A    173  ETH  H3   HGA30    0.090000        1.0080           0
    1382 A    173  ETH  H4   HGA30    0.090000        1.0080           0
    1383 A    173  ETH  H5   HGA30    0.090000        1.0080           0
    1384 A    173  ETH  H6   HGA30    0.090000        1.0080           0
    1385 A    174  ETH  C1   CG3310   -0.270000       12.0110           0
    1386 A    174  ETH  C2   CG3310   -0.270000       12.0110           0
    1387 A    174  ETH  H1   HGA30    0.090000        1.0080           0
    1388 A    174  ETH  H2   HGA30    0.090000        1.0080           0
    1389 A    174  ETH  H3   HGA30    0.090000        1.0080           0
    1390 A    174  ETH  H4   HGA30    0.090000        1.0080           0
    1391 A    174  ETH  H5   HGA30    0.090000        1.0080           0
    1392 A    174  ETH  H6   HGA30    0.090000        1.0080           0
    1393 A    175  ETH  C1   CG3310   -0.270000       12.0110           0
    1394 A    175  ETH  C2   CG3310   -0.270000       12.0110           0
    1395 A    175  ETH  H1   HGA30    0.090000        1.0080           0
    1396 A    175  ETH  H2   HGA30    0.090000        1.0080           0
    1397 A    175  ETH  H3   HGA30    0.090000        1.0080           0
    1398 A    175  ETH  H4   HGA30    0.090000        1.0080           0
    1399 A    175  ETH  H5   HGA30    0.090000        1.0080           0
    1400 A    175  ETH  H6   HGA30    0.090000        1.0080           0
    1401 A    176  ETH  C1   CG3310   -0.270000       12.0110           0
    1402 A    176  ETH  C2   CG3310   -0.270000       12.0110           0
    1403 A    176  ETH  H1   HGA30    0.090000        1.0080           0
    1404 A    176  ETH  H2   HGA30    0.090000        1.0080           0
    1405 A    176  ETH  H3   HGA30    0.090000        1.0080           0
    1406 A    176  ETH  H4   HGA30    0.090000        1.0080           0
    1407 A    176  ETH  H5   HGA30    0.090000        1.0080           0
    1408 A    176  ETH  H6   HGA30    0.090000        1.0080           0
    1409 A    177  ETH  C1   CG3310   -0.270000       12.0110           0
    1410 A    177  ETH  C2   CG3310   -0.270000       12.0110           0
    1411 A    177  ETH  H1   HGA30    0.090000        1.0080           0
    1412 A    177  ETH  H2   HGA30    0.090000        1.0080           0
    1413 A    177  ETH  H3   HGA30    0.090000        1.0080           0
    1414 A    177  ETH  H4   HGA30    0.090000        1.0080           0
    1415 A    177  ETH  H5   HGA30    0.090000        1.0080           0
    1416 A    177  ETH  H6   HGA30    0.090000        1.0080           0
    1417 A    178  ETH  C1   CG3310   -0.270000       12.0110           0
    1418 A    178  ETH  C2   CG3310   -0.270000       12.0110           0
    1419 A    178  ETH  H1   HGA30    0.090000        1.0080           0
    1420 A    178  ETH  H2   HGA30    0.090000        1.0080           0
    1421 A    178  ETH  H3   HGA30    0.090000        1.0080           0
    1422 A    178  ETH  H4   HGA30    0.090000        1.0080           0
    1423 A    178  ETH  H5   HGA30    0.090000        1.0080           0
    1424 A    178  ETH  H6   HGA30    0.090000        1.0080           0
    1425 A    179  ETH  C1   CG3310   -0.270000       12.0110           0
    1426 A    179  ETH  C2   CG3310   -0.270000       12.0110           0
    1427 A    179  ETH  H1   HGA30    0.090000        1.0080           0
    1428 A    179  ETH  H2   HGA30    0.090000        1.0080           0
    1429 A    179  ETH  H3   HGA30    0.090000        1.0080           0
    1430 A    179  ETH  H4   HGA30    0.090000        1.0080           0
    1431 A    179  ETH  H5   HGA30    0.090000        1.0080           0
    1432 A    179  ETH  H6   HGA30    0.090000        1.0080           0
    1433 A    180  ETH  C1   CG3310   -0.270000       12.0110           0
    1434 A    180  ETH  C2   CG3310   -0.270000       12.0110           0
    1435 A    180  ETH  H1   HGA30    0.090000        1.0080           0
    1436 A    180  ETH  H2   HGA30    0.090000        1.0080           0
    1437 A    180  ETH  H3   HGA30    0.090000        1.0080           0
    1438 A    180  ETH  H4   HGA30    0.090000        1.0080           0
    1439 A    180  ETH  H5   HGA30    0.090000        1.0080           0
    1440 A    180  ETH  H6   HGA30    0.090000        1.0080           0
    1441 A    181  ETH  C1   CG3310   -0.270000       12.0110           0
    1442 A    181  ETH  C2   CG3310   -0.270000       12.0110           0
    1443 A    181  ETH  H1   HGA30    0.090000        1.0080           0
    1444 A    181  ETH  H2   HGA30    0.090000        1.0080           0
    1445 A    181  ETH  H3   HGA30    0.090000        1.0080           0
    1446 A    181  ETH  H4   HGA30    0.090000        1.0080           0
    1447 A    181  ETH  H5   HGA30    0.090000        1.0080           0
    1448 A    181  ETH  H6   HGA30    0.090000        1.0080           0
    1449 A    182  ETH  C1   CG3310   -0.270000       12.0110           0
    1450 A    182  ETH  C2   CG3310   -0.270000       12.0110           0
    1451 A    182  ETH  H1   HGA30    0.090000        1.0080           0
    1452 A    182  ETH  H2   HGA30    0.090000        1.0080           0
    1453 A    182  ETH  H3   HGA30    0.090000        1.0080           0
    1454 A    182  ETH  H4   HGA30    0.090000        1.0080           0
    1455 A    182  ETH  H5   HGA30    0.090000        1.0080           0
    1456 A    182  ETH  H6   HGA30    0.090000        1.0080           0
    1457 A    183  ETH  C1   CG3310   -0.270000       12.0110           0
    1458 A    183  ETH  C2   CG3310   -0.270000       12.0110           0
    1459 A    183  ETH  H1   HGA30    0.090000        1.0080           0
    1460 A    183  ETH  H2   HGA30    0.090000        1.0080           0
    1461 A    183  ETH  H3   HGA30    0.090000        1.0080           0
    1462 A    183  ETH  H4   HGA30    0.090000        1.0080           0
    1463 A    183  ETH  H5   HGA30    0.090000        1.0080           0
    1464 A    183  ETH  H6   HGA30    0.090000        1.0080           0
    1465 A    184  ETH  C1   CG3310   -0.270000       12.0110           0
    1466 A    184  ETH  C2   CG3310   -0.270000       12.0110           0
    1467 A    184  ETH  H1   HGA30    0.090000        1.0080           0
    1468 A    184  ETH  H2   HGA30    0.090000        1.0080           0
    1469 A    184  ETH  H3   HGA30    0.090000        1.0080           0
    1470 A    184  ETH  H4   HGA30    0.090000        1.0080           0
    1471 A    184  ETH  H5   HGA30    0.090000        1.0080           0
    1472 A    184  ETH  H6   HGA30    0.090000        1.0080           0
    1473 A    185  ETH  C1   CG3310   -0.270000       12.0110           0
    1474 A    185  ETH  C2   CG3310   -0.270000       12.0110           0
    1475 A    185  ETH  H1   HGA30    0.090000        1.0080           0
    1476 A    185  ETH  H2   HGA30    0.090000        1.0080           0
    1477 A    185  ETH  H3   HGA30    0.090000        1.0080           0
    1478 A    185  ETH  H4   HGA30    0.090000        1.0080           0
    1479 A    185  ETH  H5   HGA30    0.090000        1.0080           0
    1480 A    185  ETH  H6   HGA30    0.090000        1.0080           0
    1481 A    186  ETH  C1   CG3310   -0.270000       12.0110           0
    1482 A    186  ETH  C2   CG3310   -0.270000       12.0110           0
    1483 A    186  ETH  H1   HGA30    0.090000        1.0080           0
    1484 A    186  ETH  H2   HGA30    0.090000        1.0080           0
    1485 A    186  ETH  H3   HGA30    0.090000        1.0080           0
    1486 A    186  ETH  H4   HGA30    0.090000        1.0080           0
    1487 A    186  ETH  H5   HGA30    0.090000        1.0080           0
    1488 A    186  ETH  H6   HGA30    0.090000        1.0080           0
    1489 A    187  ETH  C1   CG3310   -0.270000       12.0110           0
    1490 A    187  ETH  C2   CG3310   -0.270000       12.0110           0
    1491 A    187  ETH  H1   HGA30    0.090000        1.0080           0
    1492 A    187  ETH  H2   HGA30    0.090000        1.0080           0
    1493 A    187  ETH  H3   HGA30    0.090000        1.0080           0
    1494 A    187  ETH  H4   HGA30    0.090000        1.0080           0
    1495 A    187  ETH  H5   HGA30    0.090000        1.0080           0
    1496 A    187  ETH  H6   HGA30    0.090000        1.0080           0
    1497 A    188  ETH  C1   CG3310   -0.270000       12.0110           0
    1498 A    188  ETH  C2   CG3310   -0.270000       12.0110           0
    1499 A    188  ETH  H1   HGA30    0.090000        1.0080           0
    1500 A    188  ETH  H2   HGA30    0.090000        1.0080           0
    1501 A    188  ETH  H3   HGA30    0.090000        1.0080           0
    1502 A    188  ETH  H4   HGA30    0.090000        1.0080           0
    1503 A    188  ETH  H5   HGA30    0.090000        1.0080           0
    1504 A    188  ETH  H6   HGA30    0.090000        1.0080           0
    1505 A    189  ETH  C1   CG3310   -0.270000       12.0110           0
    1506 A    189  ETH  C2   CG3310   -0.270000       12.0110           0
    1507 A    189  ETH  H1   HGA30    0.090000        1.0080           0
    1508 A    189  ETH  H2   HGA30    0.090000        1.0080           0
    1509 A    189  ETH  H3   HGA30    0.090000        1.0080           0
    1510 A    189  ETH  H4   HGA30    0.090000        1.0080           0
    1511 A    189  ETH  H5   HGA30    0.090000        1.0080           0
    1512 A    189  ETH  H6   HGA30    0.090000        1.0080           0
    1513 A    190  ETH  C1   CG3310   -0.270000       12.0110           0
    1514 A    190  ETH  C2   CG3310   -0.270000       12.0110           0
    1515 A    190  ETH  H1   HGA30    0.090000        1.0080           0
    1516 A    190  ETH  H2   HGA30    0.090000        1.0080           0
    1517 A    190  ETH  H3   HGA30    0.090000        1.0080           0
    1518 A    190  ETH  H4   HGA30    0.090000        1.0080           0
    1519 A    190  ETH  H5   HGA30    0.090000        1.0080           0
    1520 A    190  ETH  H6   HGA30    0.090000        1.0080           0
    1521 A    191  ETH  C1   CG3310   -0.270000       12.0110           0
    1522 A    191  ETH  C2   CG3310   -0.270000       12.0110           0
    1523 A    191  ETH  H1   HGA30    0.090000        1.0080           0
    1524 A    191  ETH  H2   HGA30    0.090000        1.0080           0
    1525 A    191  ETH  H3   HGA30    0.090000        1.0080           0
    1526 A    191  ETH  H4   HGA30    0.090000        1.0080           0
    1527 A    191  ETH  H5   HGA30    0.090000        1.0080           0
    1528 A    191  ETH  H6   HGA30    0.090000        1.0080           0
    1529 A    192  ETH  C1   CG3310   -0.270000       12.0110           0
    1530 A    192  ETH  C2   CG3310   -0.270000       12.0110           0
    1531 A    192  ETH  H1   HGA30    0.090000        1.0080           0
    1532 A    192  ETH  H2   HGA30    0.090000        1.0080           0
    1533 A    192  ETH  H3   HGA30    0.090000        1.0080           0
    1534 A    192  ETH  H4   HGA30    0.090000        1.0080           0
    1535 A    192  ETH  H5   HGA30    0.090000        1.0080           0
    1536 A    192  ETH  H6   HGA30    0.090000        1.0080           0
    1537 A    193  ETH  C1   CG3310   -0.270000       12.0110           0
    1538 A    193  ETH  C2   CG3310   -0.270000       12.0110           0
    1539 A    193  ETH  H1   HGA30    0.090000        1.0080           0
    1540 A    193  ETH  H2   HGA30    0.090000        1.0080           0
    1541 A    193  ETH  H3   HGA30    0.090000        1.0080           0
    1542 A    193  ETH  H4   HGA30    0.090000        1.0080           0
    1543 A    193  ETH  H5   HGA30    0.090000        1.0080           0
    1544 A    193  ETH  H6   HGA30    0.090000        1.0080           0
    1545 A    194  ETH  C1   CG3310   -0.270000       12.0110           0
    1546 A    194  ETH  C2   CG3310   -0.270000       12.0110           0
    1547 A    194  ETH  H1   HGA30    0.090000        1.0080           0
    1548 A    194  ETH  H2   HGA30    0.090000        1.0080           0
    1549 A    194  ETH  H3   HGA30    0.090000        1.0080           0
    1550 A    194  ETH  H4   HGA30    0.090000        1.0080           0
    1551 A    194  ETH  H5   HGA30    0.090000        1.0080           0
    1552 A    194  ETH  H6   HGA30    0.090000        1.0080           0
    1553 A    195  ETH  C1   CG3310   -0.270000       12.0110           0
    1554 A    195  ETH  C2   CG3310   -0.270000       12.0110           0
    1555 A    195  ETH  H1   HGA30    0.090000        1.0080           0
    1556 A    195  ETH  H2   HGA30    0.090000        1.0080           0
    1557 A    195  ETH  H3   HGA30    0.090000        1.0080           0
    1558 A    195  ETH  H4   HGA30    0.090000        1.0080           0
    1559 A    195  ETH  H5   HGA30    0.090000        1.0080           0
    1560 A    195  ETH  H6   HGA30    0.090000        1.0080           0
    1561 A    196  ETH  C1   CG3310   -0.270000       12.0110           0
    1562 A    196  ETH  C2   CG3310   -0.270000       12.0110           0
    1563 A    196  ETH  H1   HGA30    0.090000        1.0080           0
    1564 A    196  ETH  H2   HGA30    0.090000        1.0080           0
    1565 A    196  ETH  H3   HGA30    0.090000        1.0080           0
    1566 A    196  ETH  H4   HGA30    0.090000        1.0080           0
    1567 A    196  ETH  H5   HGA30    0.090000        1.0080           0
    1568 A    196  ETH  H6   HGA30    0.090000        1.0080           0
    1569 A    197  ETH  C1   CG3310   -0.270000       12.0110           0
    1570 A    197  ETH  C2   CG3310   -0.270000       12.0110           0
    1571 A    197  ETH  H1   HGA30    0.090000        1.0080           0
    1572 A    197  ETH  H2   HGA30    0.090000        1.0080           0
    1573 A    197  ETH  H3   HGA30    0.090000        1.0080           0
    1574 A    197  ETH  H4   HGA30    0.090000        1.0080           0
    1575 A    197  ETH  H5   HGA30    0.090000        1.0080           0
    1576 A    197  ETH  H6   HGA30    0.090000        1.0080           0
    1577 A    198  ETH  C1   CG3310   -0.270000       12.0110           0
    1578 A    198  ETH  C2   CG3310   -0.270000       12.0110           0
    1579 A    198  ETH  H1   HGA30    0.090000        1.0080           0
    1580 A    198  ETH  H2   HGA30    0.090000        1.0080           0
    1581 A    198  ETH  H3   HGA30    0.090000        1.0080           0
    1582 A    198  ETH  H4   HGA30    0.090000        1.0080           0
    1583 A    198  ETH  H5   HGA30    0.090000        1.0080           0
    1584 A    198  ETH  H6   HGA30    0.090000        1.0080           0
    1585 A    199  ETH  C1   CG3310   -0.270000       12.0110           0
    1586 A    199  ETH  C2   CG3310   -0.270000       12.0110           0
    1587 A    199  ETH  H1   HGA30    0.090000        1.0080           0
    1588 A    199  ETH  H2   HGA30    0.090000        1.0080           0
    1589 A    199  ETH  H3   HGA30    0.090000        1.0080           0
    1590 A    199  ETH  H4   HGA30    0.090000        1.0080           0
    1591 A    199  ETH  H5   HGA30    0.090000        1.0080           0
    1592 A    199  ETH  H6   HGA30    0.090000        1.0080           0
    1593 A    200  ETH  C1   CG3310   -0.270000       12.0110           0
    1594 A    200  ETH  C2   CG3310   -0.270000       12.0110           0
    1595 A    200  ETH  H1   HGA30    0.090000        1.0080           0
    1596 A    200  ETH  H2   HGA30    0.090000        1.0080           0
    1597 A    200  ETH  H3   HGA30    0.090000        1.0080           0
    1598 A    200  ETH  H4   HGA30    0.090000        1.0080           0
    1599 A    200  ETH  H5   HGA30    0.090000        1.0080           0
    1600 A    200  ETH  H6   HGA30    0.090000        1.0080           0
    1601 A    201  ETH  C1   CG3310   -0.270000       12.0110           0
    1602 A    201  ETH  C2   CG3310   -0.270000       12.0110           0
    1603 A    201  ETH  H1   HGA30    0.090000        1.0080           0
    1604 A    201  ETH  H2   HGA30    0.090000        1.0080           0
    1605 A    201  ETH  H3   HGA30    0.090000        1.0080           0
    1606 A    201  ETH  H4   HGA30    0.090000        1.0080           0
    1607 A    201  ETH  H5   HGA30    0.090000        1.0080           0
    1608 A    201  ETH  H6   HGA30    0.090000        1.0080           0
    1609 A    202  ETH  C1   CG3310   -0.270000       12.0110           0
    1610 A    202  ETH  C2   CG3310   -0.270000       12.0110           0
    1611 A    202  ETH  H1   HGA30    0.090000        1.0080           0
    1612 A    202  ETH  H2   HGA30    0.090000        1.0080           0
    1613 A    202  ETH  H3   HGA30    0.090000        1.0080           0
    1614 A    202  ETH  H4   HGA30    0.090000        1.0080           0
    1615 A    202  ETH  H5   HGA30    0.090000        1.0080           0
    1616 A    202  ETH  H6   HGA30    0.090000        1.0080           0
    1617 A    203  ETH  C1   CG3310   -0.270000       12.0110           0
    1618 A    203  ETH  C2   CG3310   -0.270000       12.0110           0
    1619 A    203  ETH  H1   HGA30    0.090000        1.0080           0
    1620 A    203  ETH  H2   HGA30    0.090000        1.0080           0
    1621 A    203  ETH  H3   HGA30    0.090000        1.0080           0
    1622 A    203  ETH  H4   HGA30    0.090000        1.0080           0
    1623 A    203  ETH  H5   HGA30    0.090000        1.0080           0
    1624 A    203  ETH  H6   HGA30    0.090000        1.0080           0
    1625 A    204  ETH  C1   CG3310   -0.270000       12.0110           0
    1626 A    204  ETH  C2   CG3310   -0.270000       12.0110           0
    1627 A    204  ETH  H1   HGA30    0.090000        1.0080           0
    1628 A    204  ETH  H2   HGA30    0.090000        1.0080           0
    1629 A    204  ETH  H3   HGA30    0.090000        1.0080           0
    1630 A    204  ETH  H4   HGA30    0.090000        1.0080           0
    1631 A    204  ETH  H5   HGA30    0.090000        1.0080           0
    1632 A    204  ETH  H6   HGA30    0.090000        1.0080           0
    1633 A    205  ETH  C1   CG3310   -0.270000       12.0110           0
    1634 A    205  ETH  C2   CG3310   -0.270000       12.0110           0
    1635 A    205  ETH  H1   HGA30    0.090000        1.0080           0
    1636 A    205  ETH  H2   HGA30    0.090000        1.0080           0
    1637 A    205  ETH  H3   HGA30    0.090000        1.0080           0
    1638 A    205  ETH  H4   HGA30    0.090000        1.0080           0
    1639 A    205  ETH  H5   HGA30    0.090000        1.0080           0
    1640 A    205  ETH  H6   HGA30    0.090000        1.0080           0
    1641 A    206  ETH  C1   CG3310   -0.270000       12.0110           0
    1642 A    206  ETH  C2   CG3310   -0.270000       12.0110           0
    1643 A    206  ETH  H1   HGA30    0.090000        1.0080           0
    1644 A    206  ETH  H2   HGA30    0.090000        1.0080           0
    1645 A    206  ETH  H3   HGA30    0.090000        1.0080           0
    1646 A    206  ETH  H4   HGA30    0.090000        1.0080           0
    1647 A    206  ETH  H5   HGA30    0.090000        1.0080           0
    1648 A    206  ETH  H6   HGA30    0.090000        1.0080           0
    1649 A    207  ETH  C1   CG3310   -0.270000       12.0110           0
    1650 A    207  ETH  C2   CG3310   -0.270000       12.0110           0
    1651 A    207  ETH  H1   HGA30    0.090000        1.0080           0
    1652 A    207  ETH  H2   HGA30    0.090000        1.0080           0
    1653 A    207  ETH  H3   HGA30    0.090000        1.0080           0
    1654 A    207  ETH  H4   HGA30    0.090000        1.0080           0
    1655 A    207  ETH  H5   HGA30    0.090000        1.0080           0
    1656 A    207  ETH  H6   HGA30    0.090000        1.0080           0
    1657 A    208  ETH  C1   CG3310   -0.270000       12.0110           0
    1658 A    208  ETH  C2   CG3310   -0.270000       12.0110           0
    1659 A    208  ETH  H1   HGA30    0.090000        1.0080           0
    1660 A    208  ETH  H2   HGA30    0.090000        1.0080           0
    1661 A    208  ETH  H3   HGA30    0.090000        1.0080           0
    1662 A    208  ETH  H4   HGA30    0.090000        1.0080           0
    1663 A    208  ETH  H5   HGA30    0.090000        1.0080           0
    1664 A    208  ETH  H6   HGA30    0.090000        1.0080           0
    1665 A    209  ETH  C1   CG3310   -0.270000       12.0110           0
    1666 A    209  ETH  C2   CG3310   -0.270000       12.0110           0
    1667 A    209  ETH  H1   HGA30    0.090000        1.0080           0
    1668 A    209  ETH  H2   HGA30    0.090000        1.0080           0
    1669 A    209  ETH  H3   HGA30    0.090000        1.0080           0
    1670 A    209  ETH  H4   HGA30    0.090000        1.0080           0
    1671 A    209  ETH  H5   HGA30    0.090000        1.0080           0
    1672 A    209  ETH  H6   HGA30    0.090000        1.0080           0
    1673 A    210  ETH  C1   CG3310   -0.270000       12.0110           0
    1674 A    210  ETH  C2   CG3310   -0.270000       12.0110           0
    1675 A    210  ETH  H1   HGA30    0.090000        1.0080           0
    1676 A    210  ETH  H2   HGA30    0.090000        1.0080           0
    1677 A    210  ETH  H3   HGA30    0.090000        1.0080           0
    1678 A    210  ETH  H4   HGA30    0.090000        1.0080           0
    1679 A    210  ETH  H5   HGA30    0.090000        1.0080           0
    1680 A    210  ETH  H6   HGA30    0.090000        1.0080           0
    1681 A    211  ETH  C1   CG3310   -0.270000       12.0110           0
    1682 A    211  ETH  C2   CG3310   -0.270000       12.0110           0
    1683 A    211  ETH  H1   HGA30    0.090000        1.0080           0
    1684 A    211  ETH  H2   HGA30    0.090000        1.0080           0
    1685 A    211  ETH  H3   HGA30    0.090000        1.0080           0
    1686 A    211  ETH  H4   HGA30    0.090000        1.0080           0
    1687 A    211  ETH  H5   HGA30    0.090000        1.0080           0
    1688 A    211  ETH  H6   HGA30    0.090000        1.0080           0
    1689 A    212  ETH  C1   CG3310   -0.270000       12.0110           0
    1690 A    212  ETH  C2   CG3310   -0.270000       12.0110           0
    1691 A    212  ETH  H1   HGA30    0.090000        1.0080           0
    1692 A    212  ETH  H2   HGA30    0.090000        1.0080           0
    1693 A    212  ETH  H3   HGA30    0.090000        1.0080           0
    1694 A    212  ETH  H4   HGA30    0.090000        1.0080           0
    1695 A    212  ETH  H5   HGA30    0.090000        1.0080           0
    1696 A    212  ETH  H6   HGA30    0.090000        1.0080           0
    1697 A    213  ETH  C1   CG3310   -0.270000       12.0110           0
    1698 A    213  ETH  C2   CG3310   -0.270000       12.0110           0
    1699 A    213  ETH  H1   HGA30    0.090000        1.0080           0
    1700 A    213  ETH  H2   HGA30    0.090000        1.0080           0
    1701 A    213  ETH  H3   HGA30    0.090000        1.0080           0
    1702 A    213  ETH  H4   HGA30    0.090000        1.0080           0
    1703 A    213  ETH  H5   HGA30    0.090000        1.0080           0
    1704 A    213  ETH  H6   HGA30    0.090000        1.0080           0
    1705 A    214  ETH  C1   CG3310   -0.270000       12.0110           0
    1706 A    214  ETH  C2   CG3310   -0.270000       12.0110           0
    1707 A    214  ETH  H1   HGA30    0.090000        1.0080           0
    1708 A    214  ETH  H2   HGA30    0.090000        1.0080           0
    1709 A    214  ETH  H3   HGA30    0.090000        1.0080           0
    1710 A    214  ETH  H4   HGA30    0.090000        1.0080           0
    1711 A    214  ETH  H5   HGA30    0.090000        1.0080           0
    1712 A    214  ETH  H6   HGA30    0.090000        1.0080           0
    1713 A    215  ETH  C1   CG3310   -0.270000       12.0110           0
    1714 A    215  ETH  C2   CG3310   -0.270000       12.0110           0
    1715 A    215  ETH  H1   HGA30    0.090000        1.0080           0
    1716 A    215  ETH  H2   HGA30    0.090000        1.0080           0
    1717 A    215  ETH  H3   HGA30    0.090000        1.0080           0
    1718 A    215  ETH  H4   HGA30    0.090000        1.0080           0
    1719 A    215  ETH  H5   HGA30    0.090000        1.0080           0
    1720 A    215  ETH  H6   HGA30    0.090000        1.0080           0
    1721 A    216  ETH  C1   CG3310   -0.270000       12.0110           0
    1722 A    216  ETH  C2   CG3310   -0.270000       12.0110           0
    1723 A    216  ETH  H1   HGA30    0.090000        1.0080           0
    1724 A    216  ETH  H2   HGA30    0.090000        1.0080           0
    1725 A    216  ETH  H3   HGA30    0.090000        1.0080           0
    1726 A    216  ETH  H4   HGA30    0.090000        1.0080           0
    1727 A    216  ETH  H5   HGA30    0.090000        1.0080           0
    1728 A    216  ETH  H6   HGA30    0.090000        1.0080           0
    1729 A    217  ETH  C1   CG3310   -0.270000       12.0110           0
    1730 A    217  ETH  C2   CG3310   -0.270000       12.0110           0
    1731 A    217  ETH  H1   HGA30    0.090000        1.0080           0
    1732 A    217  ETH  H2   HGA30    0.090000        1.0080           0
    1733 A    217  ETH  H3   HGA30    0.090000        1.0080           0
    1734 A    217  ETH  H4   HGA30    0.090000        1.0080           0
    1735 A    217  ETH  H5   HGA30    0.090000        1.0080           0
    1736 A    217  ETH  H6   HGA30    0.090000        1.0080           0
    1737 A    218  ETH  C1   CG3310   -0.270000       12.0110           0
    1738 A    218  ETH  C2   CG3310   -0.270000       12.0110           0
    1739 A    218  ETH  H1   HGA30    0.090000        1.0080           0
    1740 A    218  ETH  H2   HGA30    0.090000        1.0080           0
    1741 A    218  ETH  H3   HGA30    0.090000        1.0080           0
    1742 A    218  ETH  H4   HGA30    0.090000        1.0080           0
    1743 A    218  ETH  H5   HGA30    0.090000        1.0080           0
    1744 A    218  ETH  H6   HGA30    0.090000        1.0080           0
    1745 A    219  ETH  C1   CG3310   -0.270000       12.0110           0
    1746 A    219  ETH  C2   CG3310   -0.270000       12.0110           0
    1747 A    219  ETH  H1   HGA30    0.090000        1.0080           0
    1748 A    219  ETH  H2   HGA30    0.090000        1.0080           0
    1749 A    219  ETH  H3   HGA30    0.090000        1.0080           0
    1750 A    219  ETH  H4   HGA30    0.090000        1.0080           0
    1751 A    219  ETH  H5   HGA30    0.090000        1.0080           0
    1752 A    219  ETH  H6   HGA30    0.090000        1.0080           0
    1753 A    220  ETH  C1   CG3310   -0.270000       12.0110           0
    1754 A    220  ETH  C2   CG3310   -0.270000       12.0110           0
    1755 A    220  ETH  H1   HGA30    0.090000        1.0080           0
    1756 A    220  ETH  H2   HGA30    0.090000        1.0080           0
    1757 A    220  ETH  H3   HGA30    0.090000        1.0080           0
    1758 A    220  ETH  H4   HGA30    0.090000        1.0080           0
    1759 A    220  ETH  H5   HGA30    0.090000        1.0080           0
    1760 A    220  ETH  H6   HGA30    0.090000        1.0080           0
    1761 A    221  ETH  C1   CG3310   -0.270000       12.0110           0
    1762 A    221  ETH  C2   CG3310   -0.270000       12.0110           0
    1763 A    221  ETH  H1   HGA30    0.090000        1.0080           0
    1764 A    221  ETH  H2   HGA30    0.090000        1.0080           0
    1765 A    221  ETH  H3   HGA30    0.090000        1.0080           0
    1766 A    221  ETH  H4   HGA30    0.090000        1.0080           0
    1767 A    221  ETH  H5   HGA30    0.090000        1.0080           0
    1768 A    221  ETH  H6   HGA30    0.090000        1.0080           0
    1769 A    222  ETH  C1   CG3310   -0.270000       12.0110           0
    1770 A    222  ETH  C2   CG3310   -0.270000       12.0110           0
    1771 A    222  ETH  H1   HGA30    0.090000        1.0080           0
    1772 A    222  ETH  H2   HGA30    0.090000        1.0080           0
    1773 A    222  ETH  H3   HGA30    0.090000        1.0080           0
    1774 A    222  ETH  H4   HGA30    0.090000        1.0080           0
    1775 A    222  ETH  H5   HGA30    0.090000        1.0080           0
    1776 A    222  ETH  H6   HGA30    0.090000        1.0080           0
    1777 A    223  ETH  C1   CG3310   -0.270000       12.0110           0
    1778 A    223  ETH  C2   CG3310   -0.270000       12.0110           0
    1779 A    223  ETH  H1   HGA30    0.090000        1.0080           0
    1780 A    223  ETH  H2   HGA30    0.090000        1.0080           0
    1781 A    223  ETH  H3   HGA30    0.090000        1.0080           0
    1782 A    223  ETH  H4   HGA30    0.090000        1.0080           0
    1783 A    223  ETH  H5   HGA30    0.090000        1.0080           0
    1784 A    223  ETH  H6   HGA30    0.090000        1.0080           0
    1785 A    224  ETH  C1   CG3310   -0.270000       12.0110           0
    1786 A    224  ETH  C2   CG3310   -0.270000       12.0110           0
    1787 A    224  ETH  H1   HGA30    0.090000        1.0080           0
    1788 A    224  ETH  H2   HGA30    0.090000        1.0080           0
    1789 A    224  ETH  H3   HGA30    0.090000        1.0080           0
    1790 A    224  ETH  H4   HGA30    0.090000        1.0080           0
    1791 A    224  ETH  H5   HGA30    0.090000        1.0080           0
    1792 A    224  ETH  H6   HGA30    0.090000        1.0080           0
    1793 A    225  ETH  C1   CG3310   -0.270000       12.0110           0
    1794 A    225  ETH  C2   CG3310   -0.270000       12.0110           0
    1795 A    225  ETH  H1   HGA30    0.090000        1.0080           0
    1796 A    225  ETH  H2   HGA30    0.090000        1.0080           0
    1797 A    225  ETH  H3   HGA30    0.090000        1.0080           0
    1798 A    225  ETH  H4   HGA30    0.090000        1.0080           0
    1799 A    225  ETH  H5   HGA30    0.090000        1.0080           0
    1800 A    225  ETH  H6   HGA30    0.090000        1.0080           0
    1801 A    226  ETH  C1   CG3310   -0.270000       12.0110           0
    1802 A    226  ETH  C2   CG3310   -0.270000       12.0110           0
    1803 A    226  ETH  H1   HGA30    0.090000        1.0080           0
    1804 A    226  ETH  H2   HGA30    0.090000        1.0080           0
    1805 A    226  ETH  H3   HGA30    0.090000        1.0080           0
    1806 A    226  ETH  H4   HGA30    0.090000        1.0080           0
    1807 A    226  ETH  H5   HGA30    0.090000        1.0080           0
    1808 A    226  ETH  H6   HGA30    0.090000        1.0080           0
    1809 A    227  ETH  C1   CG3310   -0.270000       12.0110           0
    1810 A    227  ETH  C2   CG3310   -0.270000       12.0110           0
    1811 A    227  ETH  H1   HGA30    0.090000        1.0080           0
    1812 A    227  ETH  H2   HGA30    0.090000        1.0080           0
    1813 A    227  ETH  H3   HGA30    0.090000        1.0080           0
    1814 A    227  ETH  H4   HGA30    0.090000        1.0080           0
    1815 A    227  ETH  H5   HGA30    0.090000        1.0080           0
    1816 A    227  ETH  H6   HGA30    0.090000        1.0080           0
    1817 A    228  ETH  C1   CG3310   -0.270000       12.0110           0
    1818 A    228  ETH  C2   CG3310   -0.270000       12.0110           0
    1819 A    228  ETH  H1   HGA30    0.090000        1.0080           0
    1820 A    228  ETH  H2   HGA30    0.090000        1.0080           0
    1821 A    228  ETH  H3   HGA30    0.090000        1.0080           0
    1822 A    228  ETH  H4   HGA30    0.090000        1.0080           0
    1823 A    228  ETH  H5   HGA30    0.090000        1.0080           0
    1824 A    228  ETH  H6   HGA30    0.090000        1.0080           0
    1825 A    229  ETH  C1   CG3310   -0.270000       12.0110           0
    1826 A    229  ETH  C2   CG3310   -0.270000       12.0110           0
    1827 A    229  ETH  H1   HGA30    0.090000        1.0080           0
    1828 A    229  ETH  H2   HGA30    0.090000        1.0080           0
    1829 A    229  ETH  H3   HGA30    0.090000        1.0080           0
    1830 A    229  ETH  H4   HGA30    0.090000        1.0080           0
    1831 A    229  ETH  H5   HGA30    0.090000        1.0080           0
    1832 A    229  ETH  H6   HGA30    0.090000        1.0080           0
    1833 A    230  ETH  C1   CG3310   -0.270000       12.0110           0
    1834 A    230  ETH  C2   CG3310   -0.270000       12.0110           0
    1835 A    230  ETH  H1   HGA30    0.090000        1.0080           0
    1836 A    230  ETH  H2   HGA30    0.090000        1.0080           0
    1837 A    230  ETH  H3   HGA30    0.090000        1.0080           0
    1838 A    230  ETH  H4   HGA30    0.090000        1.0080           0
    1839 A    230  ETH  H5   HGA30    0.090000        1.0080           0
    1840 A    230  ETH  H6   HGA30    0.090000        1.0080           0
    1841 A    231  ETH  C1   CG3310   -0.270000       12.0110           0
    1842 A    231  ETH  C2   CG3310   -0.270000       12.0110           0
    1843 A    231  ETH  H1   HGA30    0.090000        1.0080           0
    1844 A    231  ETH  H2   HGA30    0.090000        1.0080           0
    1845 A    231  ETH  H3   HGA30    0.090000        1.0080           0
    1846 A    231  ETH  H4   HGA30    0.090000        1.0080           0
    1847 A    231  ETH  H5   HGA30    0.090000        1.0080           0
    1848 A    231  ETH  H6   HGA30    0.090000        1.0080           0
    1849 A    232  ETH  C1   CG3310   -0.270000       12.0110           0
    1850 A    232  ETH  C2   CG3310   -0.270000       12.0110           0
    1851 A    232  ETH  H1   HGA30    0.090000        1.0080           0
    1852 A    232  ETH  H2   HGA30    0.090000        1.0080           0
    1853 A    232  ETH  H3   HGA30    0.090000        1.0080           0
    1854 A    232  ETH  H4   HGA30    0.090000        1.0080           0
    1855 A    232  ETH  H5   HGA30    0.090000        1.0080           0
    1856 A    232  ETH  H6   HGA30    0.090000        1.0080           0
    1857 A    233  ETH  C1   CG3310   -0.270000       12.0110           0
    1858 A    233  ETH  C2   CG3310   -0.270000       12.0110           0
    1859 A    233  ETH  H1   HGA30    0.090000        1.0080           0
    1860 A    233  ETH  H2   HGA30    0.090000        1.0080           0
    1861 A    233  ETH  H3   HGA30    0.090000        1.0080           0
    1862 A    233  ETH  H4   HGA30    0.090000        1.0080           0
    1863 A    233  ETH  H5   HGA30    0.090000        1.0080           0
    1864 A    233  ETH  H6   HGA30    0.090000        1.0080           0
    1865 A    234  ETH  C1   CG3310   -0.270000       12.0110           0
    1866 A    234  ETH  C2   CG3310   -0.270000       12.0110           0
    1867 A    234  ETH  H1   HGA30    0.090000        1.0080           0
    1868 A    234  ETH  H2   HGA30    0.090000        1.0080           0
    1869 A    234  ETH  H3   HGA30    0.090000        1.0080           0
    1870 A    234  ETH  H4   HGA30    0.090000        1.0080           0
    1871 A    234  ETH  H5   HGA30    0.090000        1.0080           0
    1872 A    234  ETH  H6   HGA30    0.090000        1.0080           0
    1873 A    235  ETH  C1   CG3310   -0.270000       12.0110           0
    1874 A    235  ETH  C2   CG3310   -0.270000       12.0110           0
    1875 A    235  ETH  H1   HGA30    0.090000        1.0080           0
    1876 A    235  ETH  H2   HGA30    0.090000        1.0080           0
    1877 A    235  ETH  H3   HGA30    0.090000        1.0080           0
    1878 A    235  ETH  H4   HGA30    0.090000        1.0080           0
    1879 A    235  ETH  H5   HGA30    0.090000        1.0080           0
    1880 A    235  ETH  H6   HGA30    0.090000        1.0080           0
    1881 A    236  ETH  C1   CG3310   -0.270000       12.0110           0
    1882 A    236  ETH  C2   CG3310   -0.270000       12.0110           0
    1883 A    236  ETH  H1   HGA30    0.090000        1.0080           0
    1884 A    236  ETH  H2   HGA30    0.090000        1.0080           0
    1885 A    236  ETH  H3   HGA30    0.090000        1.0080           0
    1886 A    236  ETH  H4   HGA30    0.090000        1.0080           0
    1887 A    236  ETH  H5   HGA30    0.090000        1.0080           0
    1888 A    236  ETH  H6   HGA30    0.090000        1.0080           0
    1889 A    237  ETH  C1   CG3310   -0.270000       12.0110           0
    1890 A    237  ETH  C2   CG3310   -0.270000       12.0110           0
    1891 A    237  ETH  H1   HGA30    0.090000        1.0080           0
    1892 A    237  ETH  H2   HGA30    0.090000        1.0080           0
    1893 A    237  ETH  H3   HGA30    0.090000        1.0080           0
    1894 A    237  ETH  H4   HGA30    0.090000        1.0080           0
    1895 A    237  ETH  H5   HGA30    0.090000        1.0080           0
    1896 A    237  ETH  H6   HGA30    0.090000        1.0080           0
    1897 A    238  ETH  C1   CG3310   -0.270000       12.0110           0
    1898 A    238  ETH  C2   CG3310   -0.270000       12.0110           0
    1899 A    238  ETH  H1   HGA30    0.090000        1.0080           0
    1900 A    238  ETH  H2   HGA30    0.090000        1.0080           0
    1901 A    238  ETH  H3   HGA30    0.090000        1.0080           0
    1902 A    238  ETH  H4   HGA30    0.090000        1.0080           0
    1903 A    238  ETH  H5   HGA30    0.090000        1.0080           0
    1904 A    238  ETH  H6   HGA30    0.090000        1.0080           0
    1905 A    239  ETH  C1   CG3310   -0.270000       12.0110           0
    1906 A    239  ETH  C2   CG3310   -0.270000       12.0110           0
    1907 A    239  ETH  H1   HGA30    0.090000        1.0080           0
    1908 A    239  ETH  H2   HGA30    0.090000        1.0080           0
    1909 A    239  ETH  H3   HGA30    0.090000        1.0080           0
    1910 A    239  ETH  H4   HGA30    0.090000        1.0080           0
    1911 A    239  ETH  H5   HGA30    0.090000        1.0080           0
    1912 A    239  ETH  H6   HGA30    0.090000        1.0080           0
    1913 A    240  ETH  C1   CG3310   -0.270000       12.0110           0
    1914 A    240  ETH  C2   CG3310   -0.270000       12.0110           0
    1915 A    240  ETH  H1   HGA30    0.090000        1.0080           0
    1916 A    240  ETH  H2   HGA30    0.090000        1.0080           0
    1917 A    240  ETH  H3   HGA30    0.090000        1.0080           0
    1918 A    240  ETH  H4   HGA30    0.090000        1.0080           0
    1919 A    240  ETH  H5   HGA30    0.090000        1.0080           0
    1920 A    240  ETH  H6   HGA30    0.090000        1.0080           0
    1921 A    241  ETH  C1   CG3310   -0.270000       12.0110           0
    1922 A    241  ETH  C2   CG3310   -0.270000       12.0110           0
    1923 A    241  ETH  H1   HGA30    0.090000        1.0080           0
    1924 A    241  ETH  H2   HGA30    0.090000        1.0080           0
    1925 A    241  ETH  H3   HGA30    0.090000        1.0080           0
    1926 A    241  ETH  H4   HGA30    0.090000        1.0080           0
    1927 A    241  ETH  H5   HGA30    0.090000        1.0080           0
    1928 A    241  ETH  H6   HGA30    0.090000        1.0080           0
    1929 A    242  ETH  C1   CG3310   -0.270000       12.0110           0
    1930 A    242  ETH  C2   CG3310   -0.270000       12.0110           0
    1931 A    242  ETH  H1   HGA30    0.090000        1.0080           0
    1932 A    242  ETH  H2   HGA30    0.090000        1.0080           0
    1933 A    242  ETH  H3   HGA30    0.090000        1.0080           0
    1934 A    242  ETH  H4   HGA30    0.090000        1.0080           0
    1935 A    242  ETH  H5   HGA30    0.090000        1.0080           0
    1936 A    242  ETH  H6   HGA30    0.090000        1.0080           0
    1937 A    243  ETH  C1   CG3310   -0.270000       12.0110           0
    1938 A    243  ETH  C2   CG3310   -0.270000       12.0110           0
    1939 A    243  ETH  H1   HGA30    0.090000        1.0080           0
    1940 A    243  ETH  H2   HGA30    0.090000        1.0080           0
    1941 A    243  ETH  H3   HGA30    0.090000        1.0080           0
    1942 A    243  ETH  H4   HGA30    0.090000        1.0080           0
    1943 A    243  ETH  H5   HGA30    0.090000        1.0080           0
    1944 A    243  ETH  H6   HGA30    0.090000        1.0080           0
    1945 A    244  ETH  C1   CG3310   -0.270000       12.0110           0
    1946 A    244  ETH  C2   CG3310   -0.270000       12.0110           0
    1947 A    244  ETH  H1   HGA30    0.090000        1.0080           0
    1948 A    244  ETH  H2   HGA30    0.090000        1.0080           0
    1949 A    244  ETH  H3   HGA30    0.090000        1.0080           0
    1950 A    244  ETH  H4   HGA30    0.090000        1.0080           0
    1951 A    244  ETH  H5   HGA30    0.090000        1.0080           0
    1952 A    244  ETH  H6   HGA30    0.090000        1.0080           0
    1953 A    245  ETH  C1   CG3310   -0.270000       12.0110           0
    1954 A    245  ETH  C2   CG3310   -0.270000       12.0110           0
    1955 A    245  ETH  H1   HGA30    0.090000        1.0080           0
    1956 A    245  ETH  H2   HGA30    0.090000        1.0080           0
    1957 A    245  ETH  H3   HGA30    0.090000        1.0080           0
    1958 A    245  ETH  H4   HGA30    0.090000        1.0080           0
    1959 A    245  ETH  H5   HGA30    0.090000        1.0080           0
    1960 A    245  ETH  H6   HGA30    0.090000        1.0080           0
    1961 A    246  ETH  C1   CG3310   -0.270000       12.0110           0
    1962 A    246  ETH  C2   CG3310   -0.270000       12.0110           0
    1963 A    246  ETH  H1   HGA30    0.090000        1.0080           0
    1964 A    246  ETH  H2   HGA30    0.090000        1.0080           0
    1965 A    246  ETH  H3   HGA30    0.090000        1.0080           0
    1966 A    246  ETH  H4   HGA30    0.090000        1.0080           0
    1967 A    246  ETH  H5   HGA30    0.090000        1.0080           0
    1968 A    246  ETH  H6   HGA30    0.090000        1.0080           0
    1969 A    247  ETH  C1   CG3310   -0.270000       12.0110           0
    1970 A    247  ETH  C2   CG3310   -0.270000       12.0110           0
    1971 A    247  ETH  H1   HGA30    0.090000        1.0080           0
    1972 A    247  ETH  H2   HGA30    0.090000        1.0080           0
    1973 A    247  ETH  H3   HGA30    0.090000        1.0080           0
    1974 A    247  ETH  H4   HGA30    0.090000        1.0080           0
    1975 A    247  ETH  H5   HGA30    0.090000        1.0080           0
    1976 A    247  ETH  H6   HGA30    0.090000        1.0080           0
    1977 A    248  ETH  C1   CG3310   -0.270000       12.0110           0
    1978 A    248  ETH  C2   CG3310   -0.270000       12.0110           0
    1979 A    248  ETH  H1   HGA30    0.090000        1.0080           0
    1980 A    248  ETH  H2   HGA30    0.090000        1.0080           0
    1981 A    248  ETH  H3   HGA30    0.090000        1.0080           0
    1982 A    248  ETH  H4   HGA30    0.090000        1.0080           0
    1983 A    248  ETH  H5   HGA30    0.090000        1.0080           0
    1984 A    248  ETH  H6   HGA30    0.090000        1.0080           0
    1985 A    249  ETH  C1   CG3310   -0.270000       12.0110           0
    1986 A    249  ETH  C2   CG3310   -0.270000       12.0110           0
    1987 A    249  ETH  H1   HGA30    0.090000        1.0080           0
    1988 A    249  ETH  H2   HGA30    0.090000        1.0080           0
    1989 A    249  ETH  H3   HGA30    0.090000        1.0080           0
    1990 A    249  ETH  H4   HGA30    0.090000        1.0080           0
    1991 A    249  ETH  H5   HGA30    0.090000        1.0080           0
    1992 A    249  ETH  H6   HGA30    0.090000        1.0080           0
    1993 A    250  ETH  C1   CG3310   -0.270000       12.0110           0
    1994 A    250  ETH  C2   CG3310   -0.270000       12.0110           0
    1995 A    250  ETH  H1   HGA30    0.090000        1.0080           0
    1996 A    250  ETH  H2   HGA30    0.090000        1.0080           0
    1997 A    250  ETH  H3   HGA30    0.090000        1.0080           0
    1998 A    250  ETH  H4   HGA30    0.090000        1.0080           0
    1999 A    250  ETH  H5   HGA30    0.090000        1.0080           0
    2000 A    250  ETH  H6   HGA30    0.090000        1.0080           0
    2001 A    251  ETH  C1   CG3310   -0.270000       12.0110           0
    2002 A    251  ETH  C2   CG3310   -0.270000       12.0110           0
    2003 A    251  ETH  H1   HGA30    0.090000        1.0080           0
    2004 A    251  ETH  H2   HGA30    0.090000        1.0080           0
    2005 A    251  ETH  H3   HGA30    0.090000        1.0080           0
    2006 A    251  ETH  H4   HGA30    0.090000        1.0080           0
    2007 A    251  ETH  H5   HGA30    0.090000        1.0080           0
    2008 A    251  ETH  H6   HGA30    0.090000        1.0080           0
    2009 A    252  ETH  C1   CG3310   -0.270000       12.0110           0
    2010 A    252  ETH  C2   CG3310   -0.270000       12.0110           0
    2011 A    252  ETH  H1   HGA30    0.090000        1.0080           0
    2012 A    252  ETH  H2   HGA30    0.090000        1.0080           0
    2013 A    252  ETH  H3   HGA30    0.090000        1.0080           0
    2014 A    252  ETH  H4   HGA30    0.090000        1.0080           0
    2015 A    252  ETH  H5   HGA30    0.090000        1.0080           0
    2016 A    252  ETH  H6   HGA30    0.090000        1.0080           0
    2017 A    253  ETH  C1   CG3310   -0.270000       12.0110           0
    2018 A    253  ETH  C2   CG3310   -0.270000       12.0110           0
    2019 A    253  ETH  H1   HGA30    0.090000        1.0080           0
    2020 A    253  ETH  H2   HGA30    0.090000        1.0080           0
    2021 A    253  ETH  H3   HGA30    0.090000        1.0080           0
    2022 A    253  ETH  H4   HGA30    0.090000        1.0080           0
    2023 A    253  ETH  H5   HGA30    0.090000        1.0080           0
    2024 A    253  ETH  H6   HGA30    0.090000        1.0080           0
    2025 A    254  ETH  C1   CG3310   -0.270000       12.0110           0
    2026 A    254  ETH  C2   CG3310   -0.270000       12.0110           0
    2027 A    254  ETH  H1   HGA30    0.090000        1.0080           0
    2028 A    254  ETH  H2   HGA30    0.090000        1.0080           0
    2029 A    254  ETH  H3   HGA30    0.090000        1.0080           0
    2030 A    254  ETH  H4   HGA30    0.090000        1.0080           0
    2031 A    254  ETH  H5   HGA30    0.090000        1.0080           0
    2032 A    254  ETH  H6   HGA30    0.090000        1.0080           0
    2033 A    255  ETH  C1   CG3310   -0.270000       12.0110           0
    2034 A    255  ETH  C2   CG3310   -0.270000       12.0110           0
    2035 A    255  ETH  H1   HGA30    0.090000        1.0080           0
    2036 A    255  ETH  H2   HGA30    0.090000        1.0080           0
    2037 A    255  ETH  H3   HGA30    0.090000        1.0080           0
    2038 A    255  ETH  H4   HGA30    0.090000        1.0080           0
    2039 A    255  ETH  H5   HGA30    0.090000        1.0080           0
    2040 A    255  ETH  H6   HGA30    0.090000        1.0080           0
    2041 A    256  ETH  C1   CG3310   -0.270000       12.0110           0
    2042 A    256  ETH  C2   CG3310   -0.270000       12.0110           0
    2043 A    256  ETH  H1   HGA30    0.090000        1.0080           0
    2044 A    256  ETH  H2   HGA30    0.090000        1.0080           0
    2045 A    256  ETH  H3   HGA30    0.090000        1.0080           0
    2046 A    256  ETH  H4   HGA30    0.090000        1.0080           0
    2047 A    256  ETH  H5   HGA30    0.090000        1.0080           0
    2048 A    256  ETH  H6   HGA30    0.090000        1.0080           0
    2049 A    257  ETH  C1   CG3310   -0.270000       12.0110           0
    2050 A    257  ETH  C2   CG3310   -0.270000       12.0110           0
    2051 A    257  ETH  H1   HGA30    0.090000        1.0080           0
    2052 A    257  ETH  H2   HGA30    0.090000        1.0080           0
    2053 A    257  ETH  H3   HGA30    0.090000        1.0080           0
    2054 A    257  ETH  H4   HGA30    0.090000        1.0080           0
    2055 A    257  ETH  H5   HGA30    0.090000        1.0080           0
    2056 A    257  ETH  H6   HGA30    0.090000        1.0080           0
    2057 A    258  ETH  C1   CG3310   -0.270000       12.0110           0
    2058 A    258  ETH  C2   CG3310   -0.270000       12.0110           0
    2059 A    258  ETH  H1   HGA30    0.090000        1.0080           0
    2060 A    258  ETH  H2   HGA30    0.090000        1.0080           0
    2061 A    258  ETH  H3   HGA30    0.090000        1.0080           0
    2062 A    258  ETH  H4   HGA30    0.090000        1.0080           0
    2063 A    258  ETH  H5   HGA30    0.090000        1.0080           0
    2064 A    258  ETH  H6   HGA30    0.090000        1.0080           0
    2065 A    259  ETH  C1   CG3310   -0.270000       12.0110           0
    2066 A    259  ETH  C2   CG3310   -0.270000       12.0110           0
    2067 A    259  ETH  H1   HGA30    0.090000        1.0080           0
    2068 A    259  ETH  H2   HGA30    0.090000        1.0080           0
    2069 A    259  ETH  H3   HGA30    0.090000        1.0080           0
    2070 A    259  ETH  H4   HGA30    0.090000        1.0080           0
    2071 A    259  ETH  H5   HGA30    0.090000        1.0080           0
    2072 A    259  ETH  H6   HGA30    0.090000        1.0080           0
    2073 A    260  ETH  C1   CG3310   -0.270000       12.0110           0
    2074 A    260  ETH  C2   CG3310   -0.270000       12.0110           0
    2075 A    260  ETH  H1   HGA30    0.090000        1.0080           0
    2076 A    260  ETH  H2   HGA30    0.090000        1.0080           0
    2077 A    260  ETH  H3   HGA30    0.090000        1.0080           0
    2078 A    260  ETH  H4   HGA30    0.090000        1.0080           0
    2079 A    260  ETH  H5   HGA30    0.090000        1.0080           0
    2080 A    260  ETH  H6   HGA30    0.090000        1.0080           0
    2081 A    261  ETH  C1   CG3310   -0.270000       12.0110           0
    2082 A    261  ETH  C2   CG3310   -0.270000       12.0110           0
    2083 A    261  ETH  H1   HGA30    0.090000        1.0080           0
    2084 A    261  ETH  H2   HGA30    0.090000        1.0080           0
    2085 A    261  ETH  H3   HGA30    0.090000        1.0080           0
    2086 A    261  ETH  H4   HGA30    0.090000        1.0080           0
    2087 A    261  ETH  H5   HGA30    0.090000        1.0080           0
    2088 A    261  ETH  H6   HGA30    0.090000        1.0080           0
    2089 A    262  ETH  C1   CG3310   -0.270000       12.0110           0
    2090 A    262  ETH  C2   CG3310   -0.270000       12.0110           0
    2091 A    262  ETH  H1   HGA30    0.090000        1.0080           0
    2092 A    262  ETH  H2   HGA30    0.090000        1.0080           0
    2093 A    262  ETH  H3   HGA30    0.090000        1.0080           0
    2094 A    262  ETH  H4   HGA30    0.090000        1.0080           0
    2095 A    262  ETH  H5   HGA30    0.090000        1.0080           0
    2096 A    262  ETH  H6   HGA30    0.090000        1.0080           0
    2097 A    263  ETH  C1   CG3310   -0.270000       12.0110           0
    2098 A    263  ETH  C2   CG3310   -0.270000       12.0110           0
    2099 A    263  ETH  H1   HGA30    0.090000        1.0080           0
    2100 A    263  ETH  H2   HGA30    0.090000        1.0080           0
    2101 A    263  ETH  H3   HGA30    0.090000        1.0080           0
    2102 A    263  ETH  H4   HGA30    0.090000        1.0080           0
    2103 A    263  ETH  H5   HGA30    0.090000        1.0080           0
    2104 A    263  ETH  H6   HGA30    0.090000        1.0080           0
    2105 A    264  ETH  C1   CG3310   -0.270000       12.0110           0
    2106 A    264  ETH  C2   CG3310   -0.270000       12.0110           0
    2107 A    264  ETH  H1   HGA30    0.090000        1.0080           0
    2108 A    264  ETH  H2   HGA30    0.090000        1.0080           0
    2109 A    264  ETH  H3   HGA30    0.090000        1.0080           0
    2110 A    264  ETH  H4   HGA30    0.090000        1.0080           0
    2111 A    264  ETH  H5   HGA30    0.090000        1.0080           0
    2112 A    264  ETH  H6   HGA30    0.090000        1.0080           0
    2113 A    265  ETH  C1   CG3310   -0.270000       12.0110           0
    2114 A    265  ETH  C2   CG3310   -0.270000       12.0110           0
    2115 A    265  ETH  H1   HGA30    0.090000        1.0080           0
    2116 A    265  ETH  H2   HGA30    0.090000        1.0080           0
    2117 A    265  ETH  H3   HGA30    0.090000        1.0080           0
    2118 A    265  ETH  H4   HGA30    0.090000        1.0080           0
    2119 A    265  ETH  H5   HGA30    0.090000        1.0080           0
    2120 A    265  ETH  H6   HGA30    0.090000        1.0080           0
    2121 A    266  ETH  C1   CG3310   -0.270000       12.0110           0
    2122 A    266  ETH  C2   CG3310   -0.270000       12.0110           0
    2123 A    266  ETH  H1   HGA30    0.090000        1.0080           0
    2124 A    266  ETH  H2   HGA30    0.090000        1.0080           0
    2125 A    266  ETH  H3   HGA30    0.090000        1.0080           0
    2126 A    266  ETH  H4   HGA30    0.090000        1.0080           0
    2127 A    266  ETH  H5   HGA30    0.090000        1.0080           0
    2128 A    266  ETH  H6   HGA30    0.090000        1.0080           0
    2129 A    267  ETH  C1   CG3310   -0.270000       12.0110           0
    2130 A    267  ETH  C2   CG3310   -0.270000       12.0110           0
    2131 A    267  ETH  H1   HGA30    0.090000        1.0080           0
    2132 A    267  ETH  H2   HGA30    0.090000        1.0080           0
    2133 A    267  ETH  H3   HGA30    0.090000        1.0080           0
    2134 A    267  ETH  H4   HGA30    0.090000        1.0080           0
    2135 A    267  ETH  H5   HGA30    0.090000        1.0080           0
    2136 A    267  ETH  H6   HGA30    0.090000        1.0080           0
    2137 A    268  ETH  C1   CG3310   -0.270000       12.0110           0
    2138 A    268  ETH  C2   CG3310   -0.270000       12.0110           0
    2139 A    268  ETH  H1   HGA30    0.090000        1.0080           0
    2140 A    268  ETH  H2   HGA30    0.090000        1.0080           0
    2141 A    268  ETH  H3   HGA30    0.090000        1.0080           0
    2142 A    268  ETH  H4   HGA30    0.090000        1.0080           0
    2143 A    268  ETH  H5   HGA30    0.090000        1.0080           0
    2144 A    268  ETH  H6   HGA30    0.090000        1.0080           0
    2145 A    269  ETH  C1   CG3310   -0.270000       12.0110           0
    2146 A    269  ETH  C2   CG3310   -0.270000       12.0110           0
    2147 A    269  ETH  H1   HGA30    0.090000        1.0080           0
    2148 A    269  ETH  H2   HGA30    0.090000        1.0080           0
    2149 A    269  ETH  H3   HGA30    0.090000        1.0080           0
    2150 A    269  ETH  H4   HGA30    0.090000        1.0080           0
    2151 A    269  ETH  H5   HGA30    0.090000        1.0080           0
    2152 A    269  ETH  H6   HGA30    0.090000        1.0080           0
    2153 A    270  ETH  C1   CG3310   -0.270000       12.0110           0
    2154 A    270  ETH  C2   CG3310   -0.270000       12.0110           0
    2155 A    270  ETH  H1   HGA30    0.090000        1.0080           0
    2156 A    270  ETH  H2   HGA30    0.090000        1.0080           0
    2157 A    270  ETH  H3   HGA30    0.090000        1.0080           0
    2158 A    270  ETH  H4   HGA30    0.090000        1.0080           0
    2159 A    270  ETH  H5   HGA30    0.090000        1.0080           0
    2160 A    270  ETH  H6   HGA30    0.090000        1.0080           0
    2161 A    271  ETH  C1   CG3310   -0.270000       12.0110           0
    2162 A    271  ETH  C2   CG3310   -0.270000       12.0110           0
    2163 A    271  ETH  H1   HGA30    0.090000        1.0080           0
    2164 A    271  ETH  H2   HGA30    0.090000        1.0080           0
    2165 A    271  ETH  H3   HGA30    0.090000        1.0080           0
    2166 A    271  ETH  H4   HGA30    0.090000        1.0080           0
    2167 A    271  ETH  H5   HGA30    0.090000        1.0080           0
    2168 A    271  ETH  H6   HGA30    0.090000        1.0080           0
    2169 A    272  ETH  C1   CG3310   -0.270000       12.0110           0
    2170 A    272  ETH  C2   CG3310   -0.270000       12.0110           0
    2171 A    272  ETH  H1   HGA30    0.090000        1.0080           0
    2172 A    272  ETH  H2   HGA30    0.090000        1.0080           0
    2173 A    272  ETH  H3   HGA30    0.090000        1.0080           0
    2174 A    272  ETH  H4   HGA30    0.090000        1.0080           0
    2175 A    272  ETH  H5   HGA30    0.090000        1.0080           0
    2176 A    272  ETH  H6   HGA30    0.090000        1.0080           0
    2177 A    273  ETH  C1   CG3310   -0.270000       12.0110           0
    2178 A    273  ETH  C2   CG3310   -0.270000       12.0110           0
    2179 A    273  ETH  H1   HGA30    0.090000        1.0080           0
    2180 A    273  ETH  H2   HGA30    0.090000        1.0080           0
    2181 A    273  ETH  H3   HGA30    0.090000        1.0080           0
    2182 A    273  ETH  H4   HGA30    0.090000        1.0080           0
    2183 A    273  ETH  H5   HGA30    0.090000        1.0080           0
    2184 A    273  ETH  H6   HGA30    0.090000        1.0080           0
    2185 A    274  ETH  C1   CG3310   -0.270000       12.0110           0
    2186 A    274  ETH  C2   CG3310   -0.270000       12.0110           0
    2187 A    274  ETH  H1   HGA30    0.090000        1.0080           0
    2188 A    274  ETH  H2   HGA30    0.090000        1.0080           0
    2189 A    274  ETH  H3   HGA30    0.090000        1.0080           0
    2190 A    274  ETH  H4   HGA30    0.090000        1.0080           0
    2191 A    274  ETH  H5   HGA30    0.090000        1.0080           0
    2192 A    274  ETH  H6   HGA30    0.090000        1.0080           0
    2193 A    275  ETH  C1   CG3310   -0.270000       12.0110           0
    2194 A    275  ETH  C2   CG3310   -0.270000       12.0110           0
    2195 A    275  ETH  H1   HGA30    0.090000        1.0080           0
    2196 A    275  ETH  H2   HGA30    0.090000        1.0080           0
    2197 A    275  ETH  H3   HGA30    0.090000        1.0080           0
    2198 A    275  ETH  H4   HGA30    0.090000        1.0080           0
    2199 A    275  ETH  H5   HGA30    0.090000        1.0080           0
    2200 A    275  ETH  H6   HGA30    0.090000        1.0080           0
    2201 A    276  ETH  C1   CG3310   -0.270000       12.0110           0
    2202 A    276  ETH  C2   CG3310   -0.270000       12.0110           0
    2203 A    276  ETH  H1   HGA30    0.090000        1.0080           0
    2204 A    276  ETH  H2   HGA30    0.090000        1.0080           0
    2205 A    276  ETH  H3   HGA30    0.090000        1.0080           0
    2206 A    276  ETH  H4   HGA30    0.090000        1.0080           0
    2207 A    276  ETH  H5   HGA30    0.090000        1.0080           0
    2208 A    276  ETH  H6   HGA30    0.090000        1.0080           0
    2209 A    277  ETH  C1   CG3310   -0.270000       12.0110           0
    2210 A    277  ETH  C2   CG3310   -0.270000       12.0110           0
    2211 A    277  ETH  H1   HGA30    0.090000        1.0080           0
    2212 A    277  ETH  H2   HGA30    0.090000        1.0080           0
    2213 A    277  ETH  H3   HGA30    0.090000        1.0080           0
    2214 A    277  ETH  H4   HGA30    0.090000        1.0080           0
    2215 A    277  ETH  H5   HGA30    0.090000        1.0080           0
    2216 A    277  ETH  H6   HGA30    0.090000        1.0080           0
    2217 A    278  ETH  C1   CG3310   -0.270000       12.0110           0
    2218 A    278  ETH  C2   CG3310   -0.270000       12.0110           0
    2219 A    278  ETH  H1   HGA30    0.090000        1.0080           0
    2220 A    278  ETH  H2   HGA30    0.090000        1.0080           0
    2221 A    278  ETH  H3   HGA30    0.090000        1.0080           0
    2222 A    278  ETH  H4   HGA30    0.090000        1.0080           0
    2223 A    278  ETH  H5   HGA30    0.090000        1.0080           0
    2224 A    278  ETH  H6   HGA30    0.090000        1.0080           0
    2225 A    279  ETH  C1   CG3310   -0.270000       12.0110           0
    2226 A    279  ETH  C2   CG3310   -0.270000       12.0110           0
    2227 A    279  ETH  H1   HGA30    0.090000        1.0080           0
    2228 A    279  ETH  H2   HGA30    0.090000        1.0080           0
    2229 A    279  ETH  H3   HGA30    0.090000        1.0080           0
    2230 A    279  ETH  H4   HGA30    0.090000        1.0080           0
    2231 A    279  ETH  H5   HGA30    0.090000        1.0080           0
    2232 A    279  ETH  H6   HGA30    0.090000        1.0080           0
    2233 A    280  ETH  C1   CG3310   -0.270000       12.0110           0
    2234 A    280  ETH  C2   CG3310   -0.270000       12.0110           0
    2235 A    280  ETH  H1   HGA30    0.090000        1.0080           0
    2236 A    280  ETH  H2   HGA30    0.090000        1.0080           0
    2237 A    280  ETH  H3   HGA30    0.090000        1.0080           0
    2238 A    280  ETH  H4   HGA30    0.090000        1.0080           0
    2239 A    280  ETH  H5   HGA30    0.090000        1.0080           0
    2240 A    280  ETH  H6   HGA30    0.090000        1.0080           0
    2241 A    281  ETH  C1   CG3310   -0.270000       12.0110           0
    2242 A    281  ETH  C2   CG3310   -0.270000       12.0110           0
    2243 A    281  ETH  H1   HGA30    0.090000        1.0080           0
    2244 A    281  ETH  H2   HGA30    0.090000        1.0080           0
    2245 A    281  ETH  H3   HGA30    0.090000        1.0080           0
    2246 A    281  ETH  H4   HGA30    0.090000        1.0080           0
    2247 A    281  ETH  H5   HGA30    0.090000        1.0080           0
    2248 A    281  ETH  H6   HGA30    0.090000        1.0080           0
    2249 A    282  ETH  C1   CG3310   -0.270000       12.0110           0
    2250 A    282  ETH  C2   CG3310   -0.270000       12.0110           0
    2251 A    282  ETH  H1   HGA30    0.090000        1.0080           0
    2252 A    282  ETH  H2   HGA30    0.090000        1.0080           0
    2253 A    282  ETH  H3   HGA30    0.090000        1.0080           0
    2254 A    282  ETH  H4   HGA30    0.090000        1.0080           0
    2255 A    282  ETH  H5   HGA30    0.090000        1.0080           0
    2256 A    282  ETH  H6   HGA30    0.090000        1.0080           0
    2257 A    283  ETH  C1   CG3310   -0.270000       12.0110           0
    2258 A    283  ETH  C2   CG3310   -0.270000       12.0110           0
    2259 A    283  ETH  H1   HGA30    0.090000        1.0080           0
    2260 A    283  ETH  H2   HGA30    0.090000        1.0080           0
    2261 A    283  ETH  H3   HGA30    0.090000        1.0080           0
    2262 A    283  ETH  H4   HGA30    0.090000        1.0080           0
    2263 A    283  ETH  H5   HGA30    0.090000        1.0080           0
    2264 A    283  ETH  H6   HGA30    0.090000        1.0080           0
    2265 A    284  ETH  C1   CG3310   -0.270000       12.0110           0
    2266 A    284  ETH  C2   CG3310   -0.270000       12.0110           0
    2267 A    284  ETH  H1   HGA30    0.090000        1.0080           0
    2268 A    284  ETH  H2   HGA30    0.090000        1.0080           0
    2269 A    284  ETH  H3   HGA30    0.090000        1.0080           0
    2270 A    284  ETH  H4   HGA30    0.090000        1.0080           0
    2271 A    284  ETH  H5   HGA30    0.090000        1.0080           0
    2272 A    284  ETH  H6   HGA30    0.090000        1.0080           0
    2273 A    285  ETH  C1   CG3310   -0.270000       12.0110           0
    2274 A    285  ETH  C2   CG3310   -0.270000       12.0110           0
    2275 A    285  ETH  H1   HGA30    0.090000        1.0080           0
    2276 A    285  ETH  H2   HGA30    0.090000        1.0080           0
    2277 A    285  ETH  H3   HGA30    0.090000        1.0080           0
    2278 A    285  ETH  H4   HGA30    0.090000        1.0080           0
    2279 A    285  ETH  H5   HGA30    0.090000        1.0080           0
    2280 A    285  ETH  H6   HGA30    0.090000        1.0080           0
    2281 A    286  ETH  C1   CG3310   -0.270000       12.0110           0
    2282 A    286  ETH  C2   CG3310   -0.270000       12.0110           0
    2283 A    286  ETH  H1   HGA30    0.090000        1.0080           0
    2284 A    286  ETH  H2   HGA30    0.090000        1.0080           0
    2285 A    286  ETH  H3   HGA30    0.090000        1.0080           0
    2286 A    286  ETH  H4   HGA30    0.090000        1.0080           0
    2287 A    286  ETH  H5   HGA30    0.090000        1.0080           0
    2288 A    286  ETH  H6   HGA30    0.090000        1.0080           0
    2289 A    287  ETH  C1   CG3310   -0.270000       12.0110           0
    2290 A    287  ETH  C2   CG3310   -0.270000       12.0110           0
    2291 A    287  ETH  H1   HGA30    0.090000        1.0080           0
    2292 A    287  ETH  H2   HGA30    0.090000        1.0080           0
    2293 A    287  ETH  H3   HGA30    0.090000        1.0080           0
    2294 A    287  ETH  H4   HGA30    0.090000        1.0080           0
    2295 A    287  ETH  H5   HGA30    0.090000        1.0080           0
    2296 A    287  ETH  H6   HGA30    0.090000        1.0080           0
    2297 A    288  ETH  C1   CG3310   -0.270000       12.0110           0
    2298 A    288  ETH  C2   CG3310   -0.270000       12.0110           0
    2299 A    288  ETH  H1   HGA30    0.090000        1.0080           0
    2300 A    288  ETH  H2   HGA30    0.090000        1.0080           0
    2301 A    288  ETH  H3   HGA30    0.090000        1.0080           0
    2302 A    288  ETH  H4   HGA30    0.090000        1.0080           0
    2303 A    288  ETH  H5   HGA30    0.090000        1.0080           0
    2304 A    288  ETH  H6   HGA30    0.090000        1.0080           0
    2305 A    289  ETH  C1   CG3310   -0.270000       12.0110           0
    2306 A    289  ETH  C2   CG3310   -0.270000       12.0110           0
    2307 A    289  ETH  H1   HGA30    0.090000        1.0080           0
    2308 A    289  ETH  H2   HGA30    0.090000        1.0080           0
    2309 A    289  ETH  H3   HGA30    0.090000        1.0080           0
    2310 A    289  ETH  H4   HGA30    0.090000        1.0080           0
    2311 A    289  ETH  H5   HGA30    0.090000        1.0080           0
    2312 A    289  ETH  H6   HGA30    0.090000        1.0080           0
    2313 A    290  ETH  C1   CG3310   -0.270000       12.0110           0
    2314 A    290  ETH  C2   CG3310   -0.270000       12.0110           0
    2315 A    290  ETH  H1   HGA30    0.090000        1.0080           0
    2316 A    290  ETH  H2   HGA30    0.090000        1.0080           0
    2317 A    290  ETH  H3   HGA30    0.090000        1.0080           0
    2318 A    290  ETH  H4   HGA30    0.090000        1.0080           0
    2319 A    290  ETH  H5   HGA30    0.090000        1.0080           0
    2320 A    290  ETH  H6   HGA30    0.090000        1.0080           0
    2321 A    291  ETH  C1   CG3310   -0.270000       12.0110           0
    2322 A    291  ETH  C2   CG3310   -0.270000       12.0110           0
    2323 A    291  ETH  H1   HGA30    0.090000        1.0080           0
    2324 A    291  ETH  H2   HGA30    0.090000        1.0080           0
    2325 A    291  ETH  H3   HGA30    0.090000        1.0080           0
    2326 A    291  ETH  H4   HGA30    0.090000        1.0080           0
    2327 A    291  ETH  H5   HGA30    0.090000        1.0080           0
    2328 A    291  ETH  H6   HGA30    0.090000        1.0080           0
    2329 A    292  ETH  C1   CG3310   -0.270000       12.0110           0
    2330 A    292  ETH  C2   CG3310   -0.270000       12.0110           0
    2331 A    292  ETH  H1   HGA30    0.090000        1.0080           0
    2332 A    292  ETH  H2   HGA30    0.090000        1.0080           0
    2333 A    292  ETH  H3   HGA30    0.090000        1.0080           0
    2334 A    292  ETH  H4   HGA30    0.090000        1.0080           0
    2335 A    292  ETH  H5   HGA30    0.090000        1.0080           0
    2336 A    292  ETH  H6   HGA30    0.090000        1.0080           0
    2337 A    293  ETH  C1   CG3310   -0.270000       12.0110           0
    2338 A    293  ETH  C2   CG3310   -0.270000       12.0110           0
    2339 A    293  ETH  H1   HGA30    0.090000        1.0080           0
    2340 A    293  ETH  H2   HGA30    0.090000        1.0080           0
    2341 A    293  ETH  H3   HGA30    0.090000        1.0080           0
    2342 A    293  ETH  H4   HGA30    0.090000        1.0080           0
    2343 A    293  ETH  H5   HGA30    0.090000        1.0080           0
    2344 A    293  ETH  H6   HGA30    0.090000        1.0080           0

    2051 !NBOND: bonds 
       2       6       2       7       2       8       1       2
       1       3       1       4       1       5      10      14
      10      15      10      16       9      10       9      11
       9      12       9      13      18      22      18      23
      18      24      17      18      17      19      17      20
      17      21      26      30      26      31      26      32
      25      26      25      27      25      28      25      29
      34      38      34      39      34      40      33      34
      33      35      33      36      33      37      42      46
      42      47      42      48      41      42      41      43
      41      44      41      45      50      54      50      55
      50      56      49      50      49      51      49      52
      49      53      58      62      58      63      58      64
      57      58      57      59      57      60      57      61
      66      70      66      71      66      72      65      66
      65      67      65      68      65      69      74      78
      74      79      74      80      73      74      73      75
      73      76      73      77      82      86      82      87
      82      88      81      82      81      83      81      84
      81      85      90      94      90      95      90      96
      89      90      89      91      89      92      89      93
      98     102      98     103      98     104      97      98
      97      99      97     100      97     101     106     110
     106     111     106     112     105     106     105     107
     105     108     105     109     114     118     114     119
     114     120     113     114     113     115     113     116
     113     117     122     126     122     127     122     128
     121     122     121     123     121     124     121     125
     130     134     130     135     130     136     129     130
     129     131     129     132     129     133     138     142
     138     143     138     144     137     138     137     139
     137     140     137     141     146     150     146     151
     146     152     145     146     145     147     145     148
     145     149     154     158     154     159     154     160
     153     154     153     155     153     156     153     157
     162     166     162     167     162     168     161     162
     161     163     161     164     161     165     170     174
     170     175     170     176     169     170     169     171
     169     172     169     173     178     182     178     183
     178     184     177     178     177     179     177     180
     177     181     186     190     186     191     186     192
     185     186     185     187     185     188     185     189
     194     198     194     199     194     200     193     194
     193     195     193     196     193     197     202     206
     202     207     202     208     201     202     201     203
     201     204     201     205     210     214     210     215
     210     216     209     210     209     211     209     212
     209     213     218     222     218     223     218     224
     217     218     217     219     217     220     217     221
     226     230     226     231     226     232     225     226
     225     227     225     228     225     229     234     238
     234     239     234     240     233     234     233     235
     233     236     233     237     242     246     242     247
     242     248     241     242     241     243     241     244
     241     245     250     254     250     255     250     256
     249     250     249     251     249     252     249     253
     258     262     258     263     258     264     257     258
     257     259     257     260     257     261     266     270
     266     271     266     272     265     266     265     267
     265     268     265     269     274     278     274     279
     274     280     273     274     273     275     273     276
     273     277     282     286     282     287     282     288
     281     282     281     283     281     284     281     285
     290     294     290     295     290     296     289     290
     289     291     289     292     289     293     298     302
     298     303     298     304     297     298     297     299
     297     300     297     301     306     310     306     311
     306     312     305     306     305     307     305     308
     305     309     314     318     314     319     314     320
     313     314     313     315     313     316     313     317
     322     326     322     327     322     328     321     322
     321     323     321     324     321     325     330     334
     330     335     330     336     329     330     329     331
     329     332     329     333     338     342     338     343
     338     344     337     338     337     339     337     340
     337     341     346     350     346     351     346     352
     345     346     345     347     345     348     345     349
     354     358     354     359     354     360     353     354
     353     355     353     356     353     357     362     366
     362     367     362     368     361     362     361     363
     361     364     361     365     370     374     370     375
     370     376     369     370     369     371     369     372
     369     373     378     382     378     383     378     384
     377     378     377     379     377     380     377     381
     386     390     386     391     386     392     385     386
     385     387     385     388     385     389     394     398
     394     399     394     400     393     394     393     395
     393     396     393     397     402     406     402     407
     402     408     401     402     401     403     401     404
     401     405     410     414     410     415     410     416
     409     410     409     411     409     412     409     413
     418     422     418     423     418     424     417     418
     417     419     417     420     417     421     426     430
     426     431     426     432     425     426     425     427
     425     428     425     429     434     438     434     439
     434     440     433     434     433     435     433     436
     433     437     442     446     442     447     442     448
     441     442     441     443     441     444     441     445
     450     454     450     455     450     456     449     450
     449     451     449     452     449     453     458     462
     458     463     458     464     457     458     457     459
     457     460     457     461     466     470     466     471
     466     472     465     466     465     467     465     468
     465     469     474     478     474     479     474     480
     473     474     473     475     473     476     473     477
     482     486     482     487     482     488     481     482
     481     483     481     484     481     485     490     494
     490     495     490     496     489     490     489     491
     489     492     489     493     498     502     498     503
     498     504     497     498     497     499     497     500
     497     501     506     510     506     511     506     512
     505     506     505     507     505     508     505     509
     514     518     514     519     514     520     513     514
     513     515     513     516     513     517     522     526
     522     527     522     528     521     522     521     523
     521     524     521     525     530     534     530     535
     530     536     529     530     529     531     529     532
     529     533     538     542     538     543     538     544
     537     538     537     539     537     540     537     541
     546     550     546     551     546     552     545     546
     545     547     545     548     545     549     554     558
     554     559     554     560     553     554     553     555
     553     556     553     557     562     566     562     567
     562     568     561     562     561     563     561     564
     561     565     570     574     570     575     570     576
     569     570     569     571     569     572     569     573
     578     582     578     583     578     584     577     578
     577     579     577     580     577     581     586     590
     586     591     586     592     585     586     585     587
     585     588     585     589     594     598     594     599
     594     600     593     594     593     595     593     596
     593     597     602     606     602     607     602     608
     601     602     601     603     601     604     601     605
     610     614     610     615     610     616     609     610
     609     611     609     612     609     613     618     622
     618     623     618     624     617     618     617     619
     617     620     617     621     626     630     626     631
     626     632     625     626     625     627     625     628
     625     629     634     638     634     639     634     640
     633     634     633     635     633     636     633     637
     642     646     642     647     642     648     641     642
     641     643     641     644     641     645     650     654
     650     655     650     656     649     650     649     651
     649     652     649     653     658     662     658     663
     658     664     657     658     657     659     657     660
     657     661     666     670     666     671     666     672
     665     666     665     667     665     668     665     669
     674     678     674     679     674     680     673     674
     673     675     673     676     673     677     682     686
     682     687     682     688     681     682     681     683
     681     684     681     685     690     694     690     695
     690     696     689     690     689     691     689     692
     689     693     698     702     698     703     698     704
     697     698     697     699     697     700     697     701
     706     710     706     711     706     712     705     706
     705     707     705     708     705     709     714     718
     714     719     714     720     713     714     713     715
     713     716     713     717     722     726     722     727
     722     728     721     722     721     723     721     724
     721     725     730     734     730     735     730     736
     729     730     729     731     729     732     729     733
     738     742     738     743     738     744     737     738
     737     739     737     740     737     741     746     750
     746     751     746     752     745     746     745     747
     745     748     745     749     754     758     754     759
     754     760     753     754     753     755     753     756
     753     757     762     766     762     767     762     768
     761     762     761     763     761     764     761     765
     770     774     770     775     770     776     769     770
     769     771     769     772     769     773     778     782
     778     783     778     784     777     778     777     779
     777     780     777     781     786     790     786     791
     786     792     785     786     785     787     785     788
     785     789     794     798     794     799     794     800
     793     794     793     795     793     796     793     797
     802     806     802     807     802     808     801     802
     801     803     801     804     801     805     810     814
     810     815     810     816     809     810     809     811
     809     812     809     813     818     822     818     823
     818     824     817     818     817     819     817     820
     817     821     826     830     826     831     826     832
     825     826     825     827     825     828     825     829
     834     838     834     839     834     840     833     834
     833     835     833     836     833     837     842     846
     842     847     842     848     841     842     841     843
     841     844     841     845     850     854     850     855
     850     856     849     850     849     851     849     852
     849     853     858     862     858     863     858     864
     857     858     857     859     857     860     857     861
     866     870     866     871     866     872     865     866
     865     867     865     868     865     869     874     878
     874     879     874     880     873     874     873     875
     873     876     873     877     882     886     882     887
     882     888     881     882     881     883     881     884
     881     885     890     894     890     895     890     896
     889     890     889     891     889     892     889     893
     898     902     898     903     898     904     897     898
     897     899     897     900     897     901     906     910
     906     911     906     912     905     906     905     907
     905     908     905     909     914     918     914     919
     914     920     913     914     913     915     913     916
     913     917     922     926     922     927     922     928
     921     922     921     923     921     924     921     925
     930     934     930     935     930     936     929     930
     929     931     929     932     929     933     938     942
     938     943     938     944     937     938     937     939
     937     940     937     941     946     950     946     951
     946     952     945     946     945     947     945     948
     945     949     954     958     954     959     954     960
     953     954     953     955     953     956     953     957
     962     966     962     967     962     968     961     962
     961     963     961     964     961     965     970     974
     970     975     970     976     969     970     969     971
     969     972     969     973     978     982     978     983
     978     984     977     978     977     979     977     980
     977     981     986     990     986     991     986     992
     985     986     985     987     985     988     985     989
     994     998     994     999     994    1000     993     994
     993     995     993     996     993     997    1002    1006
    1002    1007    1002    1008    1001    1002    1001    1003
    1001    1004    1001    1005    1010    1014    1010    1015
    1010    1016    1009    1010    1009    1011    1009    1012
    1009    1013    1018    1022    1018    1023    1018    1024
    1017    1018    1017    1019    1017    1020    1017    1021
    1026    1030    1026    1031    1026    1032    1025    1026
    1025    1027    1025    1028    1025    1029    1034    1038
    1034    1039    1034    1040    1033    1034    1033    1035
    1033    1036    1033    1037    1042    1046    1042    1047
    1042    1048    1041    1042    1041    1043    1041    1044
    1041    1045    1050    1054    1050    1055    1050    1056
    1049    1050    1049    1051    1049    1052    1049    1053
    1058    1062    1058    1063    1058    1064    1057    1058
    1057    1059    1057    1060    1057    1061    1066    1070
    1066    1071    1066    1072    1065    1066    1065    1067
    1065    1068    1065    1069    1074    1078    1074    1079
    1074    1080    1073    1074    1073    1075    1073    1076
    1073    1077    1082    1086    1082    1087    1082    1088
    1081    1082    1081    1083    1081    1084    1081    1085
    1090    1094    1090    1095    1090    1096    1089    1090
    1089    1091    1089    1092    1089    1093    1098    1102
    1098    1103    1098    1104    1097    1098    1097    1099
    1097    1100    1097    1101    1106    1110    1106    1111
    1106    1112    1105    1106    1105    1107    1105    1108
    1105    1109    1114    1118    1114    1119    1114    1120
    1113    1114    1113    1115    1113    1116    1113    1117
    1122    1126    1122    1127    1122    1128    1121    1122
    1121    1123    1121    1124    1121    1125    1130    1134
    1130    1135    1130    1136    1129    1130    1129    1131
    1129    1132    1129    1133    1138    1142    1138    1143
    1138    1144    1137    1138    1137    1139    1137    1140
    1137    1141    1146    1150    1146    1151    1146    1152
    1145    1146    1145    1147    1145    1148    1145    1149
    1154    1158    1154    1159    1154    1160    1153    1154
    1153    1155    1153    1156    1153    1157    1162    1166
    1162    1167    1162    1168    1161    1162    1161    1163
    1161    1164    1161    1165    1170    1174    1170    1175
    1170    1176    1169    1170    1169    1171    1169    1172
    1169    1173    1178    1182    1178    1183    1178    1184
    1177    1178    1177    1179    1177    1180    1177    1181
    1186    1190    1186    1191    1186    1192    1185    1186
    1185    1187    1185    1188    1185    1189    1194    1198
    1194    1199    1194    1200    1193    1194    1193    1195
    1193    1196    1193    1197    1202    1206    1202    1207
    1202    1208    1201    1202    1201    1203    1201    1204
    1201    1205    1210    1214    1210    1215    1210    1216
    1209    1210    1209    1211    1209    1212    1209    1213
    1218    1222    1218    1223    1218    1224    1217    1218
    1217    1219    1217    1220    1217    1221    1226    1230
    1226    1231    1226    1232    1225    1226    1225    1227
    1225    1228    1225    1229    1234    1238    1234    1239
    1234    1240    1233    1234    1233    1235    1233    1236
    1233    1237    1242    1246    1242    1247    1242    1248
    1241    1242    1241    1243    1241    1244    1241    1245
    1250    1254    1250    1255    1250    1256    1249    1250
    1249    1251    1249    1252    1249    1253    1258    1262
    1258    1263    1258    1264    1257    1258    1257    1259
    1257    1260    1257    1261    1266    1270    1266    1271
    1266    1272    1265    1266    1265    1267    1265    1268
    1265    1269    1274    1278    1274    1279    1274    1280
    1273    1274    1273    1275    1273    1276    1273    1277
    1282    1286    1282    1287    1282    1288    1281    1282
    1281    1283    1281    1284    1281    1285    1290    1294
    1290    1295    1290    1296    1289    1290    1289    1291
    1289    1292    1289    1293    1298    1302    1298    1303
    1298    1304    1297    1298    1297    1299    1297    1300
    1297    1301    1306    1310    1306    1311    1306    1312
    1305    1306    1305    1307    1305    1308    1305    1309
    1314    1318    1314    1319    1314    1320    1313    1314
    1313    1315    1313    1316    1313    1317    1322    1326
    1322    1327    1322    1328    1321    1322    1321    1323
    1321    1324    1321    1325    1330    1334    1330    1335
    1330    1336    1329    1330    1329    1331    1329    1332
    1329    1333    1338    1342    1338    1343    1338    1344
    1337    1338    1337    1339    1337    1340    1337    1341
    1346    1350    1346    1351    1346    1352    1345    1346
    1345    1347    1345    1348    1345    1349    1354    1358
    1354    1359    1354    1360    1353    1354    1353    1355
    1353    1356    1353    1357    1362    1366    1362    1367
    1362    1368    1361    1362    1361    1363    1361    1364
    1361    1365    1370    1374    1370    1375    1370    1376
    1369    1370    1369    1371    1369    1372    1369    1373
    1378    1382    1378    1383    1378    1384    1377    1378
    1377    1379    1377    1380    1377    1381    1386    1390
    1386    1391    1386    1392    1385    1386    1385    1387
    1385    1388    1385    1389    1394    1398    1394    1399
    1394    1400    1393    1394    1393    1395    1393    1396
    1393    1397    1402    1406    1402    1407    1402    1408
    1401    1402    1401    1403    1401    1404    1401    1405
    1410    1414    1410    1415    1410    1416    1409    1410
    1409    1411    1409    1412    1409    1413    1418    1422
    1418    1423    1418    1424    1417    1418    1417    1419
    1417    1420    1417    1421    1426    1430    1426    1431
    1426    1432    1425    1426    1425    1427    1425    1428
    1425    1429    1434    1438    1434    1439    1434    1440
    1433    1434    1433    1435    1433    1436    1433    1437
    1442    1446    1442    1447    1442    1448    1441    1442
    1441    1443    1441    1444    1441    1445    1450    1454
    1450    1455    1450    1456    1449    1450    1449    1451
    1449    1452    1449    1453    1458    1462    1458    1463
    1458    1464    1457    1458    1457    1459    1457    1460
    1457    1461    1466    1470    1466    1471    1466    1472
    1465    1466    1465    1467    1465    1468    1465    1469
    1474    1478    1474    1479    1474    1480    1473    1474
    1473    1475    1473    1476    1473    1477    1482    1486
    1482    1487    1482    1488    1481    1482    1481    1483
    1481    1484    1481    1485    1490    1494    1490    1495
    1490    1496    1489    1490    1489    1491    1489    1492
    1489    1493    1498    1502    1498    1503    1498    1504
    1497    1498    1497    1499    1497    1500    1497    1501
    1506    1510    1506    1511    1506    1512    1505    1506
    1505    1507    1505    1508    1505    1509    1514    1518
    1514    1519    1514    1520    1513    1514    1513    1515
    1513    1516    1513    1517    1522    1526    1522    1527
    1522    1528    1521    1522    1521    1523    1521    1524
    1521    1525    1530    1534    1530    1535    1530    1536
    1529    1530    1529    1531    1529    1532    1529    1533
    1538    1542    1538    1543    1538    1544    1537    1538
    1537    1539    1537    1540    1537    1541    1546    1550
    1546    1551    1546    1552    1545    1546    1545    1547
    1545    1548    1545    1549    1554    1558    1554    1559
    1554    1560    1553    1554    1553    1555    1553    1556
    1553    1557    1562    1566    1562    1567    1562    1568
    1561    1562    1561    1563    1561    1564    1561    1565
    1570    1574    1570    1575    1570    1576    1569    1570
    1569    1571    1569    1572    1569    1573    1578    1582
    1578    1583    1578    1584    1577    1578    1577    1579
    1577    1580    1577    1581    1586    1590    1586    1591
    1586    1592    1585    1586    1585    1587    1585    1588
    1585    1589    1594    1598    1594    1599    1594    1600
    1593    1594    1593    1595    1593    1596    1593    1597
    1602    1606    1602    1607    1602    1608    1601    1602
    1601    1603    1601    1604    1601    1605    1610    1614
    1610    1615    1610    1616    1609    1610    1609    1611
    1609    1612    1609    1613    1618    1622    1618    1623
    1618    1624    1617    1618    1617    1619    1617    1620
    1617    1621    1626    1630    1626    1631    1626    1632
    1625    1626    1625    1627    1625    1628    1625    1629
    1634    1638    1634    1639    1634    1640    1633    1634
    1633    1635    1633    1636    1633    1637    1642    1646
    1642    1647    1642    1648    1641    1642    1641    1643
    1641    1644    1641    1645    1650    1654    1650    1655
    1650    1656    1649    1650    1649    1651    1649    1652
    1649    1653    1658    1662    1658    1663    1658    1664
    1657    1658    1657    1659    1657    1660    1657    1661
    1666    1670    1666    1671    1666    1672    1665    1666
    1665    1667    1665    1668    1665    1669    1674    1678
    1674    1679    1674    1680    1673    1674    1673    1675
    1673    1676    1673    1677    1682    1686    1682    1687
    1682    1688    1681    1682    1681    1683    1681    1684
    1681    1685    1690    1694    1690    1695    1690    1696
    1689    1690    1689    1691    1689    1692    1689    1693
    1698    1702    1698    1703    1698    1704    1697    1698
    1697    1699    1697    1700    1697    1701    1706    1710
    1706    1711    1706    1712    1705    1706    1705    1707
    1705    1708    1705    1709    1714    1718    1714    1719
    1714    1720    1713    1714    1713    1715    1713    1716
    1713    1717    1722    1726    1722    1727    1722    1728
    1721    1722    1721    1723    1721    1724    1721    1725
    1730    1734    1730    1735    1730    1736    1729    1730
    1729    1731    1729    1732    1729    1733    1738    1742
    1738    1743    1738    1744    1737    1738    1737    1739
    1737    1740    1737    1741    1746    1750    1746    1751
    1746    1752    1745    1746    1745    1747    1745    1748
    1745    1749    1754    1758    1754    1759    1754    1760
    1753    1754    1753    1755    1753    1756    1753    1757
    1762    1766    1762    1767    1762    1768    1761    1762
    1761    1763    1761    1764    1761    1765    1770    1774
    1770    1775    1770    1776    1769    1770    1769    1771
    1769    1772    1769    1773    1778    1782    1778    1783
    1778    1784    1777    1778    1777    1779    1777    1780
    1777    1781    1786    1790    1786    1791    1786    1792
    1785    1786    1785    1787    1785    1788    1785    1789
    1794    1798    1794    1799    1794    1800    1793    1794
    1793    1795    1793    1796    1793    1797    1802    1806
    1802    1807    1802    1808    1801    1802    1801    1803
    1801    1804    1801    1805    1810    1814    1810    1815
    1810    1816    1809    1810    1809    1811    1809    1812
    1809    1813    1818    1822    1818    1823    1818    1824
    1817    1818    1817    1819    1817    1820    1817    1821
    1826    1830    1826    1831    1826    1832    1825    1826
    1825    1827    1825    1828    1825    1829    1834    1838
    1834    1839    1834    1840    1833    1834    1833    1835
    1833    1836    1833    1837    1842    1846    1842    1847
    1842    1848    1841    1842    1841    1843    1841    1844
    1841    1845    1850    1854    1850    1855    1850    1856
    1849    1850    1849    1851    1849    1852    1849    1853
    1858    1862    1858    1863    1858    1864    1857    1858
    1857    1859    1857    1860    1857    1861    1866    1870
    1866    1871    1866    1872    1865    1866    1865    1867
    1865    1868    1865    1869    1874    1878    1874    1879
    1874    1880    1873    1874    1873    1875    1873    1876
    1873    1877    1882    1886    1882    1887    1882    1888
    1881    1882    1881    1883    1881    1884    1881    1885
    1890    1894    1890    1895    1890    1896    1889    1890
    1889    1891    1889    1892    1889    1893    1898    1902
    1898    1903    1898    1904    1897    1898    1897    1899
    1897    1900    1897    1901    1906    1910    1906    1911
    1906    1912    1905    1906    1905    1907    1905    1908
    1905    1909    1914    1918    1914    1919    1914    1920
    1913    1914    1913    1915    1913    1916    1913    1917
    1922    1926    1922    1927    1922    1928    1921    1922
    1921    1923    1921    1924    1921    1925    1930    1934
    1930    1935    1930    1936    1929    1930    1929    1931
    1929    1932    1929    1933    1938    1942    1938    1943
    1938    1944    1937    1938    1937    1939    1937    1940
    1937    1941    1946    1950    1946    1951    1946    1952
    1945    1946    1945    1947    1945    1948    1945    1949
    1954    1958    1954    1959    1954    1960    1953    1954
    1953    1955    1953    1956    1953    1957    1962    1966
    1962    1967    1962    1968    1961    1962    1961    1963
    1961    1964    1961    1965    1970    1974    1970    1975
    1970    1976    1969    1970    1969    1971    1969    1972
    1969    1973    1978    1982    1978    1983    1978    1984
    1977    1978    1977    1979    1977    1980    1977    1981
    1986    1990    1986    1991    1986    1992    1985    1986
    1985    1987    1985    1988    1985    1989    1994    1998
    1994    1999    1994    2000    1993    1994    1993    1995
    1993    1996    1993    1997    2002    2006    2002    2007
    2002    2008    2001    2002    2001    2003    2001    2004
    2001    2005    2010    2014    2010    2015    2010    2016
    2009    2010    2009    2011    2009    2012    2009    2013
    2018    2022    2018    2023    2018    2024    2017    2018
    2017    2019    2017    2020    2017    2021    2026    2030
    2026    2031    2026    2032    2025    2026    2025    2027
    2025    2028    2025    2029    2034    2038    2034    2039
    2034    2040    2033    2034    2033    2035    2033    2036
    2033    2037    2042    2046    2042    2047    2042    2048
    2041    2042    2041    2043    2041    2044    2041    2045
    2050    2054    2050    2055    2050    2056    2049    2050
    2049    2051    2049    2052    2049    2053    2058    2062
    2058    2063    2058    2064    2057    2058    2057    2059
    2057    2060    2057    2061    2066    2070    2066    2071
    2066    2072    2065    2066    2065    2067    2065    2068
    2065    2069    2074    2078    2074    2079    2074    2080
    2073    2074    2073    2075    2073    2076    2073    2077
    2082    2086    2082    2087    2082    2088    2081    2082
    2081    2083    2081    2084    2081    2085    2090    2094
    2090    2095    2090    2096    2089    2090    2089    2091
    2089    2092    2089    2093    2098    2102    2098    2103
    2098    2104    2097    2098    2097    2099    2097    2100
    2097    2101    2106    2110    2106    2111    2106    2112
    2105    2106    2105    2107    2105    2108    2105    2109
    2114    2118    2114    2119    2114    2120    2113    2114
    2113    2115    2113    2116    2113    2117    2122    2126
    2122    2127    2122    2128    2121    2122    2121    2123
    2121    2124    2121    2125    2130    2134    2130    2135
    2130    2136    2129    2130    2129    2131    2129    2132
    2129    2133    2138    2142    2138    2143    2138    2144
    2137    2138    2137    2139    2137    2140    2137    2141
    2146    2150    2146    2151    2146    2152    2145    2146
    2145    2147    2145    2148    2145    2149    2154    2158
    2154    2159    2154    2160    2153    2154    2153    2155
    2153    2156    2153    2157    2162    2166    2162    2167
    2162    2168    2161    2162    2161    2163    2161    2164
    2161    2165    2170    2174    2170    2175    2170    2176
    2169    2170    2169    2171    2169    2172    2169    2173
    2178    2182    2178    2183    2178    2184    2177    2178
    2177    2179    2177    2180    2177    2181    2186    2190
    2186    2191    2186    2192    2185    2186    2185    2187
    2185    2188    2185    2189    2194    2198    2194    2199
    2194    2200    2193    2194    2193    2195    2193    2196
    2193    2197    2202    2206    2202    2207    2202    2208
    2201    2202    2201    2203    2201    2204    2201    2205
    2210    2214    2210    2215    2210    2216    2209    2210
    2209    2211    2209    2212    2209    2213    2218    2222
    2218    2223    2218    2224    2217    2218    2217    2219
    2217    2220    2217    2221    2226    2230    2226    2231
    2226    2232    2225    2226    2225    2227    2225    2228
    2225    2229    2234    2238    2234    2239    2234    2240
    2233    2234    2233    2235    2233    2236    2233    2237
    2242    2246    2242    2247    2242    2248    2241    2242
    2241    2243    2241    2244    2241    2245    2250    2254
    2250    2255    2250    2256    2249    2250    2249    2251
    2249    2252    2249    2253    2258    2262    2258    2263
    2258    2264    2257    2258    2257    2259    2257    2260
    2257    2261    2266    2270    2266    2271    2266    2272
    2265    2266    2265    2267    2265    2268    2265    2269
    2274    2278    2274    2279    2274    2280    2273    2274
    2273    2275    2273    2276    2273    2277    2282    2286
    2282    2287    2282    2288    2281    2282    2281    2283
    2281    2284    2281    2285    2290    2294    2290    2295
    2290    2296    2289    2290    2289    2291    2289    2292
    2289    2293    2298    2302    2298    2303    2298    2304
    2297    2298    2297    2299    2297    2300    2297    2301
    2306    2310    2306    2311    2306    2312    2305    2306
    2305    2307    2305    2308    2305    2309    2314    2318
    2314    2319    2314    2320    2313    2314    2313    2315
    2313    2316    2313    2317    2322    2326    2322    2327
    2322    2328    2321    2322    2321    2323    2321    2324
    2321    2325    2330    2334    2330    2335    2330    2336
    2329    2330    2329    2331    2329    2332    2329    2333
    2338    2342    2338    2343    2338    2344    2337    2338
    2337    2339    2337    2340    2337    2341

    3516 !NTHETA: angles 
       2       1       3       2       1       4       2       1       5
       4       1       3       5       1       3       5       1       4
       1       2       6       1       2       7       1       2       8
       7       2       6       8       2       6       8       2       7
      10       9      11      10       9      12      10       9      13
      12       9      11      13       9      11      13       9      12
       9      10      14       9      10      15       9      10      16
      15      10      14      16      10      14      16      10      15
      18      17      19      18      17      20      18      17      21
      20      17      19      21      17      19      21      17      20
      17      18      22      17      18      23      17      18      24
      23      18      22      24      18      22      24      18      23
      26      25      27      26      25      28      26      25      29
      28      25      27      29      25      27      29      25      28
      25      26      30      25      26      31      25      26      32
      31      26      30      32      26      30      32      26      31
      34      33      35      34      33      36      34      33      37
      36      33      35      37      33      35      37      33      36
      33      34      38      33      34      39      33      34      40
      39      34      38      40      34      38      40      34      39
      42      41      43      42      41      44      42      41      45
      44      41      43      45      41      43      45      41      44
      41      42      46      41      42      47      41      42      48
      47      42      46      48      42      46      48      42      47
      50      49      51      50      49      52      50      49      53
      52      49      51      53      49      51      53      49      52
      49      50      54      49      50      55      49      50      56
      55      50      54      56      50      54      56      50      55
      58      57      59      58      57      60      58      57      61
      60      57      59      61      57      59      61      57      60
      57      58      62      57      58      63      57      58      64
      63      58      62      64      58      62      64      58      63
      66      65      67      66      65      68      66      65      69
      68      65      67      69      65      67      69      65      68
      65      66      70      65      66      71      65      66      72
      71      66      70      72      66      70      72      66      71
      74      73      75      74      73      76      74      73      77
      76      73      75      77      73      75      77      73      76
      73      74      78      73      74      79      73      74      80
      79      74      78      80      74      78      80      74      79
      82      81      83      82      81      84      82      81      85
      84      81      83      85      81      83      85      81      84
      81      82      86      81      82      87      81      82      88
      87      82      86      88      82      86      88      82      87
      90      89      91      90      89      92      90      89      93
      92      89      91      93      89      91      93      89      92
      89      90      94      89      90      95      89      90      96
      95      90      94      96      90      94      96      90      95
      98      97      99      98      97     100      98      97     101
     100      97      99     101      97      99     101      97     100
      97      98     102      97      98     103      97      98     104
     103      98     102     104      98     102     104      98     103
     106     105     107     106     105     108     106     105     109
     108     105     107     109     105     107     109     105     108
     105     106     110     105     106     111     105     106     112
     111     106     110     112     106     110     112     106     111
     114     113     115     114     113     116     114     113     117
     116     113     115     117     113     115     117     113     116
     113     114     118     113     114     119     113     114     120
     119     114     118     120     114     118     120     114     119
     122     121     123     122     121     124     122     121     125
     124     121     123     125     121     123     125     121     124
     121     122     126     121     122     127     121     122     128
     127     122     126     128     122     126     128     122     127
     130     129     131     130     129     132     130     129     133
     132     129     131     133     129     131     133     129     132
     129     130     134     129     130     135     129     130     136
     135     130     134     136     130     134     136     130     135
     138     137     139     138     137     140     138     137     141
     140     137     139     141     137     139     141     137     140
     137     138     142     137     138     143     137     138     144
     143     138     142     144     138     142     144     138     143
     146     145     147     146     145     148     146     145     149
     148     145     147     149     145     147     149     145     148
     145     146     150     145     146     151     145     146     152
     151     146     150     152     146     150     152     146     151
     154     153     155     154     153     156     154     153     157
     156     153     155     157     153     155     157     153     156
     153     154     158     153     154     159     153     154     160
     159     154     158     160     154     158     160     154     159
     162     161     163     162     161     164     162     161     165
     164     161     163     165     161     163     165     161     164
     161     162     166     161     162     167     161     162     168
     167     162     166     168     162     166     168     162     167
     170     169     171     170     169     172     170     169     173
     172     169     171     173     169     171     173     169     172
     169     170     174     169     170     175     169     170     176
     175     170     174     176     170     174     176     170     175
     178     177     179     178     177     180     178     177     181
     180     177     179     181     177     179     181     177     180
     177     178     182     177     178     183     177     178     184
     183     178     182     184     178     182     184     178     183
     186     185     187     186     185     188     186     185     189
     188     185     187     189     185     187     189     185     188
     185     186     190     185     186     191     185     186     192
     191     186     190     192     186     190     192     186     191
     194     193     195     194     193     196     194     193     197
     196     193     195     197     193     195     197     193     196
     193     194     198     193     194     199     193     194     200
     199     194     198     200     194     198     200     194     199
     202     201     203     202     201     204     202     201     205
     204     201     203     205     201     203     205     201     204
     201     202     206     201     202     207     201     202     208
     207     202     206     208     202     206     208     202     207
     210     209     211     210     209     212     210     209     213
     212     209     211     213     209     211     213     209     212
     209     210     214     209     210     215     209     210     216
     215     210     214     216     210     214     216     210     215
     218     217     219     218     217     220     218     217     221
     220     217     219     221     217     219     221     217     220
     217     218     222     217     218     223     217     218     224
     223     218     222     224     218     222     224     218     223
     226     225     227     226     225     228     226     225     229
     228     225     227     229     225     227     229     225     228
     225     226     230     225     226     231     225     226     232
     231     226     230     232     226     230     232     226     231
     234     233     235     234     233     236     234     233     237
     236     233     235     237     233     235     237     233     236
     233     234     238     233     234     239     233     234     240
     239     234     238     240     234     238     240     234     239
     242     241     243     242     241     244     242     241     245
     244     241     243     245     241     243     245     241     244
     241     242     246     241     242     247     241     242     248
     247     242     246     248     242     246     248     242     247
     250     249     251     250     249     252     250     249     253
     252     249     251     253     249     251     253     249     252
     249     250     254     249     250     255     249     250     256
     255     250     254     256     250     254     256     250     255
     258     257     259     258     257     260     258     257     261
     260     257     259     261     257     259     261     257     260
     257     258     262     257     258     263     257     258     264
     263     258     262     264     258     262     264     258     263
     266     265     267     266     265     268     266     265     269
     268     265     267     269     265     267     269     265     268
     265     266     270     265     266     271     265     266     272
     271     266     270     272     266     270     272     266     271
     274     273     275     274     273     276     274     273     277
     276     273     275     277     273     275     277     273     276
     273     274     278     273     274     279     273     274     280
     279     274     278     280     274     278     280     274     279
     282     281     283     282     281     284     282     281     285
     284     281     283     285     281     283     285     281     284
     281     282     286     281     282     287     281     282     288
     287     282     286     288     282     286     288     282     287
     290     289     291     290     289     292     290     289     293
     292     289     291     293     289     291     293     289     292
     289     290     294     289     290     295     289     290     296
     295     290     294     296     290     294     296     290     295
     298     297     299     298     297     300     298     297     301
     300     297     299     301     297     299     301     297     300
     297     298     302     297     298     303     297     298     304
     303     298     302     304     298     302     304     298     303
     306     305     307     306     305     308     306     305     309
     308     305     307     309     305     307     309     305     308
     305     306     310     305     306     311     305     306     312
     311     306     310     312     306     310     312     306     311
     314     313     315     314     313     316     314     313     317
     316     313     315     317     313     315     317     313     316
     313     314     318     313     314     319     313     314     320
     319     314     318     320     314     318     320     314     319
     322     321     323     322     321     324     322     321     325
     324     321     323     325     321     323     325     321     324
     321     322     326     321     322     327     321     322     328
     327     322     326     328     322     326     328     322     327
     330     329     331     330     329     332     330     329     333
     332     329     331     333     329     331     333     329     332
     329     330     334     329     330     335     329     330     336
     335     330     334     336     330     334     336     330     335
     338     337     339     338     337     340     338     337     341
     340     337     339     341     337     339     341     337     340
     337     338     342     337     338     343     337     338     344
     343     338     342     344     338     342     344     338     343
     346     345     347     346     345     348     346     345     349
     348     345     347     349     345     347     349     345     348
     345     346     350     345     346     351     345     346     352
     351     346     350     352     346     350     352     346     351
     354     353     355     354     353     356     354     353     357
     356     353     355     357     353     355     357     353     356
     353     354     358     353     354     359     353     354     360
     359     354     358     360     354     358     360     354     359
     362     361     363     362     361     364     362     361     365
     364     361     363     365     361     363     365     361     364
     361     362     366     361     362     367     361     362     368
     367     362     366     368     362     366     368     362     367
     370     369     371     370     369     372     370     369     373
     372     369     371     373     369     371     373     369     372
     369     370     374     369     370     375     369     370     376
     375     370     374     376     370     374     376     370     375
     378     377     379     378     377     380     378     377     381
     380     377     379     381     377     379     381     377     380
     377     378     382     377     378     383     377     378     384
     383     378     382     384     378     382     384     378     383
     386     385     387     386     385     388     386     385     389
     388     385     387     389     385     387     389     385     388
     385     386     390     385     386     391     385     386     392
     391     386     390     392     386     390     392     386     391
     394     393     395     394     393     396     394     393     397
     396     393     395     397     393     395     397     393     396
     393     394     398     393     394     399     393     394     400
     399     394     398     400     394     398     400     394     399
     402     401     403     402     401     404     402     401     405
     404     401     403     405     401     403     405     401     404
     401     402     406     401     402     407     401     402     408
     407     402     406     408     402     406     408     402     407
     410     409     411     410     409     412     410     409     413
     412     409     411     413     409     411     413     409     412
     409     410     414     409     410     415     409     410     416
     415     410     414     416     410     414     416     410     415
     418     417     419     418     417     420     418     417     421
     420     417     419     421     417     419     421     417     420
     417     418     422     417     418     423     417     418     424
     423     418     422     424     418     422     424     418     423
     426     425     427     426     425     428     426     425     429
     428     425     427     429     425     427     429     425     428
     425     426     430     425     426     431     425     426     432
     431     426     430     432     426     430     432     426     431
     434     433     435     434     433     436     434     433     437
     436     433     435     437     433     435     437     433     436
     433     434     438     433     434     439     433     434     440
     439     434     438     440     434     438     440     434     439
     442     441     443     442     441     444     442     441     445
     444     441     443     445     441     443     445     441     444
     441     442     446     441     442     447     441     442     448
     447     442     446     448     442     446     448     442     447
     450     449     451     450     449     452     450     449     453
     452     449     451     453     449     451     453     449     452
     449     450     454     449     450     455     449     450     456
     455     450     454     456     450     454     456     450     455
     458     457     459     458     457     460     458     457     461
     460     457     459     461     457     459     461     457     460
     457     458     462     457     458     463     457     458     464
     463     458     462     464     458     462     464     458     463
     466     465     467     466     465     468     466     465     469
     468     465     467     469     465     467     469     465     468
     465     466     470     465     466     471     465     466     472
     471     466     470     472     466     470     472     466     471
     474     473     475     474     473     476     474     473     477
     476     473     475     477     473     475     477     473     476
     473     474     478     473     474     479     473     474     480
     479     474     478     480     474     478     480     474     479
     482     481     483     482     481     484     482     481     485
     484     481     483     485     481     483     485     481     484
     481     482     486     481     482     487     481     482     488
     487     482     486     488     482     486     488     482     487
     490     489     491     490     489     492     490     489     493
     492     489     491     493     489     491     493     489     492
     489     490     494     489     490     495     489     490     496
     495     490     494     496     490     494     496     490     495
     498     497     499     498     497     500     498     497     501
     500     497     499     501     497     499     501     497     500
     497     498     502     497     498     503     497     498     504
     503     498     502     504     498     502     504     498     503
     506     505     507     506     505     508     506     505     509
     508     505     507     509     505     507     509     505     508
     505     506     510     505     506     511     505     506     512
     511     506     510     512     506     510     512     506     511
     514     513     515     514     513     516     514     513     517
     516     513     515     517     513     515     517     513     516
     513     514     518     513     514     519     513     514     520
     519     514     518     520     514     518     520     514     519
     522     521     523     522     521     524     522     521     525
     524     521     523     525     521     523     525     521     524
     521     522     526     521     522     527     521     522     528
     527     522     526     528     522     526     528     522     527
     530     529     531     530     529     532     530     529     533
     532     529     531     533     529     531     533     529     532
     529     530     534     529     530     535     529     530     536
     535     530     534     536     530     534     536     530     535
     538     537     539     538     537     540     538     537     541
     540     537     539     541     537     539     541     537     540
     537     538     542     537     538     543     537     538     544
     543     538     542     544     538     542     544     538     543
     546     545     547     546     545     548     546     545     549
     548     545     547     549     545     547     549     545     548
     545     546     550     545     546     551     545     546     552
     551     546     550     552     546     550     552     546     551
     554     553     555     554     553     556     554     553     557
     556     553     555     557     553     555     557     553     556
     553     554     558     553     554     559     553     554     560
     559     554     558     560     554     558     560     554     559
     562     561     563     562     561     564     562     561     565
     564     561     563     565     561     563     565     561     564
     561     562     566     561     562     567     561     562     568
     567     562     566     568     562     566     568     562     567
     570     569     571     570     569     572     570     569     573
     572     569     571     573     569     571     573     569     572
     569     570     574     569     570     575     569     570     576
     575     570     574     576     570     574     576     570     575
     578     577     579     578     577     580     578     577     581
     580     577     579     581     577     579     581     577     580
     577     578     582     577     578     583     577     578     584
     583     578     582     584     578     582     584     578     583
     586     585     587     586     585     588     586     585     589
     588     585     587     589     585     587     589     585     588
     585     586     590     585     586     591     585     586     592
     591     586     590     592     586     590     592     586     591
     594     593     595     594     593     596     594     593     597
     596     593     595     597     593     595     597     593     596
     593     594     598     593     594     599     593     594     600
     599     594     598     600     594     598     600     594     599
     602     601     603     602     601     604     602     601     605
     604     601     603     605     601     603     605     601     604
     601     602     606     601     602     607     601     602     608
     607     602     606     608     602     606     608     602     607
     610     609     611     610     609     612     610     609     613
     612     609     611     613     609     611     613     609     612
     609     610     614     609     610     615     609     610     616
     615     610     614     616     610     614     616     610     615
     618     617     619     618     617     620     618     617     621
     620     617     619     621     617     619     621     617     620
     617     618     622     617     618     623     617     618     624
     623     618     622     624     618     622     624     618     623
     626     625     627     626     625     628     626     625     629
     628     625     627     629     625     627     629     625     628
     625     626     630     625     626     631     625     626     632
     631     626     630     632     626     630     632     626     631
     634     633     635     634     633     636     634     633     637
     636     633     635     637     633     635     637     633     636
     633     634     638     633     634     639     633     634     640
     639     634     638     640     634     638     640     634     639
     642     641     643     642     641     644     642     641     645
     644     641     643     645     641     643     645     641     644
     641     642     646     641     642     647     641     642     648
     647     642     646     648     642     646     648     642     647
     650     649     651     650     649     652     650     649     653
     652     649     651     653     649     651     653     649     652
     649     650     654     649     650     655     649     650     656
     655     650     654     656     650     654     656     650     655
     658     657     659     658     657     660     658     657     661
     660     657     659     661     657     659     661     657     660
     657     658     662     657     658     663     657     658     664
     663     658     662     664     658     662     664     658     663
     666     665     667     666     665     668     666     665     669
     668     665     667     669     665     667     669     665     668
     665     666     670     665     666     671     665     666     672
     671     666     670     672     666     670     672     666     671
     674     673     675     674     673     676     674     673     677
     676     673     675     677     673     675     677     673     676
     673     674     678     673     674     679     673     674     680
     679     674     678     680     674     678     680     674     679
     682     681     683     682     681     684     682     681     685
     684     681     683     685     681     683     685     681     684
     681     682     686     681     682     687     681     682     688
     687     682     686     688     682     686     688     682     687
     690     689     691     690     689     692     690     689     693
     692     689     691     693     689     691     693     689     692
     689     690     694     689     690     695     689     690     696
     695     690     694     696     690     694     696     690     695
     698     697     699     698     697     700     698     697     701
     700     697     699     701     697     699     701     697     700
     697     698     702     697     698     703     697     698     704
     703     698     702     704     698     702     704     698     703
     706     705     707     706     705     708     706     705     709
     708     705     707     709     705     707     709     705     708
     705     706     710     705     706     711     705     706     712
     711     706     710     712     706     710     712     706     711
     714     713     715     714     713     716     714     713     717
     716     713     715     717     713     715     717     713     716
     713     714     718     713     714     719     713     714     720
     719     714     718     720     714     718     720     714     719
     722     721     723     722     721     724     722     721     725
     724     721     723     725     721     723     725     721     724
     721     722     726     721     722     727     721     722     728
     727     722     726     728     722     726     728     722     727
     730     729     731     730     729     732     730     729     733
     732     729     731     733     729     731     733     729     732
     729     730     734     729     730     735     729     730     736
     735     730     734     736     730     734     736     730     735
     738     737     739     738     737     740     738     737     741
     740     737     739     741     737     739     741     737     740
     737     738     742     737     738     743     737     738     744
     743     738     742     744     738     742     744     738     743
     746     745     747     746     745     748     746     745     749
     748     745     747     749     745     747     749     745     748
     745     746     750     745     746     751     745     746     752
     751     746     750     752     746     750     752     746     751
     754     753     755     754     753     756     754     753     757
     756     753     755     757     753     755     757     753     756
     753     754     758     753     754     759     753     754     760
     759     754     758     760     754     758     760     754     759
     762     761     763     762     761     764     762     761     765
     764     761     763     765     761     763     765     761     764
     761     762     766     761     762     767     761     762     768
     767     762     766     768     762     766     768     762     767
     770     769     771     770     769     772     770     769     773
     772     769     771     773     769     771     773     769     772
     769     770     774     769     770     775     769     770     776
     775     770     774     776     770     774     776     770     775
     778     777     779     778     777     780     778     777     781
     780     777     779     781     777     779     781     777     780
     777     778     782     777     778     783     777     778     784
     783     778     782     784     778     782     784     778     783
     786     785     787     786     785     788     786     785     789
     788     785     787     789     785     787     789     785     788
     785     786     790     785     786     791     785     786     792
     791     786     790     792     786     790     792     786     791
     794     793     795     794     793     796     794     793     797
     796     793     795     797     793     795     797     793     796
     793     794     798     793     794     799     793     794     800
     799     794     798     800     794     798     800     794     799
     802     801     803     802     801     804     802     801     805
     804     801     803     805     801     803     805     801     804
     801     802     806     801     802     807     801     802     808
     807     802     806     808     802     806     808     802     807
     810     809     811     810     809     812     810     809     813
     812     809     811     813     809     811     813     809     812
     809     810     814     809     810     815     809     810     816
     815     810     814     816     810     814     816     810     815
     818     817     819     818     817     820     818     817     821
     820     817     819     821     817     819     821     817     820
     817     818     822     817     818     823     817     818     824
     823     818     822     824     818     822     824     818     823
     826     825     827     826     825     828     826     825     829
     828     825     827     829     825     827     829     825     828
     825     826     830     825     826     831     825     826     832
     831     826     830     832     826     830     832     826     831
     834     833     835     834     833     836     834     833     837
     836     833     835     837     833     835     837     833     836
     833     834     838     833     834     839     833     834     840
     839     834     838     840     834     838     840     834     839
     842     841     843     842     841     844     842     841     845
     844     841     843     845     841     843     845     841     844
     841     842     846     841     842     847     841     842     848
     847     842     846     848     842     846     848     842     847
     850     849     851     850     849     852     850     849     853
     852     849     851     853     849     851     853     849     852
     849     850     854     849     850     855     849     850     856
     855     850     854     856     850     854     856     850     855
     858     857     859     858     857     860     858     857     861
     860     857     859     861     857     859     861     857     860
     857     858     862     857     858     863     857     858     864
     863     858     862     864     858     862     864     858     863
     866     865     867     866     865     868     866     865     869
     868     865     867     869     865     867     869     865     868
     865     866     870     865     866     871     865     866     872
     871     866     870     872     866     870     872     866     871
     874     873     875     874     873     876     874     873     877
     876     873     875     877     873     875     877     873     876
     873     874     878     873     874     879     873     874     880
     879     874     878     880     874     878     880     874     879
     882     881     883     882     881     884     882     881     885
     884     881     883     885     881     883     885     881     884
     881     882     886     881     882     887     881     882     888
     887     882     886     888     882     886     888     882     887
     890     889     891     890     889     892     890     889     893
     892     889     891     893     889     891     893     889     892
     889     890     894     889     890     895     889     890     896
     895     890     894     896     890     894     896     890     895
     898     897     899     898     897     900     898     897     901
     900     897     899     901     897     899     901     897     900
     897     898     902     897     898     903     897     898     904
     903     898     902     904     898     902     904     898     903
     906     905     907     906     905     908     906     905     909
     908     905     907     909     905     907     909     905     908
     905     906     910     905     906     911     905     906     912
     911     906     910     912     906     910     912     906     911
     914     913     915     914     913     916     914     913     917
     916     913     915     917     913     915     917     913     916
     913     914     918     913     914     919     913     914     920
     919     914     918     920     914     918     920     914     919
     922     921     923     922     921     924     922     921     925
     924     921     923     925     921     923     925     921     924
     921     922     926     921     922     927     921     922     928
     927     922     926     928     922     926     928     922     927
     930     929     931     930     929     932     930     929     933
     932     929     931     933     929     931     933     929     932
     929     930     934     929     930     935     929     930     936
     935     930     934     936     930     934     936     930     935
     938     937     939     938     937     940     938     937     941
     940     937     939     941     937     939     941     937     940
     937     938     942     937     938     943     937     938     944
     943     938     942     944     938     942     944     938     943
     946     945     947     946     945     948     946     945     949
     948     945     947     949     945     947     949     945     948
     945     946     950     945     946     951     945     946     952
     951     946     950     952     946     950     952     946     951
     954     953     955     954     953     956     954     953     957
     956     953     955     957     953     955     957     953     956
     953     954     958     953     954     959     953     954     960
     959     954     958     960     954     958     960     954     959
     962     961     963     962     961     964     962     961     965
     964     961     963     965     961     963     965     961     964
     961     962     966     961     962     967     961     962     968
     967     962     966     968     962     966     968     962     967
     970     969     971     970     969     972     970     969     973
     972     969     971     973     969     971     973     969     972
     969     970     974     969     970     975     969     970     976
     975     970     974     976     970     974     976     970     975
     978     977     979     978     977     980     978     977     981
     980     977     979     981     977     979     981     977     980
     977     978     982     977     978     983     977     978     984
     983     978     982     984     978     982     984     978     983
     986     985     987     986     985     988     986     985     989
     988     985     987     989     985     987     989     985     988
     985     986     990     985     986     991     985     986     992
     991     986     990     992     986     990     992     986     991
     994     993     995     994     993     996     994     993     997
     996     993     995     997     993     995     997     993     996
     993     994     998     993     994     999     993     994    1000
     999     994     998    1000     994     998    1000     994     999
    1002    1001    1003    1002    1001    1004    1002    1001    1005
    1004    1001    1003    1005    1001    1003    1005    1001    1004
    1001    1002    1006    1001    1002    1007    1001    1002    1008
    1007    1002    1006    1008    1002    1006    1008    1002    1007
    1010    1009    1011    1010    1009    1012    1010    1009    1013
    1012    1009    1011    1013    1009    1011    1013    1009    1012
    1009    1010    1014    1009    1010    1015    1009    1010    1016
    1015    1010    1014    1016    1010    1014    1016    1010    1015
    1018    1017    1019    1018    1017    1020    1018    1017    1021
    1020    1017    1019    1021    1017    1019    1021    1017    1020
    1017    1018    1022    1017    1018    1023    1017    1018    1024
    1023    1018    1022    1024    1018    1022    1024    1018    1023
    1026    1025    1027    1026    1025    1028    1026    1025    1029
    1028    1025    1027    1029    1025    1027    1029    1025    1028
    1025    1026    1030    1025    1026    1031    1025    1026    1032
    1031    1026    1030    1032    1026    1030    1032    1026    1031
    1034    1033    1035    1034    1033    1036    1034    1033    1037
    1036    1033    1035    1037    1033    1035    1037    1033    1036
    1033    1034    1038    1033    1034    1039    1033    1034    1040
    1039    1034    1038    1040    1034    1038    1040    1034    1039
    1042    1041    1043    1042    1041    1044    1042    1041    1045
    1044    1041    1043    1045    1041    1043    1045    1041    1044
    1041    1042    1046    1041    1042    1047    1041    1042    1048
    1047    1042    1046    1048    1042    1046    1048    1042    1047
    1050    1049    1051    1050    1049    1052    1050    1049    1053
    1052    1049    1051    1053    1049    1051    1053    1049    1052
    1049    1050    1054    1049    1050    1055    1049    1050    1056
    1055    1050    1054    1056    1050    1054    1056    1050    1055
    1058    1057    1059    1058    1057    1060    1058    1057    1061
    1060    1057    1059    1061    1057    1059    1061    1057    1060
    1057    1058    1062    1057    1058    1063    1057    1058    1064
    1063    1058    1062    1064    1058    1062    1064    1058    1063
    1066    1065    1067    1066    1065    1068    1066    1065    1069
    1068    1065    1067    1069    1065    1067    1069    1065    1068
    1065    1066    1070    1065    1066    1071    1065    1066    1072
    1071    1066    1070    1072    1066    1070    1072    1066    1071
    1074    1073    1075    1074    1073    1076    1074    1073    1077
    1076    1073    1075    1077    1073    1075    1077    1073    1076
    1073    1074    1078    1073    1074    1079    1073    1074    1080
    1079    1074    1078    1080    1074    1078    1080    1074    1079
    1082    1081    1083    1082    1081    1084    1082    1081    1085
    1084    1081    1083    1085    1081    1083    1085    1081    1084
    1081    1082    1086    1081    1082    1087    1081    1082    1088
    1087    1082    1086    1088    1082    1086    1088    1082    1087
    1090    1089    1091    1090    1089    1092    1090    1089    1093
    1092    1089    1091    1093    1089    1091    1093    1089    1092
    1089    1090    1094    1089    1090    1095    1089    1090    1096
    1095    1090    1094    1096    1090    1094    1096    1090    1095
    1098    1097    1099    1098    1097    1100    1098    1097    1101
    1100    1097    1099    1101    1097    1099    1101    1097    1100
    1097    1098    1102    1097    1098    1103    1097    1098    1104
    1103    1098    1102    1104    1098    1102    1104    1098    1103
    1106    1105    1107    1106    1105    1108    1106    1105    1109
    1108    1105    1107    1109    1105    1107    1109    1105    1108
    1105    1106    1110    1105    1106    1111    1105    1106    1112
    1111    1106    1110    1112    1106    1110    1112    1106    1111
    1114    1113    1115    1114    1113    1116    1114    1113    1117
    1116    1113    1115    1117    1113    1115    1117    1113    1116
    1113    1114    1118    1113    1114    1119    1113    1114    1120
    1119    1114    1118    1120    1114    1118    1120    1114    1119
    1122    1121    1123    1122    1121    1124    1122    1121    1125
    1124    1121    1123    1125    1121    1123    1125    1121    1124
    1121    1122    1126    1121    1122    1127    1121    1122    1128
    1127    1122    1126    1128    1122    1126    1128    1122    1127
    1130    1129    1131    1130    1129    1132    1130    1129    1133
    1132    1129    1131    1133    1129    1131    1133    1129    1132
    1129    1130    1134    1129    1130    1135    1129    1130    1136
    1135    1130    1134    1136    1130    1134    1136    1130    1135
    1138    1137    1139    1138    1137    1140    1138    1137    1141
    1140    1137    1139    1141    1137    1139    1141    1137    1140
    1137    1138    1142    1137    1138    1143    1137    1138    1144
    1143    1138    1142    1144    1138    1142    1144    1138    1143
    1146    1145    1147    1146    1145    1148    1146    1145    1149
    1148    1145    1147    1149    1145    1147    1149    1145    1148
    1145    1146    1150    1145    1146    1151    1145    1146    1152
    1151    1146    1150    1152    1146    1150    1152    1146    1151
    1154    1153    1155    1154    1153    1156    1154    1153    1157
    1156    1153    1155    1157    1153    1155    1157    1153    1156
    1153    1154    1158    1153    1154    1159    1153    1154    1160
    1159    1154    1158    1160    1154    1158    1160    1154    1159
    1162    1161    1163    1162    1161    1164    1162    1161    1165
    1164    1161    1163    1165    1161    1163    1165    1161    1164
    1161    1162    1166    1161    1162    1167    1161    1162    1168
    1167    1162    1166    1168    1162    1166    1168    1162    1167
    1170    1169    1171    1170    1169    1172    1170    1169    1173
    1172    1169    1171    1173    1169    1171    1173    1169    1172
    1169    1170    1174    1169    1170    1175    1169    1170    1176
    1175    1170    1174    1176    1170    1174    1176    1170    1175
    1178    1177    1179    1178    1177    1180    1178    1177    1181
    1180    1177    1179    1181    1177    1179    1181    1177    1180
    1177    1178    1182    1177    1178    1183    1177    1178    1184
    1183    1178    1182    1184    1178    1182    1184    1178    1183
    1186    1185    1187    1186    1185    1188    1186    1185    1189
    1188    1185    1187    1189    1185    1187    1189    1185    1188
    1185    1186    1190    1185    1186    1191    1185    1186    1192
    1191    1186    1190    1192    1186    1190    1192    1186    1191
    1194    1193    1195    1194    1193    1196    1194    1193    1197
    1196    1193    1195    1197    1193    1195    1197    1193    1196
    1193    1194    1198    1193    1194    1199    1193    1194    1200
    1199    1194    1198    1200    1194    1198    1200    1194    1199
    1202    1201    1203    1202    1201    1204    1202    1201    1205
    1204    1201    1203    1205    1201    1203    1205    1201    1204
    1201    1202    1206    1201    1202    1207    1201    1202    1208
    1207    1202    1206    1208    1202    1206    1208    1202    1207
    1210    1209    1211    1210    1209    1212    1210    1209    1213
    1212    1209    1211    1213    1209    1211    1213    1209    1212
    1209    1210    1214    1209    1210    1215    1209    1210    1216
    1215    1210    1214    1216    1210    1214    1216    1210    1215
    1218    1217    1219    1218    1217    1220    1218    1217    1221
    1220    1217    1219    1221    1217    1219    1221    1217    1220
    1217    1218    1222    1217    1218    1223    1217    1218    1224
    1223    1218    1222    1224    1218    1222    1224    1218    1223
    1226    1225    1227    1226    1225    1228    1226    1225    1229
    1228    1225    1227    1229    1225    1227    1229    1225    1228
    1225    1226    1230    1225    1226    1231    1225    1226    1232
    1231    1226    1230    1232    1226    1230    1232    1226    1231
    1234    1233    1235    1234    1233    1236    1234    1233    1237
    1236    1233    1235    1237    1233    1235    1237    1233    1236
    1233    1234    1238    1233    1234    1239    1233    1234    1240
    1239    1234    1238    1240    1234    1238    1240    1234    1239
    1242    1241    1243    1242    1241    1244    1242    1241    1245
    1244    1241    1243    1245    1241    1243    1245    1241    1244
    1241    1242    1246    1241    1242    1247    1241    1242    1248
    1247    1242    1246    1248    1242    1246    1248    1242    1247
    1250    1249    1251    1250    1249    1252    1250    1249    1253
    1252    1249    1251    1253    1249    1251    1253    1249    1252
    1249    1250    1254    1249    1250    1255    1249    1250    1256
    1255    1250    1254    1256    1250    1254    1256    1250    1255
    1258    1257    1259    1258    1257    1260    1258    1257    1261
    1260    1257    1259    1261    1257    1259    1261    1257    1260
    1257    1258    1262    1257    1258    1263    1257    1258    1264
    1263    1258    1262    1264    1258    1262    1264    1258    1263
    1266    1265    1267    1266    1265    1268    1266    1265    1269
    1268    1265    1267    1269    1265    1267    1269    1265    1268
    1265    1266    1270    1265    1266    1271    1265    1266    1272
    1271    1266    1270    1272    1266    1270    1272    1266    1271
    1274    1273    1275    1274    1273    1276    1274    1273    1277
    1276    1273    1275    1277    1273    1275    1277    1273    1276
    1273    1274    1278    1273    1274    1279    1273    1274    1280
    1279    1274    1278    1280    1274    1278    1280    1274    1279
    1282    1281    1283    1282    1281    1284    1282    1281    1285
    1284    1281    1283    1285    1281    1283    1285    1281    1284
    1281    1282    1286    1281    1282    1287    1281    1282    1288
    1287    1282    1286    1288    1282    1286    1288    1282    1287
    1290    1289    1291    1290    1289    1292    1290    1289    1293
    1292    1289    1291    1293    1289    1291    1293    1289    1292
    1289    1290    1294    1289    1290    1295    1289    1290    1296
    1295    1290    1294    1296    1290    1294    1296    1290    1295
    1298    1297    1299    1298    1297    1300    1298    1297    1301
    1300    1297    1299    1301    1297    1299    1301    1297    1300
    1297    1298    1302    1297    1298    1303    1297    1298    1304
    1303    1298    1302    1304    1298    1302    1304    1298    1303
    1306    1305    1307    1306    1305    1308    1306    1305    1309
    1308    1305    1307    1309    1305    1307    1309    1305    1308
    1305    1306    1310    1305    1306    1311    1305    1306    1312
    1311    1306    1310    1312    1306    1310    1312    1306    1311
    1314    1313    1315    1314    1313    1316    1314    1313    1317
    1316    1313    1315    1317    1313    1315    1317    1313    1316
    1313    1314    1318    1313    1314    1319    1313    1314    1320
    1319    1314    1318    1320    1314    1318    1320    1314    1319
    1322    1321    1323    1322    1321    1324    1322    1321    1325
    1324    1321    1323    1325    1321    1323    1325    1321    1324
    1321    1322    1326    1321    1322    1327    1321    1322    1328
    1327    1322    1326    1328    1322    1326    1328    1322    1327
    1330    1329    1331    1330    1329    1332    1330    1329    1333
    1332    1329    1331    1333    1329    1331    1333    1329    1332
    1329    1330    1334    1329    1330    1335    1329    1330    1336
    1335    1330    1334    1336    1330    1334    1336    1330    1335
    1338    1337    1339    1338    1337    1340    1338    1337    1341
    1340    1337    1339    1341    1337    1339    1341    1337    1340
    1337    1338    1342    1337    1338    1343    1337    1338    1344
    1343    1338    1342    1344    1338    1342    1344    1338    1343
    1346    1345    1347    1346    1345    1348    1346    1345    1349
    1348    1345    1347    1349    1345    1347    1349    1345    1348
    1345    1346    1350    1345    1346    1351    1345    1346    1352
    1351    1346    1350    1352    1346    1350    1352    1346    1351
    1354    1353    1355    1354    1353    1356    1354    1353    1357
    1356    1353    1355    1357    1353    1355    1357    1353    1356
    1353    1354    1358    1353    1354    1359    1353    1354    1360
    1359    1354    1358    1360    1354    1358    1360    1354    1359
    1362    1361    1363    1362    1361    1364    1362    1361    1365
    1364    1361    1363    1365    1361    1363    1365    1361    1364
    1361    1362    1366    1361    1362    1367    1361    1362    1368
    1367    1362    1366    1368    1362    1366    1368    1362    1367
    1370    1369    1371    1370    1369    1372    1370    1369    1373
    1372    1369    1371    1373    1369    1371    1373    1369    1372
    1369    1370    1374    1369    1370    1375    1369    1370    1376
    1375    1370    1374    1376    1370    1374    1376    1370    1375
    1378    1377    1379    1378    1377    1380    1378    1377    1381
    1380    1377    1379    1381    1377    1379    1381    1377    1380
    1377    1378    1382    1377    1378    1383    1377    1378    1384
    1383    1378    1382    1384    1378    1382    1384    1378    1383
    1386    1385    1387    1386    1385    1388    1386    1385    1389
    1388    1385    1387    1389    1385    1387    1389    1385    1388
    1385    1386    1390    1385    1386    1391    1385    1386    1392
    1391    1386    1390    1392    1386    1390    1392    1386    1391
    1394    1393    1395    1394    1393    1396    1394    1393    1397
    1396    1393    1395    1397    1393    1395    1397    1393    1396
    1393    1394    1398    1393    1394    1399    1393    1394    1400
    1399    1394    1398    1400    1394    1398    1400    1394    1399
    1402    1401    1403    1402    1401    1404    1402    1401    1405
    1404    1401    1403    1405    1401    1403    1405    1401    1404
    1401    1402    1406    1401    1402    1407    1401    1402    1408
    1407    1402    1406    1408    1402    1406    1408    1402    1407
    1410    1409    1411    1410    1409    1412    1410    1409    1413
    1412    1409    1411    1413    1409    1411    1413    1409    1412
    1409    1410    1414    1409    1410    1415    1409    1410    1416
    1415    1410    1414    1416    1410    1414    1416    1410    1415
    1418    1417    1419    1418    1417    1420    1418    1417    1421
    1420    1417    1419    1421    1417    1419    1421    1417    1420
    1417    1418    1422    1417    1418    1423    1417    1418    1424
    1423    1418    1422    1424    1418    1422    1424    1418    1423
    1426    1425    1427    1426    1425    1428    1426    1425    1429
    1428    1425    1427    1429    1425    1427    1429    1425    1428
    1425    1426    1430    1425    1426    1431    1425    1426    1432
    1431    1426    1430    1432    1426    1430    1432    1426    1431
    1434    1433    1435    1434    1433    1436    1434    1433    1437
    1436    1433    1435    1437    1433    1435    1437    1433    1436
    1433    1434    1438    1433    1434    1439    1433    1434    1440
    1439    1434    1438    1440    1434    1438    1440    1434    1439
    1442    1441    1443    1442    1441    1444    1442    1441    1445
    1444    1441    1443    1445    1441    1443    1445    1441    1444
    1441    1442    1446    1441    1442    1447    1441    1442    1448
    1447    1442    1446    1448    1442    1446    1448    1442    1447
    1450    1449    1451    1450    1449    1452    1450    1449    1453
    1452    1449    1451    1453    1449    1451    1453    1449    1452
    1449    1450    1454    1449    1450    1455    1449    1450    1456
    1455    1450    1454    1456    1450    1454    1456    1450    1455
    1458    1457    1459    1458    1457    1460    1458    1457    1461
    1460    1457    1459    1461    1457    1459    1461    1457    1460
    1457    1458    1462    1457    1458    1463    1457    1458    1464
    1463    1458    1462    1464    1458    1462    1464    1458    1463
    1466    1465    1467    1466    1465    1468    1466    1465    1469
    1468    1465    1467    1469    1465    1467    1469    1465    1468
    1465    1466    1470    1465    1466    1471    1465    1466    1472
    1471    1466    1470    1472    1466    1470    1472    1466    1471
    1474    1473    1475    1474    1473    1476    1474    1473    1477
    1476    1473    1475    1477    1473    1475    1477    1473    1476
    1473    1474    1478    1473    1474    1479    1473    1474    1480
    1479    1474    1478    1480    1474    1478    1480    1474    1479
    1482    1481    1483    1482    1481    1484    1482    1481    1485
    1484    1481    1483    1485    1481    1483    1485    1481    1484
    1481    1482    1486    1481    1482    1487    1481    1482    1488
    1487    1482    1486    1488    1482    1486    1488    1482    1487
    1490    1489    1491    1490    1489    1492    1490    1489    1493
    1492    1489    1491    1493    1489    1491    1493    1489    1492
    1489    1490    1494    1489    1490    1495    1489    1490    1496
    1495    1490    1494    1496    1490    1494    1496    1490    1495
    1498    1497    1499    1498    1497    1500    1498    1497    1501
    1500    1497    1499    1501    1497    1499    1501    1497    1500
    1497    1498    1502    1497    1498    1503    1497    1498    1504
    1503    1498    1502    1504    1498    1502    1504    1498    1503
    1506    1505    1507    1506    1505    1508    1506    1505    1509
    1508    1505    1507    1509    1505    1507    1509    1505    1508
    1505    1506    1510    1505    1506    1511    1505    1506    1512
    1511    1506    1510    1512    1506    1510    1512    1506    1511
    1514    1513    1515    1514    1513    1516    1514    1513    1517
    1516    1513    1515    1517    1513    1515    1517    1513    1516
    1513    1514    1518    1513    1514    1519    1513    1514    1520
    1519    1514    1518    1520    1514    1518    1520    1514    1519
    1522    1521    1523    1522    1521    1524    1522    1521    1525
    1524    1521    1523    1525    1521    1523    1525    1521    1524
    1521    1522    1526    1521    1522    1527    1521    1522    1528
    1527    1522    1526    1528    1522    1526    1528    1522    1527
    1530    1529    1531    1530    1529    1532    1530    1529    1533
    1532    1529    1531    1533    1529    1531    1533    1529    1532
    1529    1530    1534    1529    1530    1535    1529    1530    1536
    1535    1530    1534    1536    1530    1534    1536    1530    1535
    1538    1537    1539    1538    1537    1540    1538    1537    1541
    1540    1537    1539    1541    1537    1539    1541    1537    1540
    1537    1538    1542    1537    1538    1543    1537    1538    1544
    1543    1538    1542    1544    1538    1542    1544    1538    1543
    1546    1545    1547    1546    1545    1548    1546    1545    1549
    1548    1545    1547    1549    1545    1547    1549    1545    1548
    1545    1546    1550    1545    1546    1551    1545    1546    1552
    1551    1546    1550    1552    1546    1550    1552    1546    1551
    1554    1553    1555    1554    1553    1556    1554    1553    1557
    1556    1553    1555    1557    1553    1555    1557    1553    1556
    1553    1554    1558    1553    1554    1559    1553    1554    1560
    1559    1554    1558    1560    1554    1558    1560    1554    1559
    1562    1561    1563    1562    1561    1564    1562    1561    1565
    1564    1561    1563    1565    1561    1563    1565    1561    1564
    1561    1562    1566    1561    1562    1567    1561    1562    1568
    1567    1562    1566    1568    1562    1566    1568    1562    1567
    1570    1569    1571    1570    1569    1572    1570    1569    1573
    1572    1569    1571    1573    1569    1571    1573    1569    1572
    1569    1570    1574    1569    1570    1575    1569    1570    1576
    1575    1570    1574    1576    1570    1574    1576    1570    1575
    1578    1577    1579    1578    1577    1580    1578    1577    1581
    1580    1577    1579    1581    1577    1579    1581    1577    1580
    1577    1578    1582    1577    1578    1583    1577    1578    1584
    1583    1578    1582    1584    1578    1582    1584    1578    1583
    1586    1585    1587    1586    1585    1588    1586    1585    1589
    1588    1585    1587    1589    1585    1587    1589    1585    1588
    1585    1586    1590    1585    1586    1591    1585    1586    1592
    1591    1586    1590    1592    1586    1590    1592    1586    1591
    1594    1593    1595    1594    1593    1596    1594    1593    1597
    1596    1593    1595    1597    1593    1595    1597    1593    1596
    1593    1594    1598    1593    1594    1599    1593    1594    1600
    1599    1594    1598    1600    1594    1598    1600    1594    1599
    1602    1601    1603    1602    1601    1604    1602    1601    1605
    1604    1601    1603    1605    1601    1603    1605    1601    1604
    1601    1602    1606    1601    1602    1607    1601    1602    1608
    1607    1602    1606    1608    1602    1606    1608    1602    1607
    1610    1609    1611    1610    1609    1612    1610    1609    1613
    1612    1609    1611    1613    1609    1611    1613    1609    1612
    1609    1610    1614    1609    1610    1615    1609    1610    1616
    1615    1610    1614    1616    1610    1614    1616    1610    1615
    1618    1617    1619    1618    1617    1620    1618    1617    1621
    1620    1617    1619    1621    1617    1619    1621    1617    1620
    1617    1618    1622    1617    1618    1623    1617    1618    1624
    1623    1618    1622    1624    1618    1622    1624    1618    1623
    1626    1625    1627    1626    1625    1628    1626    1625    1629
    1628    1625    1627    1629    1625    1627    1629    1625    1628
    1625    1626    1630    1625    1626    1631    1625    1626    1632
    1631    1626    1630    1632    1626    1630    1632    1626    1631
    1634    1633    1635    1634    1633    1636    1634    1633    1637
    1636    1633    1635    1637    1633    1635    1637    1633    1636
    1633    1634    1638    1633    1634    1639    1633    1634    1640
    1639    1634    1638    1640    1634    1638    1640    1634    1639
    1642    1641    1643    1642    1641    1644    1642    1641    1645
    1644    1641    1643    1645    1641    1643    1645    1641    1644
    1641    1642    1646    1641    1642    1647    1641    1642    1648
    1647    1642    1646    1648    1642    1646    1648    1642    1647
    1650    1649    1651    1650    1649    1652    1650    1649    1653
    1652    1649    1651    1653    1649    1651    1653    1649    1652
    1649    1650    1654    1649    1650    1655    1649    1650    1656
    1655    1650    1654    1656    1650    1654    1656    1650    1655
    1658    1657    1659    1658    1657    1660    1658    1657    1661
    1660    1657    1659    1661    1657    1659    1661    1657    1660
    1657    1658    1662    1657    1658    1663    1657    1658    1664
    1663    1658    1662    1664    1658    1662    1664    1658    1663
    1666    1665    1667    1666    1665    1668    1666    1665    1669
    1668    1665    1667    1669    1665    1667    1669    1665    1668
    1665    1666    1670    1665    1666    1671    1665    1666    1672
    1671    1666    1670    1672    1666    1670    1672    1666    1671
    1674    1673    1675    1674    1673    1676    1674    1673    1677
    1676    1673    1675    1677    1673    1675    1677    1673    1676
    1673    1674    1678    1673    1674    1679    1673    1674    1680
    1679    1674    1678    1680    1674    1678    1680    1674    1679
    1682    1681    1683    1682    1681    1684    1682    1681    1685
    1684    1681    1683    1685    1681    1683    1685    1681    1684
    1681    1682    1686    1681    1682    1687    1681    1682    1688
    1687    1682    1686    1688    1682    1686    1688    1682    1687
    1690    1689    1691    1690    1689    1692    1690    1689    1693
    1692    1689    1691    1693    1689    1691    1693    1689    1692
    1689    1690    1694    1689    1690    1695    1689    1690    1696
    1695    1690    1694    1696    1690    1694    1696    1690    1695
    1698    1697    1699    1698    1697    1700    1698    1697    1701
    1700    1697    1699    1701    1697    1699    1701    1697    1700
    1697    1698    1702    1697    1698    1703    1697    1698    1704
    1703    1698    1702    1704    1698    1702    1704    1698    1703
    1706    1705    1707    1706    1705    1708    1706    1705    1709
    1708    1705    1707    1709    1705    1707    1709    1705    1708
    1705    1706    1710    1705    1706    1711    1705    1706    1712
    1711    1706    1710    1712    1706    1710    1712    1706    1711
    1714    1713    1715    1714    1713    1716    1714    1713    1717
    1716    1713    1715    1717    1713    1715    1717    1713    1716
    1713    1714    1718    1713    1714    1719    1713    1714    1720
    1719    1714    1718    1720    1714    1718    1720    1714    1719
    1722    1721    1723    1722    1721    1724    1722    1721    1725
    1724    1721    1723    1725    1721    1723    1725    1721    1724
    1721    1722    1726    1721    1722    1727    1721    1722    1728
    1727    1722    1726    1728    1722    1726    1728    1722    1727
    1730    1729    1731    1730    1729    1732    1730    1729    1733
    1732    1729    1731    1733    1729    1731    1733    1729    1732
    1729    1730    1734    1729    1730    1735    1729    1730    1736
    1735    1730    1734    1736    1730    1734    1736    1730    1735
    1738    1737    1739    1738    1737    1740    1738    1737    1741
    1740    1737    1739    1741    1737    1739    1741    1737    1740
    1737    1738    1742    1737    1738    1743    1737    1738    1744
    1743    1738    1742    1744    1738    1742    1744    1738    1743
    1746    1745    1747    1746    1745    1748    1746    1745    1749
    1748    1745    1747    1749    1745    1747    1749    1745    1748
    1745    1746    1750    1745    1746    1751    1745    1746    1752
    1751    1746    1750    1752    1746    1750    1752    1746    1751
    1754    1753    1755    1754    1753    1756    1754    1753    1757
    1756    1753    1755    1757    1753    1755    1757    1753    1756
    1753    1754    1758    1753    1754    1759    1753    1754    1760
    1759    1754    1758    1760    1754    1758    1760    1754    1759
    1762    1761    1763    1762    1761    1764    1762    1761    1765
    1764    1761    1763    1765    1761    1763    1765    1761    1764
    1761    1762    1766    1761    1762    1767    1761    1762    1768
    1767    1762    1766    1768    1762    1766    1768    1762    1767
    1770    1769    1771    1770    1769    1772    1770    1769    1773
    1772    1769    1771    1773    1769    1771    1773    1769    1772
    1769    1770    1774    1769    1770    1775    1769    1770    1776
    1775    1770    1774    1776    1770    1774    1776    1770    1775
    1778    1777    1779    1778    1777    1780    1778    1777    1781
    1780    1777    1779    1781    1777    1779    1781    1777    1780
    1777    1778    1782    1777    1778    1783    1777    1778    1784
    1783    1778    1782    1784    1778    1782    1784    1778    1783
    1786    1785    1787    1786    1785    1788    1786    1785    1789
    1788    1785    1787    1789    1785    1787    1789    1785    1788
    1785    1786    1790    1785    1786    1791    1785    1786    1792
    1791    1786    1790    1792    1786    1790    1792    1786    1791
    1794    1793    1795    1794    1793    1796    1794    1793    1797
    1796    1793    1795    1797    1793    1795    1797    1793    1796
    1793    1794    1798    1793    1794    1799    1793    1794    1800
    1799    1794    1798    1800    1794    1798    1800    1794    1799
    1802    1801    1803    1802    1801    1804    1802    1801    1805
    1804    1801    1803    1805    1801    1803    1805    1801    1804
    1801    1802    1806    1801    1802    1807    1801    1802    1808
    1807    1802    1806    1808    1802    1806    1808    1802    1807
    1810    1809    1811    1810    1809    1812    1810    1809    1813
    1812    1809    1811    1813    1809    1811    1813    1809    1812
    1809    1810    1814    1809    1810    1815    1809    1810    1816
    1815    1810    1814    1816    1810    1814    1816    1810    1815
    1818    1817    1819    1818    1817    1820    1818    1817    1821
    1820    1817    1819    1821    1817    1819    1821    1817    1820
    1817    1818    1822    1817    1818    1823    1817    1818    1824
    1823    1818    1822    1824    1818    1822    1824    1818    1823
    1826    1825    1827    1826    1825    1828    1826    1825    1829
    1828    1825    1827    1829    1825    1827    1829    1825    1828
    1825    1826    1830    1825    1826    1831    1825    1826    1832
    1831    1826    1830    1832    1826    1830    1832    1826    1831
    1834    1833    1835    1834    1833    1836    1834    1833    1837
    1836    1833    1835    1837    1833    1835    1837    1833    1836
    1833    1834    1838    1833    1834    1839    1833    1834    1840
    1839    1834    1838    1840    1834    1838    1840    1834    1839
    1842    1841    1843    1842    1841    1844    1842    1841    1845
    1844    1841    1843    1845    1841    1843    1845    1841    1844
    1841    1842    1846    1841    1842    1847    1841    1842    1848
    1847    1842    1846    1848    1842    1846    1848    1842    1847
    1850    1849    1851    1850    1849    1852    1850    1849    1853
    1852    1849    1851    1853    1849    1851    1853    1849    1852
    1849    1850    1854    1849    1850    1855    1849    1850    1856
    1855    1850    1854    1856    1850    1854    1856    1850    1855
    1858    1857    1859    1858    1857    1860    1858    1857    1861
    1860    1857    1859    1861    1857    1859    1861    1857    1860
    1857    1858    1862    1857    1858    1863    1857    1858    1864
    1863    1858    1862    1864    1858    1862    1864    1858    1863
    1866    1865    1867    1866    1865    1868    1866    1865    1869
    1868    1865    1867    1869    1865    1867    1869    1865    1868
    1865    1866    1870    1865    1866    1871    1865    1866    1872
    1871    1866    1870    1872    1866    1870    1872    1866    1871
    1874    1873    1875    1874    1873    1876    1874    1873    1877
    1876    1873    1875    1877    1873    1875    1877    1873    1876
    1873    1874    1878    1873    1874    1879    1873    1874    1880
    1879    1874    1878    1880    1874    1878    1880    1874    1879
    1882    1881    1883    1882    1881    1884    1882    1881    1885
    1884    1881    1883    1885    1881    1883    1885    1881    1884
    1881    1882    1886    1881    1882    1887    1881    1882    1888
    1887    1882    1886    1888    1882    1886    1888    1882    1887
    1890    1889    1891    1890    1889    1892    1890    1889    1893
    1892    1889    1891    1893    1889    1891    1893    1889    1892
    1889    1890    1894    1889    1890    1895    1889    1890    1896
    1895    1890    1894    1896    1890    1894    1896    1890    1895
    1898    1897    1899    1898    1897    1900    1898    1897    1901
    1900    1897    1899    1901    1897    1899    1901    1897    1900
    1897    1898    1902    1897    1898    1903    1897    1898    1904
    1903    1898    1902    1904    1898    1902    1904    1898    1903
    1906    1905    1907    1906    1905    1908    1906    1905    1909
    1908    1905    1907    1909    1905    1907    1909    1905    1908
    1905    1906    1910    1905    1906    1911    1905    1906    1912
    1911    1906    1910    1912    1906    1910    1912    1906    1911
    1914    1913    1915    1914    1913    1916    1914    1913    1917
    1916    1913    1915    1917    1913    1915    1917    1913    1916
    1913    1914    1918    1913    1914    1919    1913    1914    1920
    1919    1914    1918    1920    1914    1918    1920    1914    1919
    1922    1921    1923    1922    1921    1924    1922    1921    1925
    1924    1921    1923    1925    1921    1923    1925    1921    1924
    1921    1922    1926    1921    1922    1927    1921    1922    1928
    1927    1922    1926    1928    1922    1926    1928    1922    1927
    1930    1929    1931    1930    1929    1932    1930    1929    1933
    1932    1929    1931    1933    1929    1931    1933    1929    1932
    1929    1930    1934    1929    1930    1935    1929    1930    1936
    1935    1930    1934    1936    1930    1934    1936    1930    1935
    1938    1937    1939    1938    1937    1940    1938    1937    1941
    1940    1937    1939    1941    1937    1939    1941    1937    1940
    1937    1938    1942    1937    1938    1943    1937    1938    1944
    1943    1938    1942    1944    1938    1942    1944    1938    1943
    1946    1945    1947    1946    1945    1948    1946    1945    1949
    1948    1945    1947    1949    1945    1947    1949    1945    1948
    1945    1946    1950    1945    1946    1951    1945    1946    1952
    1951    1946    1950    1952    1946    1950    1952    1946    1951
    1954    1953    1955    1954    1953    1956    1954    1953    1957
    1956    1953    1955    1957    1953    1955    1957    1953    1956
    1953    1954    1958    1953    1954    1959    1953    1954    1960
    1959    1954    1958    1960    1954    1958    1960    1954    1959
    1962    1961    1963    1962    1961    1964    1962    1961    1965
    1964    1961    1963    1965    1961    1963    1965    1961    1964
    1961    1962    1966    1961    1962    1967    1961    1962    1968
    1967    1962    1966    1968    1962    1966    1968    1962    1967
    1970    1969    1971    1970    1969    1972    1970    1969    1973
    1972    1969    1971    1973    1969    1971    1973    1969    1972
    1969    1970    1974    1969    1970    1975    1969    1970    1976
    1975    1970    1974    1976    1970    1974    1976    1970    1975
    1978    1977    1979    1978    1977    1980    1978    1977    1981
    1980    1977    1979    1981    1977    1979    1981    1977    1980
    1977    1978    1982    1977    1978    1983    1977    1978    1984
    1983    1978    1982    1984    1978    1982    1984    1978    1983
    1986    1985    1987    1986    1985    1988    1986    1985    1989
    1988    1985    1987    1989    1985    1987    1989    1985    1988
    1985    1986    1990    1985    1986    1991    1985    1986    1992
    1991    1986    1990    1992    1986    1990    1992    1986    1991
    1994    1993    1995    1994    1993    1996    1994    1993    1997
    1996    1993    1995    1997    1993    1995    1997    1993    1996
    1993    1994    1998    1993    1994    1999    1993    1994    2000
    1999    1994    1998    2000    1994    1998    2000    1994    1999
    2002    2001    2003    2002    2001    2004    2002    2001    2005
    2004    2001    2003    2005    2001    2003    2005    2001    2004
    2001    2002    2006    2001    2002    2007    2001    2002    2008
    2007    2002    2006    2008    2002    2006    2008    2002    2007
    2010    2009    2011    2010    2009    2012    2010    2009    2013
    2012    2009    2011    2013    2009    2011    2013    2009    2012
    2009    2010    2014    2009    2010    2015    2009    2010    2016
    2015    2010    2014    2016    2010    2014    2016    2010    2015
    2018    2017    2019    2018    2017    2020    2018    2017    2021
    2020    2017    2019    2021    2017    2019    2021    2017    2020
    2017    2018    2022    2017    2018    2023    2017    2018    2024
    2023    2018    2022    2024    2018    2022    2024    2018    2023
    2026    2025    2027    2026    2025    2028    2026    2025    2029
    2028    2025    2027    2029    2025    2027    2029    2025    2028
    2025    2026    2030    2025    2026    2031    2025    2026    2032
    2031    2026    2030    2032    2026    2030    2032    2026    2031
    2034    2033    2035    2034    2033    2036    2034    2033    2037
    2036    2033    2035    2037    2033    2035    2037    2033    2036
    2033    2034    2038    2033    2034    2039    2033    2034    2040
    2039    2034    2038    2040    2034    2038    2040    2034    2039
    2042    2041    2043    2042    2041    2044    2042    2041    2045
    2044    2041    2043    2045    2041    2043    2045    2041    2044
    2041    2042    2046    2041    2042    2047    2041    2042    2048
    2047    2042    2046    2048    2042    2046    2048    2042    2047
    2050    2049    2051    2050    2049    2052    2050    2049    2053
    2052    2049    2051    2053    2049    2051    2053    2049    2052
    2049    2050    2054    2049    2050    2055    2049    2050    2056
    2055    2050    2054    2056    2050    2054    2056    2050    2055
    2058    2057    2059    2058    2057    2060    2058    2057    2061
    2060    2057    2059    2061    2057    2059    2061    2057    2060
    2057    2058    2062    2057    2058    2063    2057    2058    2064
    2063    2058    2062    2064    2058    2062    2064    2058    2063
    2066    2065    2067    2066    2065    2068    2066    2065    2069
    2068    2065    2067    2069    2065    2067    2069    2065    2068
    2065    2066    2070    2065    2066    2071    2065    2066    2072
    2071    2066    2070    2072    2066    2070    2072    2066    2071
    2074    2073    2075    2074    2073    2076    2074    2073    2077
    2076    2073    2075    2077    2073    2075    2077    2073    2076
    2073    2074    2078    2073    2074    2079    2073    2074    2080
    2079    2074    2078    2080    2074    2078    2080    2074    2079
    2082    2081    2083    2082    2081    2084    2082    2081    2085
    2084    2081    2083    2085    2081    2083    2085    2081    2084
    2081    2082    2086    2081    2082    2087    2081    2082    2088
    2087    2082    2086    2088    2082    2086    2088    2082    2087
    2090    2089    2091    2090    2089    2092    2090    2089    2093
    2092    2089    2091    2093    2089    2091    2093    2089    2092
    2089    2090    2094    2089    2090    2095    2089    2090    2096
    2095    2090    2094    2096    2090    2094    2096    2090    2095
    2098    2097    2099    2098    2097    2100    2098    2097    2101
    2100    2097    2099    2101    2097    2099    2101    2097    2100
    2097    2098    2102    2097    2098    2103    2097    2098    2104
    2103    2098    2102    2104    2098    2102    2104    2098    2103
    2106    2105    2107    2106    2105    2108    2106    2105    2109
    2108    2105    2107    2109    2105    2107    2109    2105    2108
    2105    2106    2110    2105    2106    2111    2105    2106    2112
    2111    2106    2110    2112    2106    2110    2112    2106    2111
    2114    2113    2115    2114    2113    2116    2114    2113    2117
    2116    2113    2115    2117    2113    2115    2117    2113    2116
    2113    2114    2118    2113    2114    2119    2113    2114    2120
    2119    2114    2118    2120    2114    2118    2120    2114    2119
    2122    2121    2123    2122    2121    2124    2122    2121    2125
    2124    2121    2123    2125    2121    2123    2125    2121    2124
    2121    2122    2126    2121    2122    2127    2121    2122    2128
    2127    2122    2126    2128    2122    2126    2128    2122    2127
    2130    2129    2131    2130    2129    2132    2130    2129    2133
    2132    2129    2131    2133    2129    2131    2133    2129    2132
    2129    2130    2134    2129    2130    2135    2129    2130    2136
    2135    2130    2134    2136    2130    2134    2136    2130    2135
    2138    2137    2139    2138    2137    2140    2138    2137    2141
    2140    2137    2139    2141    2137    2139    2141    2137    2140
    2137    2138    2142    2137    2138    2143    2137    2138    2144
    2143    2138    2142    2144    2138    2142    2144    2138    2143
    2146    2145    2147    2146    2145    2148    2146    2145    2149
    2148    2145    2147    2149    2145    2147    2149    2145    2148
    2145    2146    2150    2145    2146    2151    2145    2146    2152
    2151    2146    2150    2152    2146    2150    2152    2146    2151
    2154    2153    2155    2154    2153    2156    2154    2153    2157
    2156    2153    2155    2157    2153    2155    2157    2153    2156
    2153    2154    2158    2153    2154    2159    2153    2154    2160
    2159    2154    2158    2160    2154    2158    2160    2154    2159
    2162    2161    2163    2162    2161    2164    2162    2161    2165
    2164    2161    2163    2165    2161    2163    2165    2161    2164
    2161    2162    2166    2161    2162    2167    2161    2162    2168
    2167    2162    2166    2168    2162    2166    2168    2162    2167
    2170    2169    2171    2170    2169    2172    2170    2169    2173
    2172    2169    2171    2173    2169    2171    2173    2169    2172
    2169    2170    2174    2169    2170    2175    2169    2170    2176
    2175    2170    2174    2176    2170    2174    2176    2170    2175
    2178    2177    2179    2178    2177    2180    2178    2177    2181
    2180    2177    2179    2181    2177    2179    2181    2177    2180
    2177    2178    2182    2177    2178    2183    2177    2178    2184
    2183    2178    2182    2184    2178    2182    2184    2178    2183
    2186    2185    2187    2186    2185    2188    2186    2185    2189
    2188    2185    2187    2189    2185    2187    2189    2185    2188
    2185    2186    2190    2185    2186    2191    2185    2186    2192
    2191    2186    2190    2192    2186    2190    2192    2186    2191
    2194    2193    2195    2194    2193    2196    2194    2193    2197
    2196    2193    2195    2197    2193    2195    2197    2193    2196
    2193    2194    2198    2193    2194    2199    2193    2194    2200
    2199    2194    2198    2200    2194    2198    2200    2194    2199
    2202    2201    2203    2202    2201    2204    2202    2201    2205
    2204    2201    2203    2205    2201    2203    2205    2201    2204
    2201    2202    2206    2201    2202    2207    2201    2202    2208
    2207    2202    2206    2208    2202    2206    2208    2202    2207
    2210    2209    2211    2210    2209    2212    2210    2209    2213
    2212    2209    2211    2213    2209    2211    2213    2209    2212
    2209    2210    2214    2209    2210    2215    2209    2210    2216
    2215    2210    2214    2216    2210    2214    2216    2210    2215
    2218    2217    2219    2218    2217    2220    2218    2217    2221
    2220    2217    2219    2221    2217    2219    2221    2217    2220
    2217    2218    2222    2217    2218    2223    2217    2218    2224
    2223    2218    2222    2224    2218    2222    2224    2218    2223
    2226    2225    2227    2226    2225    2228    2226    2225    2229
    2228    2225    2227    2229    2225    2227    2229    2225    2228
    2225    2226    2230    2225    2226    2231    2225    2226    2232
    2231    2226    2230    2232    2226    2230    2232    2226    2231
    2234    2233    2235    2234    2233    2236    2234    2233    2237
    2236    2233    2235    2237    2233    2235    2237    2233    2236
    2233    2234    2238    2233    2234    2239    2233    2234    2240
    2239    2234    2238    2240    2234    2238    2240    2234    2239
    2242    2241    2243    2242    2241    2244    2242    2241    2245
    2244    2241    2243    2245    2241    2243    2245    2241    2244
    2241    2242    2246    2241    2242    2247    2241    2242    2248
    2247    2242    2246    2248    2242    2246    2248    2242    2247
    2250    2249    2251    2250    2249    2252    2250    2249    2253
    2252    2249    2251    2253    2249    2251    2253    2249    2252
    2249    2250    2254    2249    2250    2255    2249    2250    2256
    2255    2250    2254    2256    2250    2254    2256    2250    2255
    2258    2257    2259    2258    2257    2260    2258    2257    2261
    2260    2257    2259    2261    2257    2259    2261    2257    2260
    2257    2258    2262    2257    2258    2263    2257    2258    2264
    2263    2258    2262    2264    2258    2262    2264    2258    2263
    2266    2265    2267    2266    2265    2268    2266    2265    2269
    2268    2265    2267    2269    2265    2267    2269    2265    2268
    2265    2266    2270    2265    2266    2271    2265    2266    2272
    2271    2266    2270    2272    2266    2270    2272    2266    2271
    2274    2273    2275    2274    2273    2276    2274    2273    2277
    2276    2273    2275    2277    2273    2275    2277    2273    2276
    2273    2274    2278    2273    2274    2279    2273    2274    2280
    2279    2274    2278    2280    2274    2278    2280    2274    2279
    2282    2281    2283    2282    2281    2284    2282    2281    2285
    2284    2281    2283    2285    2281    2283    2285    2281    2284
    2281    2282    2286    2281    2282    2287    2281    2282    2288
    2287    2282    2286    2288    2282    2286    2288    2282    2287
    2290    2289    2291    2290    2289    2292    2290    2289    2293
    2292    2289    2291    2293    2289    2291    2293    2289    2292
    2289    2290    2294    2289    2290    2295    2289    2290    2296
    2295    2290    2294    2296    2290    2294    2296    2290    2295
    2298    2297    2299    2298    2297    2300    2298    2297    2301
    2300    2297    2299    2301    2297    2299    2301    2297    2300
    2297    2298    2302    2297    2298    2303    2297    2298    2304
    2303    2298    2302    2304    2298    2302    2304    2298    2303
    2306    2305    2307    2306    2305    2308    2306    2305    2309
    2308    2305    2307    2309    2305    2307    2309    2305    2308
    2305    2306    2310    2305    2306    2311    2305    2306    2312
    2311    2306    2310    2312    2306    2310    2312    2306    2311
    2314    2313    2315    2314    2313    2316    2314    2313    2317
    2316    2313    2315    2317    2313    2315    2317    2313    2316
    2313    2314    2318    2313    2314    2319    2313    2314    2320
    2319    2314    2318    2320    2314    2318    2320    2314    2319
    2322    2321    2323    2322    2321    2324    2322    2321    2325
    2324    2321    2323    2325    2321    2323    2325    2321    2324
    2321    2322    2326    2321    2322    2327    2321    2322    2328
    2327    2322    2326    2328    2322    2326    2328    2322    2327
    2330    2329    2331    2330    2329    2332    2330    2329    2333
    2332    2329    2331    2333    2329    2331    2333    2329    2332
    2329    2330    2334    2329    2330    2335    2329    2330    2336
    2335    2330    2334    2336    2330    2334    2336    2330    2335
    2338    2337    2339    2338    2337    2340    2338    2337    2341
    2340    2337    2339    2341    2337    2339    2341    2337    2340
    2337    2338    2342    2337    2338    2343    2337    2338    2344
    2343    2338    2342    2344    2338    2342    2344    2338    2343


    2637 !NPHI: dihedrals 
       6       2       1       3       7       2       1       3
       8       2       1       3       6       2       1       4
       7       2       1       4       8       2       1       4
       6       2       1       5       7       2       1       5
       8       2       1       5      14      10       9      11
      15      10       9      11      16      10       9      11
      14      10       9      12      15      10       9      12
      16      10       9      12      14      10       9      13
      15      10       9      13      16      10       9      13
      22      18      17      19      23      18      17      19
      24      18      17      19      22      18      17      20
      23      18      17      20      24      18      17      20
      22      18      17      21      23      18      17      21
      24      18      17      21      30      26      25      27
      31      26      25      27      32      26      25      27
      30      26      25      28      31      26      25      28
      32      26      25      28      30      26      25      29
      31      26      25      29      32      26      25      29
      38      34      33      35      39      34      33      35
      40      34      33      35      38      34      33      36
      39      34      33      36      40      34      33      36
      38      34      33      37      39      34      33      37
      40      34      33      37      46      42      41      43
      47      42      41      43      48      42      41      43
      46      42      41      44      47      42      41      44
      48      42      41      44      46      42      41      45
      47      42      41      45      48      42      41      45
      54      50      49      51      55      50      49      51
      56      50      49      51      54      50      49      52
      55      50      49      52      56      50      49      52
      54      50      49      53      55      50      49      53
      56      50      49      53      62      58      57      59
      63      58      57      59      64      58      57      59
      62      58      57      60      63      58      57      60
      64      58      57      60      62      58      57      61
      63      58      57      61      64      58      57      61
      70      66      65      67      71      66      65      67
      72      66      65      67      70      66      65      68
      71      66      65      68      72      66      65      68
      70      66      65      69      71      66      65      69
      72      66      65      69      78      74      73      75
      79      74      73      75      80      74      73      75
      78      74      73      76      79      74      73      76
      80      74      73      76      78      74      73      77
      79      74      73      77      80      74      73      77
      86      82      81      83      87      82      81      83
      88      82      81      83      86      82      81      84
      87      82      81      84      88      82      81      84
      86      82      81      85      87      82      81      85
      88      82      81      85      94      90      89      91
      95      90      89      91      96      90      89      91
      94      90      89      92      95      90      89      92
      96      90      89      92      94      90      89      93
      95      90      89      93      96      90      89      93
     102      98      97      99     103      98      97      99
     104      98      97      99     102      98      97     100
     103      98      97     100     104      98      97     100
     102      98      97     101     103      98      97     101
     104      98      97     101     110     106     105     107
     111     106     105     107     112     106     105     107
     110     106     105     108     111     106     105     108
     112     106     105     108     110     106     105     109
     111     106     105     109     112     106     105     109
     118     114     113     115     119     114     113     115
     120     114     113     115     118     114     113     116
     119     114     113     116     120     114     113     116
     118     114     113     117     119     114     113     117
     120     114     113     117     126     122     121     123
     127     122     121     123     128     122     121     123
     126     122     121     124     127     122     121     124
     128     122     121     124     126     122     121     125
     127     122     121     125     128     122     121     125
     134     130     129     131     135     130     129     131
     136     130     129     131     134     130     129     132
     135     130     129     132     136     130     129     132
     134     130     129     133     135     130     129     133
     136     130     129     133     142     138     137     139
     143     138     137     139     144     138     137     139
     142     138     137     140     143     138     137     140
     144     138     137     140     142     138     137     141
     143     138     137     141     144     138     137     141
     150     146     145     147     151     146     145     147
     152     146     145     147     150     146     145     148
     151     146     145     148     152     146     145     148
     150     146     145     149     151     146     145     149
     152     146     145     149     158     154     153     155
     159     154     153     155     160     154     153     155
     158     154     153     156     159     154     153     156
     160     154     153     156     158     154     153     157
     159     154     153     157     160     154     153     157
     166     162     161     163     167     162     161     163
     168     162     161     163     166     162     161     164
     167     162     161     164     168     162     161     164
     166     162     161     165     167     162     161     165
     168     162     161     165     174     170     169     171
     175     170     169     171     176     170     169     171
     174     170     169     172     175     170     169     172
     176     170     169     172     174     170     169     173
     175     170     169     173     176     170     169     173
     182     178     177     179     183     178     177     179
     184     178     177     179     182     178     177     180
     183     178     177     180     184     178     177     180
     182     178     177     181     183     178     177     181
     184     178     177     181     190     186     185     187
     191     186     185     187     192     186     185     187
     190     186     185     188     191     186     185     188
     192     186     185     188     190     186     185     189
     191     186     185     189     192     186     185     189
     198     194     193     195     199     194     193     195
     200     194     193     195     198     194     193     196
     199     194     193     196     200     194     193     196
     198     194     193     197     199     194     193     197
     200     194     193     197     206     202     201     203
     207     202     201     203     208     202     201     203
     206     202     201     204     207     202     201     204
     208     202     201     204     206     202     201     205
     207     202     201     205     208     202     201     205
     214     210     209     211     215     210     209     211
     216     210     209     211     214     210     209     212
     215     210     209     212     216     210     209     212
     214     210     209     213     215     210     209     213
     216     210     209     213     222     218     217     219
     223     218     217     219     224     218     217     219
     222     218     217     220     223     218     217     220
     224     218     217     220     222     218     217     221
     223     218     217     221     224     218     217     221
     230     226     225     227     231     226     225     227
     232     226     225     227     230     226     225     228
     231     226     225     228     232     226     225     228
     230     226     225     229     231     226     225     229
     232     226     225     229     238     234     233     235
     239     234     233     235     240     234     233     235
     238     234     233     236     239     234     233     236
     240     234     233     236     238     234     233     237
     239     234     233     237     240     234     233     237
     246     242     241     243     247     242     241     243
     248     242     241     243     246     242     241     244
     247     242     241     244     248     242     241     244
     246     242     241     245     247     242     241     245
     248     242     241     245     254     250     249     251
     255     250     249     251     256     250     249     251
     254     250     249     252     255     250     249     252
     256     250     249     252     254     250     249     253
     255     250     249     253     256     250     249     253
     262     258     257     259     263     258     257     259
     264     258     257     259     262     258     257     260
     263     258     257     260     264     258     257     260
     262     258     257     261     263     258     257     261
     264     258     257     261     270     266     265     267
     271     266     265     267     272     266     265     267
     270     266     265     268     271     266     265     268
     272     266     265     268     270     266     265     269
     271     266     265     269     272     266     265     269
     278     274     273     275     279     274     273     275
     280     274     273     275     278     274     273     276
     279     274     273     276     280     274     273     276
     278     274     273     277     279     274     273     277
     280     274     273     277     286     282     281     283
     287     282     281     283     288     282     281     283
     286     282     281     284     287     282     281     284
     288     282     281     284     286     282     281     285
     287     282     281     285     288     282     281     285
     294     290     289     291     295     290     289     291
     296     290     289     291     294     290     289     292
     295     290     289     292     296     290     289     292
     294     290     289     293     295     290     289     293
     296     290     289     293     302     298     297     299
     303     298     297     299     304     298     297     299
     302     298     297     300     303     298     297     300
     304     298     297     300     302     298     297     301
     303     298     297     301     304     298     297     301
     310     306     305     307     311     306     305     307
     312     306     305     307     310     306     305     308
     311     306     305     308     312     306     305     308
     310     306     305     309     311     306     305     309
     312     306     305     309     318     314     313     315
     319     314     313     315     320     314     313     315
     318     314     313     316     319     314     313     316
     320     314     313     316     318     314     313     317
     319     314     313     317     320     314     313     317
     326     322     321     323     327     322     321     323
     328     322     321     323     326     322     321     324
     327     322     321     324     328     322     321     324
     326     322     321     325     327     322     321     325
     328     322     321     325     334     330     329     331
     335     330     329     331     336     330     329     331
     334     330     329     332     335     330     329     332
     336     330     329     332     334     330     329     333
     335     330     329     333     336     330     329     333
     342     338     337     339     343     338     337     339
     344     338     337     339     342     338     337     340
     343     338     337     340     344     338     337     340
     342     338     337     341     343     338     337     341
     344     338     337     341     350     346     345     347
     351     346     345     347     352     346     345     347
     350     346     345     348     351     346     345     348
     352     346     345     348     350     346     345     349
     351     346     345     349     352     346     345     349
     358     354     353     355     359     354     353     355
     360     354     353     355     358     354     353     356
     359     354     353     356     360     354     353     356
     358     354     353     357     359     354     353     357
     360     354     353     357     366     362     361     363
     367     362     361     363     368     362     361     363
     366     362     361     364     367     362     361     364
     368     362     361     364     366     362     361     365
     367     362     361     365     368     362     361     365
     374     370     369     371     375     370     369     371
     376     370     369     371     374     370     369     372
     375     370     369     372     376     370     369     372
     374     370     369     373     375     370     369     373
     376     370     369     373     382     378     377     379
     383     378     377     379     384     378     377     379
     382     378     377     380     383     378     377     380
     384     378     377     380     382     378     377     381
     383     378     377     381     384     378     377     381
     390     386     385     387     391     386     385     387
     392     386     385     387     390     386     385     388
     391     386     385     388     392     386     385     388
     390     386     385     389     391     386     385     389
     392     386     385     389     398     394     393     395
     399     394     393     395     400     394     393     395
     398     394     393     396     399     394     393     396
     400     394     393     396     398     394     393     397
     399     394     393     397     400     394     393     397
     406     402     401     403     407     402     401     403
     408     402     401     403     406     402     401     404
     407     402     401     404     408     402     401     404
     406     402     401     405     407     402     401     405
     408     402     401     405     414     410     409     411
     415     410     409     411     416     410     409     411
     414     410     409     412     415     410     409     412
     416     410     409     412     414     410     409     413
     415     410     409     413     416     410     409     413
     422     418     417     419     423     418     417     419
     424     418     417     419     422     418     417     420
     423     418     417     420     424     418     417     420
     422     418     417     421     423     418     417     421
     424     418     417     421     430     426     425     427
     431     426     425     427     432     426     425     427
     430     426     425     428     431     426     425     428
     432     426     425     428     430     426     425     429
     431     426     425     429     432     426     425     429
     438     434     433     435     439     434     433     435
     440     434     433     435     438     434     433     436
     439     434     433     436     440     434     433     436
     438     434     433     437     439     434     433     437
     440     434     433     437     446     442     441     443
     447     442     441     443     448     442     441     443
     446     442     441     444     447     442     441     444
     448     442     441     444     446     442     441     445
     447     442     441     445     448     442     441     445
     454     450     449     451     455     450     449     451
     456     450     449     451     454     450     449     452
     455     450     449     452     456     450     449     452
     454     450     449     453     455     450     449     453
     456     450     449     453     462     458     457     459
     463     458     457     459     464     458     457     459
     462     458     457     460     463     458     457     460
     464     458     457     460     462     458     457     461
     463     458     457     461     464     458     457     461
     470     466     465     467     471     466     465     467
     472     466     465     467     470     466     465     468
     471     466     465     468     472     466     465     468
     470     466     465     469     471     466     465     469
     472     466     465     469     478     474     473     475
     479     474     473     475     480     474     473     475
     478     474     473     476     479     474     473     476
     480     474     473     476     478     474     473     477
     479     474     473     477     480     474     473     477
     486     482     481     483     487     482     481     483
     488     482     481     483     486     482     481     484
     487     482     481     484     488     482     481     484
     486     482     481     485     487     482     481     485
     488     482     481     485     494     490     489     491
     495     490     489     491     496     490     489     491
     494     490     489     492     495     490     489     492
     496     490     489     492     494     490     489     493
     495     490     489     493     496     490     489     493
     502     498     497     499     503     498     497     499
     504     498     497     499     502     498     497     500
     503     498     497     500     504     498     497     500
     502     498     497     501     503     498     497     501
     504     498     497     501     510     506     505     507
     511     506     505     507     512     506     505     507
     510     506     505     508     511     506     505     508
     512     506     505     508     510     506     505     509
     511     506     505     509     512     506     505     509
     518     514     513     515     519     514     513     515
     520     514     513     515     518     514     513     516
     519     514     513     516     520     514     513     516
     518     514     513     517     519     514     513     517
     520     514     513     517     526     522     521     523
     527     522     521     523     528     522     521     523
     526     522     521     524     527     522     521     524
     528     522     521     524     526     522     521     525
     527     522     521     525     528     522     521     525
     534     530     529     531     535     530     529     531
     536     530     529     531     534     530     529     532
     535     530     529     532     536     530     529     532
     534     530     529     533     535     530     529     533
     536     530     529     533     542     538     537     539
     543     538     537     539     544     538     537     539
     542     538     537     540     543     538     537     540
     544     538     537     540     542     538     537     541
     543     538     537     541     544     538     537     541
     550     546     545     547     551     546     545     547
     552     546     545     547     550     546     545     548
     551     546     545     548     552     546     545     548
     550     546     545     549     551     546     545     549
     552     546     545     549     558     554     553     555
     559     554     553     555     560     554     553     555
     558     554     553     556     559     554     553     556
     560     554     553     556     558     554     553     557
     559     554     553     557     560     554     553     557
     566     562     561     563     567     562     561     563
     568     562     561     563     566     562     561     564
     567     562     561     564     568     562     561     564
     566     562     561     565     567     562     561     565
     568     562     561     565     574     570     569     571
     575     570     569     571     576     570     569     571
     574     570     569     572     575     570     569     572
     576     570     569     572     574     570     569     573
     575     570     569     573     576     570     569     573
     582     578     577     579     583     578     577     579
     584     578     577     579     582     578     577     580
     583     578     577     580     584     578     577     580
     582     578     577     581     583     578     577     581
     584     578     577     581     590     586     585     587
     591     586     585     587     592     586     585     587
     590     586     585     588     591     586     585     588
     592     586     585     588     590     586     585     589
     591     586     585     589     592     586     585     589
     598     594     593     595     599     594     593     595
     600     594     593     595     598     594     593     596
     599     594     593     596     600     594     593     596
     598     594     593     597     599     594     593     597
     600     594     593     597     606     602     601     603
     607     602     601     603     608     602     601     603
     606     602     601     604     607     602     601     604
     608     602     601     604     606     602     601     605
     607     602     601     605     608     602     601     605
     614     610     609     611     615     610     609     611
     616     610     609     611     614     610     609     612
     615     610     609     612     616     610     609     612
     614     610     609     613     615     610     609     613
     616     610     609     613     622     618     617     619
     623     618     617     619     624     618     617     619
     622     618     617     620     623     618     617     620
     624     618     617     620     622     618     617     621
     623     618     617     621     624     618     617     621
     630     626     625     627     631     626     625     627
     632     626     625     627     630     626     625     628
     631     626     625     628     632     626     625     628
     630     626     625     629     631     626     625     629
     632     626     625     629     638     634     633     635
     639     634     633     635     640     634     633     635
     638     634     633     636     639     634     633     636
     640     634     633     636     638     634     633     637
     639     634     633     637     640     634     633     637
     646     642     641     643     647     642     641     643
     648     642     641     643     646     642     641     644
     647     642     641     644     648     642     641     644
     646     642     641     645     647     642     641     645
     648     642     641     645     654     650     649     651
     655     650     649     651     656     650     649     651
     654     650     649     652     655     650     649     652
     656     650     649     652     654     650     649     653
     655     650     649     653     656     650     649     653
     662     658     657     659     663     658     657     659
     664     658     657     659     662     658     657     660
     663     658     657     660     664     658     657     660
     662     658     657     661     663     658     657     661
     664     658     657     661     670     666     665     667
     671     666     665     667     672     666     665     667
     670     666     665     668     671     666     665     668
     672     666     665     668     670     666     665     669
     671     666     665     669     672     666     665     669
     678     674     673     675     679     674     673     675
     680     674     673     675     678     674     673     676
     679     674     673     676     680     674     673     676
     678     674     673     677     679     674     673     677
     680     674     673     677     686     682     681     683
     687     682     681     683     688     682     681     683
     686     682     681     684     687     682     681     684
     688     682     681     684     686     682     681     685
     687     682     681     685     688     682     681     685
     694     690     689     691     695     690     689     691
     696     690     689     691     694     690     689     692
     695     690     689     692     696     690     689     692
     694     690     689     693     695     690     689     693
     696     690     689     693     702     698     697     699
     703     698     697     699     704     698     697     699
     702     698     697     700     703     698     697     700
     704     698     697     700     702     698     697     701
     703     698     697     701     704     698     697     701
     710     706     705     707     711     706     705     707
     712     706     705     707     710     706     705     708
     711     706     705     708     712     706     705     708
     710     706     705     709     711     706     705     709
     712     706     705     709     718     714     713     715
     719     714     713     715     720     714     713     715
     718     714     713     716     719     714     713     716
     720     714     713     716     718     714     713     717
     719     714     713     717     720     714     713     717
     726     722     721     723     727     722     721     723
     728     722     721     723     726     722     721     724
     727     722     721     724     728     722     721     724
     726     722     721     725     727     722     721     725
     728     722     721     725     734     730     729     731
     735     730     729     731     736     730     729     731
     734     730     729     732     735     730     729     732
     736     730     729     732     734     730     729     733
     735     730     729     733     736     730     729     733
     742     738     737     739     743     738     737     739
     744     738     737     739     742     738     737     740
     743     738     737     740     744     738     737     740
     742     738     737     741     743     738     737     741
     744     738     737     741     750     746     745     747
     751     746     745     747     752     746     745     747
     750     746     745     748     751     746     745     748
     752     746     745     748     750     746     745     749
     751     746     745     749     752     746     745     749
     758     754     753     755     759     754     753     755
     760     754     753     755     758     754     753     756
     759     754     753     756     760     754     753     756
     758     754     753     757     759     754     753     757
     760     754     753     757     766     762     761     763
     767     762     761     763     768     762     761     763
     766     762     761     764     767     762     761     764
     768     762     761     764     766     762     761     765
     767     762     761     765     768     762     761     765
     774     770     769     771     775     770     769     771
     776     770     769     771     774     770     769     772
     775     770     769     772     776     770     769     772
     774     770     769     773     775     770     769     773
     776     770     769     773     782     778     777     779
     783     778     777     779     784     778     777     779
     782     778     777     780     783     778     777     780
     784     778     777     780     782     778     777     781
     783     778     777     781     784     778     777     781
     790     786     785     787     791     786     785     787
     792     786     785     787     790     786     785     788
     791     786     785     788     792     786     785     788
     790     786     785     789     791     786     785     789
     792     786     785     789     798     794     793     795
     799     794     793     795     800     794     793     795
     798     794     793     796     799     794     793     796
     800     794     793     796     798     794     793     797
     799     794     793     797     800     794     793     797
     806     802     801     803     807     802     801     803
     808     802     801     803     806     802     801     804
     807     802     801     804     808     802     801     804
     806     802     801     805     807     802     801     805
     808     802     801     805     814     810     809     811
     815     810     809     811     816     810     809     811
     814     810     809     812     815     810     809     812
     816     810     809     812     814     810     809     813
     815     810     809     813     816     810     809     813
     822     818     817     819     823     818     817     819
     824     818     817     819     822     818     817     820
     823     818     817     820     824     818     817     820
     822     818     817     821     823     818     817     821
     824     818     817     821     830     826     825     827
     831     826     825     827     832     826     825     827
     830     826     825     828     831     826     825     828
     832     826     825     828     830     826     825     829
     831     826     825     829     832     826     825     829
     838     834     833     835     839     834     833     835
     840     834     833     835     838     834     833     836
     839     834     833     836     840     834     833     836
     838     834     833     837     839     834     833     837
     840     834     833     837     846     842     841     843
     847     842     841     843     848     842     841     843
     846     842     841     844     847     842     841     844
     848     842     841     844     846     842     841     845
     847     842     841     845     848     842     841     845
     854     850     849     851     855     850     849     851
     856     850     849     851     854     850     849     852
     855     850     849     852     856     850     849     852
     854     850     849     853     855     850     849     853
     856     850     849     853     862     858     857     859
     863     858     857     859     864     858     857     859
     862     858     857     860     863     858     857     860
     864     858     857     860     862     858     857     861
     863     858     857     861     864     858     857     861
     870     866     865     867     871     866     865     867
     872     866     865     867     870     866     865     868
     871     866     865     868     872     866     865     868
     870     866     865     869     871     866     865     869
     872     866     865     869     878     874     873     875
     879     874     873     875     880     874     873     875
     878     874     873     876     879     874     873     876
     880     874     873     876     878     874     873     877
     879     874     873     877     880     874     873     877
     886     882     881     883     887     882     881     883
     888     882     881     883     886     882     881     884
     887     882     881     884     888     882     881     884
     886     882     881     885     887     882     881     885
     888     882     881     885     894     890     889     891
     895     890     889     891     896     890     889     891
     894     890     889     892     895     890     889     892
     896     890     889     892     894     890     889     893
     895     890     889     893     896     890     889     893
     902     898     897     899     903     898     897     899
     904     898     897     899     902     898     897     900
     903     898     897     900     904     898     897     900
     902     898     897     901     903     898     897     901
     904     898     897     901     910     906     905     907
     911     906     905     907     912     906     905     907
     910     906     905     908     911     906     905     908
     912     906     905     908     910     906     905     909
     911     906     905     909     912     906     905     909
     918     914     913     915     919     914     913     915
     920     914     913     915     918     914     913     916
     919     914     913     916     920     914     913     916
     918     914     913     917     919     914     913     917
     920     914     913     917     926     922     921     923
     927     922     921     923     928     922     921     923
     926     922     921     924     927     922     921     924
     928     922     921     924     926     922     921     925
     927     922     921     925     928     922     921     925
     934     930     929     931     935     930     929     931
     936     930     929     931     934     930     929     932
     935     930     929     932     936     930     929     932
     934     930     929     933     935     930     929     933
     936     930     929     933     942     938     937     939
     943     938     937     939     944     938     937     939
     942     938     937     940     943     938     937     940
     944     938     937     940     942     938     937     941
     943     938     937     941     944     938     937     941
     950     946     945     947     951     946     945     947
     952     946     945     947     950     946     945     948
     951     946     945     948     952     946     945     948
     950     946     945     949     951     946     945     949
     952     946     945     949     958     954     953     955
     959     954     953     955     960     954     953     955
     958     954     953     956     959     954     953     956
     960     954     953     956     958     954     953     957
     959     954     953     957     960     954     953     957
     966     962     961     963     967     962     961     963
     968     962     961     963     966     962     961     964
     967     962     961     964     968     962     961     964
     966     962     961     965     967     962     961     965
     968     962     961     965     974     970     969     971
     975     970     969     971     976     970     969     971
     974     970     969     972     975     970     969     972
     976     970     969     972     974     970     969     973
     975     970     969     973     976     970     969     973
     982     978     977     979     983     978     977     979
     984     978     977     979     982     978     977     980
     983     978     977     980     984     978     977     980
     982     978     977     981     983     978     977     981
     984     978     977     981     990     986     985     987
     991     986     985     987     992     986     985     987
     990     986     985     988     991     986     985     988
     992     986     985     988     990     986     985     989
     991     986     985     989     992     986     985     989
     998     994     993     995     999     994     993     995
    1000     994     993     995     998     994     993     996
     999     994     993     996    1000     994     993     996
     998     994     993     997     999     994     993     997
    1000     994     993     997    1006    1002    1001    1003
    1007    1002    1001    1003    1008    1002    1001    1003
    1006    1002    1001    1004    1007    1002    1001    1004
    1008    1002    1001    1004    1006    1002    1001    1005
    1007    1002    1001    1005    1008    1002    1001    1005
    1014    1010    1009    1011    1015    1010    1009    1011
    1016    1010    1009    1011    1014    1010    1009    1012
    1015    1010    1009    1012    1016    1010    1009    1012
    1014    1010    1009    1013    1015    1010    1009    1013
    1016    1010    1009    1013    1022    1018    1017    1019
    1023    1018    1017    1019    1024    1018    1017    1019
    1022    1018    1017    1020    1023    1018    1017    1020
    1024    1018    1017    1020    1022    1018    1017    1021
    1023    1018    1017    1021    1024    1018    1017    1021
    1030    1026    1025    1027    1031    1026    1025    1027
    1032    1026    1025    1027    1030    1026    1025    1028
    1031    1026    1025    1028    1032    1026    1025    1028
    1030    1026    1025    1029    1031    1026    1025    1029
    1032    1026    1025    1029    1038    1034    1033    1035
    1039    1034    1033    1035    1040    1034    1033    1035
    1038    1034    1033    1036    1039    1034    1033    1036
    1040    1034    1033    1036    1038    1034    1033    1037
    1039    1034    1033    1037    1040    1034    1033    1037
    1046    1042    1041    1043    1047    1042    1041    1043
    1048    1042    1041    1043    1046    1042    1041    1044
    1047    1042    1041    1044    1048    1042    1041    1044
    1046    1042    1041    1045    1047    1042    1041    1045
    1048    1042    1041    1045    1054    1050    1049    1051
    1055    1050    1049    1051    1056    1050    1049    1051
    1054    1050    1049    1052    1055    1050    1049    1052
    1056    1050    1049    1052    1054    1050    1049    1053
    1055    1050    1049    1053    1056    1050    1049    1053
    1062    1058    1057    1059    1063    1058    1057    1059
    1064    1058    1057    1059    1062    1058    1057    1060
    1063    1058    1057    1060    1064    1058    1057    1060
    1062    1058    1057    1061    1063    1058    1057    1061
    1064    1058    1057    1061    1070    1066    1065    1067
    1071    1066    1065    1067    1072    1066    1065    1067
    1070    1066    1065    1068    1071    1066    1065    1068
    1072    1066    1065    1068    1070    1066    1065    1069
    1071    1066    1065    1069    1072    1066    1065    1069
    1078    1074    1073    1075    1079    1074    1073    1075
    1080    1074    1073    1075    1078    1074    1073    1076
    1079    1074    1073    1076    1080    1074    1073    1076
    1078    1074    1073    1077    1079    1074    1073    1077
    1080    1074    1073    1077    1086    1082    1081    1083
    1087    1082    1081    1083    1088    1082    1081    1083
    1086    1082    1081    1084    1087    1082    1081    1084
    1088    1082    1081    1084    1086    1082    1081    1085
    1087    1082    1081    1085    1088    1082    1081    1085
    1094    1090    1089    1091    1095    1090    1089    1091
    1096    1090    1089    1091    1094    1090    1089    1092
    1095    1090    1089    1092    1096    1090    1089    1092
    1094    1090    1089    1093    1095    1090    1089    1093
    1096    1090    1089    1093    1102    1098    1097    1099
    1103    1098    1097    1099    1104    1098    1097    1099
    1102    1098    1097    1100    1103    1098    1097    1100
    1104    1098    1097    1100    1102    1098    1097    1101
    1103    1098    1097    1101    1104    1098    1097    1101
    1110    1106    1105    1107    1111    1106    1105    1107
    1112    1106    1105    1107    1110    1106    1105    1108
    1111    1106    1105    1108    1112    1106    1105    1108
    1110    1106    1105    1109    1111    1106    1105    1109
    1112    1106    1105    1109    1118    1114    1113    1115
    1119    1114    1113    1115    1120    1114    1113    1115
    1118    1114    1113    1116    1119    1114    1113    1116
    1120    1114    1113    1116    1118    1114    1113    1117
    1119    1114    1113    1117    1120    1114    1113    1117
    1126    1122    1121    1123    1127    1122    1121    1123
    1128    1122    1121    1123    1126    1122    1121    1124
    1127    1122    1121    1124    1128    1122    1121    1124
    1126    1122    1121    1125    1127    1122    1121    1125
    1128    1122    1121    1125    1134    1130    1129    1131
    1135    1130    1129    1131    1136    1130    1129    1131
    1134    1130    1129    1132    1135    1130    1129    1132
    1136    1130    1129    1132    1134    1130    1129    1133
    1135    1130    1129    1133    1136    1130    1129    1133
    1142    1138    1137    1139    1143    1138    1137    1139
    1144    1138    1137    1139    1142    1138    1137    1140
    1143    1138    1137    1140    1144    1138    1137    1140
    1142    1138    1137    1141    1143    1138    1137    1141
    1144    1138    1137    1141    1150    1146    1145    1147
    1151    1146    1145    1147    1152    1146    1145    1147
    1150    1146    1145    1148    1151    1146    1145    1148
    1152    1146    1145    1148    1150    1146    1145    1149
    1151    1146    1145    1149    1152    1146    1145    1149
    1158    1154    1153    1155    1159    1154    1153    1155
    1160    1154    1153    1155    1158    1154    1153    1156
    1159    1154    1153    1156    1160    1154    1153    1156
    1158    1154    1153    1157    1159    1154    1153    1157
    1160    1154    1153    1157    1166    1162    1161    1163
    1167    1162    1161    1163    1168    1162    1161    1163
    1166    1162    1161    1164    1167    1162    1161    1164
    1168    1162    1161    1164    1166    1162    1161    1165
    1167    1162    1161    1165    1168    1162    1161    1165
    1174    1170    1169    1171    1175    1170    1169    1171
    1176    1170    1169    1171    1174    1170    1169    1172
    1175    1170    1169    1172    1176    1170    1169    1172
    1174    1170    1169    1173    1175    1170    1169    1173
    1176    1170    1169    1173    1182    1178    1177    1179
    1183    1178    1177    1179    1184    1178    1177    1179
    1182    1178    1177    1180    1183    1178    1177    1180
    1184    1178    1177    1180    1182    1178    1177    1181
    1183    1178    1177    1181    1184    1178    1177    1181
    1190    1186    1185    1187    1191    1186    1185    1187
    1192    1186    1185    1187    1190    1186    1185    1188
    1191    1186    1185    1188    1192    1186    1185    1188
    1190    1186    1185    1189    1191    1186    1185    1189
    1192    1186    1185    1189    1198    1194    1193    1195
    1199    1194    1193    1195    1200    1194    1193    1195
    1198    1194    1193    1196    1199    1194    1193    1196
    1200    1194    1193    1196    1198    1194    1193    1197
    1199    1194    1193    1197    1200    1194    1193    1197
    1206    1202    1201    1203    1207    1202    1201    1203
    1208    1202    1201    1203    1206    1202    1201    1204
    1207    1202    1201    1204    1208    1202    1201    1204
    1206    1202    1201    1205    1207    1202    1201    1205
    1208    1202    1201    1205    1214    1210    1209    1211
    1215    1210    1209    1211    1216    1210    1209    1211
    1214    1210    1209    1212    1215    1210    1209    1212
    1216    1210    1209    1212    1214    1210    1209    1213
    1215    1210    1209    1213    1216    1210    1209    1213
    1222    1218    1217    1219    1223    1218    1217    1219
    1224    1218    1217    1219    1222    1218    1217    1220
    1223    1218    1217    1220    1224    1218    1217    1220
    1222    1218    1217    1221    1223    1218    1217    1221
    1224    1218    1217    1221    1230    1226    1225    1227
    1231    1226    1225    1227    1232    1226    1225    1227
    1230    1226    1225    1228    1231    1226    1225    1228
    1232    1226    1225    1228    1230    1226    1225    1229
    1231    1226    1225    1229    1232    1226    1225    1229
    1238    1234    1233    1235    1239    1234    1233    1235
    1240    1234    1233    1235    1238    1234    1233    1236
    1239    1234    1233    1236    1240    1234    1233    1236
    1238    1234    1233    1237    1239    1234    1233    1237
    1240    1234    1233    1237    1246    1242    1241    1243
    1247    1242    1241    1243    1248    1242    1241    1243
    1246    1242    1241    1244    1247    1242    1241    1244
    1248    1242    1241    1244    1246    1242    1241    1245
    1247    1242    1241    1245    1248    1242    1241    1245
    1254    1250    1249    1251    1255    1250    1249    1251
    1256    1250    1249    1251    1254    1250    1249    1252
    1255    1250    1249    1252    1256    1250    1249    1252
    1254    1250    1249    1253    1255    1250    1249    1253
    1256    1250    1249    1253    1262    1258    1257    1259
    1263    1258    1257    1259    1264    1258    1257    1259
    1262    1258    1257    1260    1263    1258    1257    1260
    1264    1258    1257    1260    1262    1258    1257    1261
    1263    1258    1257    1261    1264    1258    1257    1261
    1270    1266    1265    1267    1271    1266    1265    1267
    1272    1266    1265    1267    1270    1266    1265    1268
    1271    1266    1265    1268    1272    1266    1265    1268
    1270    1266    1265    1269    1271    1266    1265    1269
    1272    1266    1265    1269    1278    1274    1273    1275
    1279    1274    1273    1275    1280    1274    1273    1275
    1278    1274    1273    1276    1279    1274    1273    1276
    1280    1274    1273    1276    1278    1274    1273    1277
    1279    1274    1273    1277    1280    1274    1273    1277
    1286    1282    1281    1283    1287    1282    1281    1283
    1288    1282    1281    1283    1286    1282    1281    1284
    1287    1282    1281    1284    1288    1282    1281    1284
    1286    1282    1281    1285    1287    1282    1281    1285
    1288    1282    1281    1285    1294    1290    1289    1291
    1295    1290    1289    1291    1296    1290    1289    1291
    1294    1290    1289    1292    1295    1290    1289    1292
    1296    1290    1289    1292    1294    1290    1289    1293
    1295    1290    1289    1293    1296    1290    1289    1293
    1302    1298    1297    1299    1303    1298    1297    1299
    1304    1298    1297    1299    1302    1298    1297    1300
    1303    1298    1297    1300    1304    1298    1297    1300
    1302    1298    1297    1301    1303    1298    1297    1301
    1304    1298    1297    1301    1310    1306    1305    1307
    1311    1306    1305    1307    1312    1306    1305    1307
    1310    1306    1305    1308    1311    1306    1305    1308
    1312    1306    1305    1308    1310    1306    1305    1309
    1311    1306    1305    1309    1312    1306    1305    1309
    1318    1314    1313    1315    1319    1314    1313    1315
    1320    1314    1313    1315    1318    1314    1313    1316
    1319    1314    1313    1316    1320    1314    1313    1316
    1318    1314    1313    1317    1319    1314    1313    1317
    1320    1314    1313    1317    1326    1322    1321    1323
    1327    1322    1321    1323    1328    1322    1321    1323
    1326    1322    1321    1324    1327    1322    1321    1324
    1328    1322    1321    1324    1326    1322    1321    1325
    1327    1322    1321    1325    1328    1322    1321    1325
    1334    1330    1329    1331    1335    1330    1329    1331
    1336    1330    1329    1331    1334    1330    1329    1332
    1335    1330    1329    1332    1336    1330    1329    1332
    1334    1330    1329    1333    1335    1330    1329    1333
    1336    1330    1329    1333    1342    1338    1337    1339
    1343    1338    1337    1339    1344    1338    1337    1339
    1342    1338    1337    1340    1343    1338    1337    1340
    1344    1338    1337    1340    1342    1338    1337    1341
    1343    1338    1337    1341    1344    1338    1337    1341
    1350    1346    1345    1347    1351    1346    1345    1347
    1352    1346    1345    1347    1350    1346    1345    1348
    1351    1346    1345    1348    1352    1346    1345    1348
    1350    1346    1345    1349    1351    1346    1345    1349
    1352    1346    1345    1349    1358    1354    1353    1355
    1359    1354    1353    1355    1360    1354    1353    1355
    1358    1354    1353    1356    1359    1354    1353    1356
    1360    1354    1353    1356    1358    1354    1353    1357
    1359    1354    1353    1357    1360    1354    1353    1357
    1366    1362    1361    1363    1367    1362    1361    1363
    1368    1362    1361    1363    1366    1362    1361    1364
    1367    1362    1361    1364    1368    1362    1361    1364
    1366    1362    1361    1365    1367    1362    1361    1365
    1368    1362    1361    1365    1374    1370    1369    1371
    1375    1370    1369    1371    1376    1370    1369    1371
    1374    1370    1369    1372    1375    1370    1369    1372
    1376    1370    1369    1372    1374    1370    1369    1373
    1375    1370    1369    1373    1376    1370    1369    1373
    1382    1378    1377    1379    1383    1378    1377    1379
    1384    1378    1377    1379    1382    1378    1377    1380
    1383    1378    1377    1380    1384    1378    1377    1380
    1382    1378    1377    1381    1383    1378    1377    1381
    1384    1378    1377    1381    1390    1386    1385    1387
    1391    1386    1385    1387    1392    1386    1385    1387
    1390    1386    1385    1388    1391    1386    1385    1388
    1392    1386    1385    1388    1390    1386    1385    1389
    1391    1386    1385    1389    1392    1386    1385    1389
    1398    1394    1393    1395    1399    1394    1393    1395
    1400    1394    1393    1395    1398    1394    1393    1396
    1399    1394    1393    1396    1400    1394    1393    1396
    1398    1394    1393    1397    1399    1394    1393    1397
    1400    1394    1393    1397    1406    1402    1401    1403
    1407    1402    1401    1403    1408    1402    1401    1403
    1406    1402    1401    1404    1407    1402    1401    1404
    1408    1402    1401    1404    1406    1402    1401    1405
    1407    1402    1401    1405    1408    1402    1401    1405
    1414    1410    1409    1411    1415    1410    1409    1411
    1416    1410    1409    1411    1414    1410    1409    1412
    1415    1410    1409    1412    1416    1410    1409    1412
    1414    1410    1409    1413    1415    1410    1409    1413
    1416    1410    1409    1413    1422    1418    1417    1419
    1423    1418    1417    1419    1424    1418    1417    1419
    1422    1418    1417    1420    1423    1418    1417    1420
    1424    1418    1417    1420    1422    1418    1417    1421
    1423    1418    1417    1421    1424    1418    1417    1421
    1430    1426    1425    1427    1431    1426    1425    1427
    1432    1426    1425    1427    1430    1426    1425    1428
    1431    1426    1425    1428    1432    1426    1425    1428
    1430    1426    1425    1429    1431    1426    1425    1429
    1432    1426    1425    1429    1438    1434    1433    1435
    1439    1434    1433    1435    1440    1434    1433    1435
    1438    1434    1433    1436    1439    1434    1433    1436
    1440    1434    1433    1436    1438    1434    1433    1437
    1439    1434    1433    1437    1440    1434    1433    1437
    1446    1442    1441    1443    1447    1442    1441    1443
    1448    1442    1441    1443    1446    1442    1441    1444
    1447    1442    1441    1444    1448    1442    1441    1444
    1446    1442    1441    1445    1447    1442    1441    1445
    1448    1442    1441    1445    1454    1450    1449    1451
    1455    1450    1449    1451    1456    1450    1449    1451
    1454    1450    1449    1452    1455    1450    1449    1452
    1456    1450    1449    1452    1454    1450    1449    1453
    1455    1450    1449    1453    1456    1450    1449    1453
    1462    1458    1457    1459    1463    1458    1457    1459
    1464    1458    1457    1459    1462    1458    1457    1460
    1463    1458    1457    1460    1464    1458    1457    1460
    1462    1458    1457    1461    1463    1458    1457    1461
    1464    1458    1457    1461    1470    1466    1465    1467
    1471    1466    1465    1467    1472    1466    1465    1467
    1470    1466    1465    1468    1471    1466    1465    1468
    1472    1466    1465    1468    1470    1466    1465    1469
    1471    1466    1465    1469    1472    1466    1465    1469
    1478    1474    1473    1475    1479    1474    1473    1475
    1480    1474    1473    1475    1478    1474    1473    1476
    1479    1474    1473    1476    1480    1474    1473    1476
    1478    1474    1473    1477    1479    1474    1473    1477
    1480    1474    1473    1477    1486    1482    1481    1483
    1487    1482    1481    1483    1488    1482    1481    1483
    1486    1482    1481    1484    1487    1482    1481    1484
    1488    1482    1481    1484    1486    1482    1481    1485
    1487    1482    1481    1485    1488    1482    1481    1485
    1494    1490    1489    1491    1495    1490    1489    1491
    1496    1490    1489    1491    1494    1490    1489    1492
    1495    1490    1489    1492    1496    1490    1489    1492
    1494    1490    1489    1493    1495    1490    1489    1493
    1496    1490    1489    1493    1502    1498    1497    1499
    1503    1498    1497    1499    1504    1498    1497    1499
    1502    1498    1497    1500    1503    1498    1497    1500
    1504    1498    1497    1500    1502    1498    1497    1501
    1503    1498    1497    1501    1504    1498    1497    1501
    1510    1506    1505    1507    1511    1506    1505    1507
    1512    1506    1505    1507    1510    1506    1505    1508
    1511    1506    1505    1508    1512    1506    1505    1508
    1510    1506    1505    1509    1511    1506    1505    1509
    1512    1506    1505    1509    1518    1514    1513    1515
    1519    1514    1513    1515    1520    1514    1513    1515
    1518    1514    1513    1516    1519    1514    1513    1516
    1520    1514    1513    1516    1518    1514    1513    1517
    1519    1514    1513    1517    1520    1514    1513    1517
    1526    1522    1521    1523    1527    1522    1521    1523
    1528    1522    1521    1523    1526    1522    1521    1524
    1527    1522    1521    1524    1528    1522    1521    1524
    1526    1522    1521    1525    1527    1522    1521    1525
    1528    1522    1521    1525    1534    1530    1529    1531
    1535    1530    1529    1531    1536    1530    1529    1531
    1534    1530    1529    1532    1535    1530    1529    1532
    1536    1530    1529    1532    1534    1530    1529    1533
    1535    1530    1529    1533    1536    1530    1529    1533
    1542    1538    1537    1539    1543    1538    1537    1539
    1544    1538    1537    1539    1542    1538    1537    1540
    1543    1538    1537    1540    1544    1538    1537    1540
    1542    1538    1537    1541    1543    1538    1537    1541
    1544    1538    1537    1541    1550    1546    1545    1547
    1551    1546    1545    1547    1552    1546    1545    1547
    1550    1546    1545    1548    1551    1546    1545    1548
    1552    1546    1545    1548    1550    1546    1545    1549
    1551    1546    1545    1549    1552    1546    1545    1549
    1558    1554    1553    1555    1559    1554    1553    1555
    1560    1554    1553    1555    1558    1554    1553    1556
    1559    1554    1553    1556    1560    1554    1553    1556
    1558    1554    1553    1557    1559    1554    1553    1557
    1560    1554    1553    1557    1566    1562    1561    1563
    1567    1562    1561    1563    1568    1562    1561    1563
    1566    1562    1561    1564    1567    1562    1561    1564
    1568    1562    1561    1564    1566    1562    1561    1565
    1567    1562    1561    1565    1568    1562    1561    1565
    1574    1570    1569    1571    1575    1570    1569    1571
    1576    1570    1569    1571    1574    1570    1569    1572
    1575    1570    1569    1572    1576    1570    1569    1572
    1574    1570    1569    1573    1575    1570    1569    1573
    1576    1570    1569    1573    1582    1578    1577    1579
    1583    1578    1577    1579    1584    1578    1577    1579
    1582    1578    1577    1580    1583    1578    1577    1580
    1584    1578    1577    1580    1582    1578    1577    1581
    1583    1578    1577    1581    1584    1578    1577    1581
    1590    1586    1585    1587    1591    1586    1585    1587
    1592    1586    1585    1587    1590    1586    1585    1588
    1591    1586    1585    1588    1592    1586    1585    1588
    1590    1586    1585    1589    1591    1586    1585    1589
    1592    1586    1585    1589    1598    1594    1593    1595
    1599    1594    1593    1595    1600    1594    1593    1595
    1598    1594    1593    1596    1599    1594    1593    1596
    1600    1594    1593    1596    1598    1594    1593    1597
    1599    1594    1593    1597    1600    1594    1593    1597
    1606    1602    1601    1603    1607    1602    1601    1603
    1608    1602    1601    1603    1606    1602    1601    1604
    1607    1602    1601    1604    1608    1602    1601    1604
    1606    1602    1601    1605    1607    1602    1601    1605
    1608    1602    1601    1605    1614    1610    1609    1611
    1615    1610    1609    1611    1616    1610    1609    1611
    1614    1610    1609    1612    1615    1610    1609    1612
    1616    1610    1609    1612    1614    1610    1609    1613
    1615    1610    1609    1613    1616    1610    1609    1613
    1622    1618    1617    1619    1623    1618    1617    1619
    1624    1618    1617    1619    1622    1618    1617    1620
    1623    1618    1617    1620    1624    1618    1617    1620
    1622    1618    1617    1621    1623    1618    1617    1621
    1624    1618    1617    1621    1630    1626    1625    1627
    1631    1626    1625    1627    1632    1626    1625    1627
    1630    1626    1625    1628    1631    1626    1625    1628
    1632    1626    1625    1628    1630    1626    1625    1629
    1631    1626    1625    1629    1632    1626    1625    1629
    1638    1634    1633    1635    1639    1634    1633    1635
    1640    1634    1633    1635    1638    1634    1633    1636
    1639    1634    1633    1636    1640    1634    1633    1636
    1638    1634    1633    1637    1639    1634    1633    1637
    1640    1634    1633    1637    1646    1642    1641    1643
    1647    1642    1641    1643    1648    1642    1641    1643
    1646    1642    1641    1644    1647    1642    1641    1644
    1648    1642    1641    1644    1646    1642    1641    1645
    1647    1642    1641    1645    1648    1642    1641    1645
    1654    1650    1649    1651    1655    1650    1649    1651
    1656    1650    1649    1651    1654    1650    1649    1652
    1655    1650    1649    1652    1656    1650    1649    1652
    1654    1650    1649    1653    1655    1650    1649    1653
    1656    1650    1649    1653    1662    1658    1657    1659
    1663    1658    1657    1659    1664    1658    1657    1659
    1662    1658    1657    1660    1663    1658    1657    1660
    1664    1658    1657    1660    1662    1658    1657    1661
    1663    1658    1657    1661    1664    1658    1657    1661
    1670    1666    1665    1667    1671    1666    1665    1667
    1672    1666    1665    1667    1670    1666    1665    1668
    1671    1666    1665    1668    1672    1666    1665    1668
    1670    1666    1665    1669    1671    1666    1665    1669
    1672    1666    1665    1669    1678    1674    1673    1675
    1679    1674    1673    1675    1680    1674    1673    1675
    1678    1674    1673    1676    1679    1674    1673    1676
    1680    1674    1673    1676    1678    1674    1673    1677
    1679    1674    1673    1677    1680    1674    1673    1677
    1686    1682    1681    1683    1687    1682    1681    1683
    1688    1682    1681    1683    1686    1682    1681    1684
    1687    1682    1681    1684    1688    1682    1681    1684
    1686    1682    1681    1685    1687    1682    1681    1685
    1688    1682    1681    1685    1694    1690    1689    1691
    1695    1690    1689    1691    1696    1690    1689    1691
    1694    1690    1689    1692    1695    1690    1689    1692
    1696    1690    1689    1692    1694    1690    1689    1693
    1695    1690    1689    1693    1696    1690    1689    1693
    1702    1698    1697    1699    1703    1698    1697    1699
    1704    1698    1697    1699    1702    1698    1697    1700
    1703    1698    1697    1700    1704    1698    1697    1700
    1702    1698    1697    1701    1703    1698    1697    1701
    1704    1698    1697    1701    1710    1706    1705    1707
    1711    1706    1705    1707    1712    1706    1705    1707
    1710    1706    1705    1708    1711    1706    1705    1708
    1712    1706    1705    1708    1710    1706    1705    1709
    1711    1706    1705    1709    1712    1706    1705    1709
    1718    1714    1713    1715    1719    1714    1713    1715
    1720    1714    1713    1715    1718    1714    1713    1716
    1719    1714    1713    1716    1720    1714    1713    1716
    1718    1714    1713    1717    1719    1714    1713    1717
    1720    1714    1713    1717    1726    1722    1721    1723
    1727    1722    1721    1723    1728    1722    1721    1723
    1726    1722    1721    1724    1727    1722    1721    1724
    1728    1722    1721    1724    1726    1722    1721    1725
    1727    1722    1721    1725    1728    1722    1721    1725
    1734    1730    1729    1731    1735    1730    1729    1731
    1736    1730    1729    1731    1734    1730    1729    1732
    1735    1730    1729    1732    1736    1730    1729    1732
    1734    1730    1729    1733    1735    1730    1729    1733
    1736    1730    1729    1733    1742    1738    1737    1739
    1743    1738    1737    1739    1744    1738    1737    1739
    1742    1738    1737    1740    1743    1738    1737    1740
    1744    1738    1737    1740    1742    1738    1737    1741
    1743    1738    1737    1741    1744    1738    1737    1741
    1750    1746    1745    1747    1751    1746    1745    1747
    1752    1746    1745    1747    1750    1746    1745    1748
    1751    1746    1745    1748    1752    1746    1745    1748
    1750    1746    1745    1749    1751    1746    1745    1749
    1752    1746    1745    1749    1758    1754    1753    1755
    1759    1754    1753    1755    1760    1754    1753    1755
    1758    1754    1753    1756    1759    1754    1753    1756
    1760    1754    1753    1756    1758    1754    1753    1757
    1759    1754    1753    1757    1760    1754    1753    1757
    1766    1762    1761    1763    1767    1762    1761    1763
    1768    1762    1761    1763    1766    1762    1761    1764
    1767    1762    1761    1764    1768    1762    1761    1764
    1766    1762    1761    1765    1767    1762    1761    1765
    1768    1762    1761    1765    1774    1770    1769    1771
    1775    1770    1769    1771    1776    1770    1769    1771
    1774    1770    1769    1772    1775    1770    1769    1772
    1776    1770    1769    1772    1774    1770    1769    1773
    1775    1770    1769    1773    1776    1770    1769    1773
    1782    1778    1777    1779    1783    1778    1777    1779
    1784    1778    1777    1779    1782    1778    1777    1780
    1783    1778    1777    1780    1784    1778    1777    1780
    1782    1778    1777    1781    1783    1778    1777    1781
    1784    1778    1777    1781    1790    1786    1785    1787
    1791    1786    1785    1787    1792    1786    1785    1787
    1790    1786    1785    1788    1791    1786    1785    1788
    1792    1786    1785    1788    1790    1786    1785    1789
    1791    1786    1785    1789    1792    1786    1785    1789
    1798    1794    1793    1795    1799    1794    1793    1795
    1800    1794    1793    1795    1798    1794    1793    1796
    1799    1794    1793    1796    1800    1794    1793    1796
    1798    1794    1793    1797    1799    1794    1793    1797
    1800    1794    1793    1797    1806    1802    1801    1803
    1807    1802    1801    1803    1808    1802    1801    1803
    1806    1802    1801    1804    1807    1802    1801    1804
    1808    1802    1801    1804    1806    1802    1801    1805
    1807    1802    1801    1805    1808    1802    1801    1805
    1814    1810    1809    1811    1815    1810    1809    1811
    1816    1810    1809    1811    1814    1810    1809    1812
    1815    1810    1809    1812    1816    1810    1809    1812
    1814    1810    1809    1813    1815    1810    1809    1813
    1816    1810    1809    1813    1822    1818    1817    1819
    1823    1818    1817    1819    1824    1818    1817    1819
    1822    1818    1817    1820    1823    1818    1817    1820
    1824    1818    1817    1820    1822    1818    1817    1821
    1823    1818    1817    1821    1824    1818    1817    1821
    1830    1826    1825    1827    1831    1826    1825    1827
    1832    1826    1825    1827    1830    1826    1825    1828
    1831    1826    1825    1828    1832    1826    1825    1828
    1830    1826    1825    1829    1831    1826    1825    1829
    1832    1826    1825    1829    1838    1834    1833    1835
    1839    1834    1833    1835    1840    1834    1833    1835
    1838    1834    1833    1836    1839    1834    1833    1836
    1840    1834    1833    1836    1838    1834    1833    1837
    1839    1834    1833    1837    1840    1834    1833    1837
    1846    1842    1841    1843    1847    1842    1841    1843
    1848    1842    1841    1843    1846    1842    1841    1844
    1847    1842    1841    1844    1848    1842    1841    1844
    1846    1842    1841    1845    1847    1842    1841    1845
    1848    1842    1841    1845    1854    1850    1849    1851
    1855    1850    1849    1851    1856    1850    1849    1851
    1854    1850    1849    1852    1855    1850    1849    1852
    1856    1850    1849    1852    1854    1850    1849    1853
    1855    1850    1849    1853    1856    1850    1849    1853
    1862    1858    1857    1859    1863    1858    1857    1859
    1864    1858    1857    1859    1862    1858    1857    1860
    1863    1858    1857    1860    1864    1858    1857    1860
    1862    1858    1857    1861    1863    1858    1857    1861
    1864    1858    1857    1861    1870    1866    1865    1867
    1871    1866    1865    1867    1872    1866    1865    1867
    1870    1866    1865    1868    1871    1866    1865    1868
    1872    1866    1865    1868    1870    1866    1865    1869
    1871    1866    1865    1869    1872    1866    1865    1869
    1878    1874    1873    1875    1879    1874    1873    1875
    1880    1874    1873    1875    1878    1874    1873    1876
    1879    1874    1873    1876    1880    1874    1873    1876
    1878    1874    1873    1877    1879    1874    1873    1877
    1880    1874    1873    1877    1886    1882    1881    1883
    1887    1882    1881    1883    1888    1882    1881    1883
    1886    1882    1881    1884    1887    1882    1881    1884
    1888    1882    1881    1884    1886    1882    1881    1885
    1887    1882    1881    1885    1888    1882    1881    1885
    1894    1890    1889    1891    1895    1890    1889    1891
    1896    1890    1889    1891    1894    1890    1889    1892
    1895    1890    1889    1892    1896    1890    1889    1892
    1894    1890    1889    1893    1895    1890    1889    1893
    1896    1890    1889    1893    1902    1898    1897    1899
    1903    1898    1897    1899    1904    1898    1897    1899
    1902    1898    1897    1900    1903    1898    1897    1900
    1904    1898    1897    1900    1902    1898    1897    1901
    1903    1898    1897    1901    1904    1898    1897    1901
    1910    1906    1905    1907    1911    1906    1905    1907
    1912    1906    1905    1907    1910    1906    1905    1908
    1911    1906    1905    1908    1912    1906    1905    1908
    1910    1906    1905    1909    1911    1906    1905    1909
    1912    1906    1905    1909    1918    1914    1913    1915
    1919    1914    1913    1915    1920    1914    1913    1915
    1918    1914    1913    1916    1919    1914    1913    1916
    1920    1914    1913    1916    1918    1914    1913    1917
    1919    1914    1913    1917    1920    1914    1913    1917
    1926    1922    1921    1923    1927    1922    1921    1923
    1928    1922    1921    1923    1926    1922    1921    1924
    1927    1922    1921    1924    1928    1922    1921    1924
    1926    1922    1921    1925    1927    1922    1921    1925
    1928    1922    1921    1925    1934    1930    1929    1931
    1935    1930    1929    1931    1936    1930    1929    1931
    1934    1930    1929    1932    1935    1930    1929    1932
    1936    1930    1929    1932    1934    1930    1929    1933
    1935    1930    1929    1933    1936    1930    1929    1933
    1942    1938    1937    1939    1943    1938    1937    1939
    1944    1938    1937    1939    1942    1938    1937    1940
    1943    1938    1937    1940    1944    1938    1937    1940
    1942    1938    1937    1941    1943    1938    1937    1941
    1944    1938    1937    1941    1950    1946    1945    1947
    1951    1946    1945    1947    1952    1946    1945    1947
    1950    1946    1945    1948    1951    1946    1945    1948
    1952    1946    1945    1948    1950    1946    1945    1949
    1951    1946    1945    1949    1952    1946    1945    1949
    1958    1954    1953    1955    1959    1954    1953    1955
    1960    1954    1953    1955    1958    1954    1953    1956
    1959    1954    1953    1956    1960    1954    1953    1956
    1958    1954    1953    1957    1959    1954    1953    1957
    1960    1954    1953    1957    1966    1962    1961    1963
    1967    1962    1961    1963    1968    1962    1961    1963
    1966    1962    1961    1964    1967    1962    1961    1964
    1968    1962    1961    1964    1966    1962    1961    1965
    1967    1962    1961    1965    1968    1962    1961    1965
    1974    1970    1969    1971    1975    1970    1969    1971
    1976    1970    1969    1971    1974    1970    1969    1972
    1975    1970    1969    1972    1976    1970    1969    1972
    1974    1970    1969    1973    1975    1970    1969    1973
    1976    1970    1969    1973    1982    1978    1977    1979
    1983    1978    1977    1979    1984    1978    1977    1979
    1982    1978    1977    1980    1983    1978    1977    1980
    1984    1978    1977    1980    1982    1978    1977    1981
    1983    1978    1977    1981    1984    1978    1977    1981
    1990    1986    1985    1987    1991    1986    1985    1987
    1992    1986    1985    1987    1990    1986    1985    1988
    1991    1986    1985    1988    1992    1986    1985    1988
    1990    1986    1985    1989    1991    1986    1985    1989
    1992    1986    1985    1989    1998    1994    1993    1995
    1999    1994    1993    1995    2000    1994    1993    1995
    1998    1994    1993    1996    1999    1994    1993    1996
    2000    1994    1993    1996    1998    1994    1993    1997
    1999    1994    1993    1997    2000    1994    1993    1997
    2006    2002    2001    2003    2007    2002    2001    2003
    2008    2002    2001    2003    2006    2002    2001    2004
    2007    2002    2001    2004    2008    2002    2001    2004
    2006    2002    2001    2005    2007    2002    2001    2005
    2008    2002    2001    2005    2014    2010    2009    2011
    2015    2010    2009    2011    2016    2010    2009    2011
    2014    2010    2009    2012    2015    2010    2009    2012
    2016    2010    2009    2012    2014    2010    2009    2013
    2015    2010    2009    2013    2016    2010    2009    2013
    2022    2018    2017    2019    2023    2018    2017    2019
    2024    2018    2017    2019    2022    2018    2017    2020
    2023    2018    2017    2020    2024    2018    2017    2020
    2022    2018    2017    2021    2023    2018    2017    2021
    2024    2018    2017    2021    2030    2026    2025    2027
    2031    2026    2025    2027    2032    2026    2025    2027
    2030    2026    2025    2028    2031    2026    2025    2028
    2032    2026    2025    2028    2030    2026    2025    2029
    2031    2026    2025    2029    2032    2026    2025    2029
    2038    2034    2033    2035    2039    2034    2033    2035
    2040    2034    2033    2035    2038    2034    2033    2036
    2039    2034    2033    2036    2040    2034    2033    2036
    2038    2034    2033    2037    2039    2034    2033    2037
    2040    2034    2033    2037    2046    2042    2041    2043
    2047    2042    2041    2043    2048    2042    2041    2043
    2046    2042    2041    2044    2047    2042    2041    2044
    2048    2042    2041    2044    2046    2042    2041    2045
    2047    2042    2041    2045    2048    2042    2041    2045
    2054    2050    2049    2051    2055    2050    2049    2051
    2056    2050    2049    2051    2054    2050    2049    2052
    2055    2050    2049    2052    2056    2050    2049    2052
    2054    2050    2049    2053    2055    2050    2049    2053
    2056    2050    2049    2053    2062    2058    2057    2059
    2063    2058    2057    2059    2064    2058    2057    2059
    2062    2058    2057    2060    2063    2058    2057    2060
    2064    2058    2057    2060    2062    2058    2057    2061
    2063    2058    2057    2061    2064    2058    2057    2061
    2070    2066    2065    2067    2071    2066    2065    2067
    2072    2066    2065    2067    2070    2066    2065    2068
    2071    2066    2065    2068    2072    2066    2065    2068
    2070    2066    2065    2069    2071    2066    2065    2069
    2072    2066    2065    2069    2078    2074    2073    2075
    2079    2074    2073    2075    2080    2074    2073    2075
    2078    2074    2073    2076    2079    2074    2073    2076
    2080    2074    2073    2076    2078    2074    2073    2077
    2079    2074    2073    2077    2080    2074    2073    2077
    2086    2082    2081    2083    2087    2082    2081    2083
    2088    2082    2081    2083    2086    2082    2081    2084
    2087    2082    2081    2084    2088    2082    2081    2084
    2086    2082    2081    2085    2087    2082    2081    2085
    2088    2082    2081    2085    2094    2090    2089    2091
    2095    2090    2089    2091    2096    2090    2089    2091
    2094    2090    2089    2092    2095    2090    2089    2092
    2096    2090    2089    2092    2094    2090    2089    2093
    2095    2090    2089    2093    2096    2090    2089    2093
    2102    2098    2097    2099    2103    2098    2097    2099
    2104    2098    2097    2099    2102    2098    2097    2100
    2103    2098    2097    2100    2104    2098    2097    2100
    2102    2098    2097    2101    2103    2098    2097    2101
    2104    2098    2097    2101    2110    2106    2105    2107
    2111    2106    2105    2107    2112    2106    2105    2107
    2110    2106    2105    2108    2111    2106    2105    2108
    2112    2106    2105    2108    2110    2106    2105    2109
    2111    2106    2105    2109    2112    2106    2105    2109
    2118    2114    2113    2115    2119    2114    2113    2115
    2120    2114    2113    2115    2118    2114    2113    2116
    2119    2114    2113    2116    2120    2114    2113    2116
    2118    2114    2113    2117    2119    2114    2113    2117
    2120    2114    2113    2117    2126    2122    2121    2123
    2127    2122    2121    2123    2128    2122    2121    2123
    2126    2122    2121    2124    2127    2122    2121    2124
    2128    2122    2121    2124    2126    2122    2121    2125
    2127    2122    2121    2125    2128    2122    2121    2125
    2134    2130    2129    2131    2135    2130    2129    2131
    2136    2130    2129    2131    2134    2130    2129    2132
    2135    2130    2129    2132    2136    2130    2129    2132
    2134    2130    2129    2133    2135    2130    2129    2133
    2136    2130    2129    2133    2142    2138    2137    2139
    2143    2138    2137    2139    2144    2138    2137    2139
    2142    2138    2137    2140    2143    2138    2137    2140
    2144    2138    2137    2140    2142    2138    2137    2141
    2143    2138    2137    2141    2144    2138    2137    2141
    2150    2146    2145    2147    2151    2146    2145    2147
    2152    2146    2145    2147    2150    2146    2145    2148
    2151    2146    2145    2148    2152    2146    2145    2148
    2150    2146    2145    2149    2151    2146    2145    2149
    2152    2146    2145    2149    2158    2154    2153    2155
    2159    2154    2153    2155    2160    2154    2153    2155
    2158    2154    2153    2156    2159    2154    2153    2156
    2160    2154    2153    2156    2158    2154    2153    2157
    2159    2154    2153    2157    2160    2154    2153    2157
    2166    2162    2161    2163    2167    2162    2161    2163
    2168    2162    2161    2163    2166    2162    2161    2164
    2167    2162    2161    2164    2168    2162    2161    2164
    2166    2162    2161    2165    2167    2162    2161    2165
    2168    2162    2161    2165    2174    2170    2169    2171
    2175    2170    2169    2171    2176    2170    2169    2171
    2174    2170    2169    2172    2175    2170    2169    2172
    2176    2170    2169    2172    2174    2170    2169    2173
    2175    2170    2169    2173    2176    2170    2169    2173
    2182    2178    2177    2179    2183    2178    2177    2179
    2184    2178    2177    2179    2182    2178    2177    2180
    2183    2178    2177    2180    2184    2178    2177    2180
    2182    2178    2177    2181    2183    2178    2177    2181
    2184    2178    2177    2181    2190    2186    2185    2187
    2191    2186    2185    2187    2192    2186    2185    2187
    2190    2186    2185    2188    2191    2186    2185    2188
    2192    2186    2185    2188    2190    2186    2185    2189
    2191    2186    2185    2189    2192    2186    2185    2189
    2198    2194    2193    2195    2199    2194    2193    2195
    2200    2194    2193    2195    2198    2194    2193    2196
    2199    2194    2193    2196    2200    2194    2193    2196
    2198    2194    2193    2197    2199    2194    2193    2197
    2200    2194    2193    2197    2206    2202    2201    2203
    2207    2202    2201    2203    2208    2202    2201    2203
    2206    2202    2201    2204    2207    2202    2201    2204
    2208    2202    2201    2204    2206    2202    2201    2205
    2207    2202    2201    2205    2208    2202    2201    2205
    2214    2210    2209    2211    2215    2210    2209    2211
    2216    2210    2209    2211    2214    2210    2209    2212
    2215    2210    2209    2212    2216    2210    2209    2212
    2214    2210    2209    2213    2215    2210    2209    2213
    2216    2210    2209    2213    2222    2218    2217    2219
    2223    2218    2217    2219    2224    2218    2217    2219
    2222    2218    2217    2220    2223    2218    2217    2220
    2224    2218    2217    2220    2222    2218    2217    2221
    2223    2218    2217    2221    2224    2218    2217    2221
    2230    2226    2225    2227    2231    2226    2225    2227
    2232    2226    2225    2227    2230    2226    2225    2228
    2231    2226    2225    2228    2232    2226    2225    2228
    2230    2226    2225    2229    2231    2226    2225    2229
    2232    2226    2225    2229    2238    2234    2233    2235
    2239    2234    2233    2235    2240    2234    2233    2235
    2238    2234    2233    2236    2239    2234    2233    2236
    2240    2234    2233    2236    2238    2234    2233    2237
    2239    2234    2233    2237    2240    2234    2233    2237
    2246    2242    2241    2243    2247    2242    2241    2243
    2248    2242    2241    2243    2246    2242    2241    2244
    2247    2242    2241    2244    2248    2242    2241    2244
    2246    2242    2241    2245    2247    2242    2241    2245
    2248    2242    2241    2245    2254    2250    2249    2251
    2255    2250    2249    2251    2256    2250    2249    2251
    2254    2250    2249    2252    2255    2250    2249    2252
    2256    2250    2249    2252    2254    2250    2249    2253
    2255    2250    2249    2253    2256    2250    2249    2253
    2262    2258    2257    2259    2263    2258    2257    2259
    2264    2258    2257    2259    2262    2258    2257    2260
    2263    2258    2257    2260    2264    2258    2257    2260
    2262    2258    2257    2261    2263    2258    2257    2261
    2264    2258    2257    2261    2270    2266    2265    2267
    2271    2266    2265    2267    2272    2266    2265    2267
    2270    2266    2265    2268    2271    2266    2265    2268
    2272    2266    2265    2268    2270    2266    2265    2269
    2271    2266    2265    2269    2272    2266    2265    2269
    2278    2274    2273    2275    2279    2274    2273    2275
    2280    2274    2273    2275    2278    2274    2273    2276
    2279    2274    2273    2276    2280    2274    2273    2276
    2278    2274    2273    2277    2279    2274    2273    2277
    2280    2274    2273    2277    2286    2282    2281    2283
    2287    2282    2281    2283    2288    2282    2281    2283
    2286    2282    2281    2284    2287    2282    2281    2284
    2288    2282    2281    2284    2286    2282    2281    2285
    2287    2282    2281    2285    2288    2282    2281    2285
    2294    2290    2289    2291    2295    2290    2289    2291
    2296    2290    2289    2291    2294    2290    2289    2292
    2295    2290    2289    2292    2296    2290    2289    2292
    2294    2290    2289    2293    2295    2290    2289    2293
    2296    2290    2289    2293    2302    2298    2297    2299
    2303    2298    2297    2299    2304    2298    2297    2299
    2302    2298    2297    2300    2303    2298    2297    2300
    2304    2298    2297    2300    2302    2298    2297    2301
    2303    2298    2297    2301    2304    2298    2297    2301
    2310    2306    2305    2307    2311    2306    2305    2307
    2312    2306    2305    2307    2310    2306    2305    2308
    2311    2306    2305    2308    2312    2306    2305    2308
    2310    2306    2305    2309    2311    2306    2305    2309
    2312    2306    2305    2309    2318    2314    2313    2315
    2319    2314    2313    2315    2320    2314    2313    2315
    2318    2314    2313    2316    2319    2314    2313    2316
    2320    2314    2313    2316    2318    2314    2313    2317
    2319    2314    2313    2317    2320    2314    2313    2317
    2326    2322    2321    2323    2327    2322    2321    2323
    2328    2322    2321    2323    2326    2322    2321    2324
    2327    2322    2321    2324    2328    2322    2321    2324
    2326    2322    2321    2325    2327    2322    2321    2325
    2328    2322    2321    2325    2334    2330    2329    2331
    2335    2330    2329    2331    2336    2330    2329    2331
    2334    2330    2329    2332    2335    2330    2329    2332
    2336    2330    2329    2332    2334    2330    2329    2333
    2335    2330    2329    2333    2336    2330    2329    2333
    2342    2338    2337    2339    2343    2338    2337    2339
    2344    2338    2337    2339    2342    2338    2337    2340
    2343    2338    2337    2340    2344    2338    2337    2340
    2342    2338    2337    2341    2343    2338    2337    2341
    2344    2338    2337    2341

       0 !NIMPHI: impropers 


       0 !NDON: donors 


       0 !NACC: acceptors 


       0 !NNB 


       0 !NGRP 
