PSF

       2 !NTITLE 
 REMARKS Restart PSF produced by GOMC
 REMARKS Contains Geometry data for molecules in Box 0

    5656 !NATOM 
       1 A    1    ETH  C1   CG3310   -0.270000       12.0110           0
       2 A    1    ETH  C2   CG3310   -0.270000       12.0110           0
       3 A    1    ETH  H1   HGA30    0.090000        1.0080           0
       4 A    1    ETH  H2   HGA30    0.090000        1.0080           0
       5 A    1    ETH  H3   HGA30    0.090000        1.0080           0
       6 A    1    ETH  H4   HGA30    0.090000        1.0080           0
       7 A    1    ETH  H5   HGA30    0.090000        1.0080           0
       8 A    1    ETH  H6   HGA30    0.090000        1.0080           0
       9 A    2    ETH  C1   CG3310   -0.270000       12.0110           0
      10 A    2    ETH  C2   CG3310   -0.270000       12.0110           0
      11 A    2    ETH  H1   HGA30    0.090000        1.0080           0
      12 A    2    ETH  H2   HGA30    0.090000        1.0080           0
      13 A    2    ETH  H3   HGA30    0.090000        1.0080           0
      14 A    2    ETH  H4   HGA30    0.090000        1.0080           0
      15 A    2    ETH  H5   HGA30    0.090000        1.0080           0
      16 A    2    ETH  H6   HGA30    0.090000        1.0080           0
      17 A    3    ETH  C1   CG3310   -0.270000       12.0110           0
      18 A    3    ETH  C2   CG3310   -0.270000       12.0110           0
      19 A    3    ETH  H1   HGA30    0.090000        1.0080           0
      20 A    3    ETH  H2   HGA30    0.090000        1.0080           0
      21 A    3    ETH  H3   HGA30    0.090000        1.0080           0
      22 A    3    ETH  H4   HGA30    0.090000        1.0080           0
      23 A    3    ETH  H5   HGA30    0.090000        1.0080           0
      24 A    3    ETH  H6   HGA30    0.090000        1.0080           0
      25 A    4    ETH  C1   CG3310   -0.270000       12.0110           0
      26 A    4    ETH  C2   CG3310   -0.270000       12.0110           0
      27 A    4    ETH  H1   HGA30    0.090000        1.0080           0
      28 A    4    ETH  H2   HGA30    0.090000        1.0080           0
      29 A    4    ETH  H3   HGA30    0.090000        1.0080           0
      30 A    4    ETH  H4   HGA30    0.090000        1.0080           0
      31 A    4    ETH  H5   HGA30    0.090000        1.0080           0
      32 A    4    ETH  H6   HGA30    0.090000        1.0080           0
      33 A    5    ETH  C1   CG3310   -0.270000       12.0110           0
      34 A    5    ETH  C2   CG3310   -0.270000       12.0110           0
      35 A    5    ETH  H1   HGA30    0.090000        1.0080           0
      36 A    5    ETH  H2   HGA30    0.090000        1.0080           0
      37 A    5    ETH  H3   HGA30    0.090000        1.0080           0
      38 A    5    ETH  H4   HGA30    0.090000        1.0080           0
      39 A    5    ETH  H5   HGA30    0.090000        1.0080           0
      40 A    5    ETH  H6   HGA30    0.090000        1.0080           0
      41 A    6    ETH  C1   CG3310   -0.270000       12.0110           0
      42 A    6    ETH  C2   CG3310   -0.270000       12.0110           0
      43 A    6    ETH  H1   HGA30    0.090000        1.0080           0
      44 A    6    ETH  H2   HGA30    0.090000        1.0080           0
      45 A    6    ETH  H3   HGA30    0.090000        1.0080           0
      46 A    6    ETH  H4   HGA30    0.090000        1.0080           0
      47 A    6    ETH  H5   HGA30    0.090000        1.0080           0
      48 A    6    ETH  H6   HGA30    0.090000        1.0080           0
      49 A    7    ETH  C1   CG3310   -0.270000       12.0110           0
      50 A    7    ETH  C2   CG3310   -0.270000       12.0110           0
      51 A    7    ETH  H1   HGA30    0.090000        1.0080           0
      52 A    7    ETH  H2   HGA30    0.090000        1.0080           0
      53 A    7    ETH  H3   HGA30    0.090000        1.0080           0
      54 A    7    ETH  H4   HGA30    0.090000        1.0080           0
      55 A    7    ETH  H5   HGA30    0.090000        1.0080           0
      56 A    7    ETH  H6   HGA30    0.090000        1.0080           0
      57 A    8    ETH  C1   CG3310   -0.270000       12.0110           0
      58 A    8    ETH  C2   CG3310   -0.270000       12.0110           0
      59 A    8    ETH  H1   HGA30    0.090000        1.0080           0
      60 A    8    ETH  H2   HGA30    0.090000        1.0080           0
      61 A    8    ETH  H3   HGA30    0.090000        1.0080           0
      62 A    8    ETH  H4   HGA30    0.090000        1.0080           0
      63 A    8    ETH  H5   HGA30    0.090000        1.0080           0
      64 A    8    ETH  H6   HGA30    0.090000        1.0080           0
      65 A    9    ETH  C1   CG3310   -0.270000       12.0110           0
      66 A    9    ETH  C2   CG3310   -0.270000       12.0110           0
      67 A    9    ETH  H1   HGA30    0.090000        1.0080           0
      68 A    9    ETH  H2   HGA30    0.090000        1.0080           0
      69 A    9    ETH  H3   HGA30    0.090000        1.0080           0
      70 A    9    ETH  H4   HGA30    0.090000        1.0080           0
      71 A    9    ETH  H5   HGA30    0.090000        1.0080           0
      72 A    9    ETH  H6   HGA30    0.090000        1.0080           0
      73 A    10   ETH  C1   CG3310   -0.270000       12.0110           0
      74 A    10   ETH  C2   CG3310   -0.270000       12.0110           0
      75 A    10   ETH  H1   HGA30    0.090000        1.0080           0
      76 A    10   ETH  H2   HGA30    0.090000        1.0080           0
      77 A    10   ETH  H3   HGA30    0.090000        1.0080           0
      78 A    10   ETH  H4   HGA30    0.090000        1.0080           0
      79 A    10   ETH  H5   HGA30    0.090000        1.0080           0
      80 A    10   ETH  H6   HGA30    0.090000        1.0080           0
      81 A    11   ETH  C1   CG3310   -0.270000       12.0110           0
      82 A    11   ETH  C2   CG3310   -0.270000       12.0110           0
      83 A    11   ETH  H1   HGA30    0.090000        1.0080           0
      84 A    11   ETH  H2   HGA30    0.090000        1.0080           0
      85 A    11   ETH  H3   HGA30    0.090000        1.0080           0
      86 A    11   ETH  H4   HGA30    0.090000        1.0080           0
      87 A    11   ETH  H5   HGA30    0.090000        1.0080           0
      88 A    11   ETH  H6   HGA30    0.090000        1.0080           0
      89 A    12   ETH  C1   CG3310   -0.270000       12.0110           0
      90 A    12   ETH  C2   CG3310   -0.270000       12.0110           0
      91 A    12   ETH  H1   HGA30    0.090000        1.0080           0
      92 A    12   ETH  H2   HGA30    0.090000        1.0080           0
      93 A    12   ETH  H3   HGA30    0.090000        1.0080           0
      94 A    12   ETH  H4   HGA30    0.090000        1.0080           0
      95 A    12   ETH  H5   HGA30    0.090000        1.0080           0
      96 A    12   ETH  H6   HGA30    0.090000        1.0080           0
      97 A    13   ETH  C1   CG3310   -0.270000       12.0110           0
      98 A    13   ETH  C2   CG3310   -0.270000       12.0110           0
      99 A    13   ETH  H1   HGA30    0.090000        1.0080           0
     100 A    13   ETH  H2   HGA30    0.090000        1.0080           0
     101 A    13   ETH  H3   HGA30    0.090000        1.0080           0
     102 A    13   ETH  H4   HGA30    0.090000        1.0080           0
     103 A    13   ETH  H5   HGA30    0.090000        1.0080           0
     104 A    13   ETH  H6   HGA30    0.090000        1.0080           0
     105 A    14   ETH  C1   CG3310   -0.270000       12.0110           0
     106 A    14   ETH  C2   CG3310   -0.270000       12.0110           0
     107 A    14   ETH  H1   HGA30    0.090000        1.0080           0
     108 A    14   ETH  H2   HGA30    0.090000        1.0080           0
     109 A    14   ETH  H3   HGA30    0.090000        1.0080           0
     110 A    14   ETH  H4   HGA30    0.090000        1.0080           0
     111 A    14   ETH  H5   HGA30    0.090000        1.0080           0
     112 A    14   ETH  H6   HGA30    0.090000        1.0080           0
     113 A    15   ETH  C1   CG3310   -0.270000       12.0110           0
     114 A    15   ETH  C2   CG3310   -0.270000       12.0110           0
     115 A    15   ETH  H1   HGA30    0.090000        1.0080           0
     116 A    15   ETH  H2   HGA30    0.090000        1.0080           0
     117 A    15   ETH  H3   HGA30    0.090000        1.0080           0
     118 A    15   ETH  H4   HGA30    0.090000        1.0080           0
     119 A    15   ETH  H5   HGA30    0.090000        1.0080           0
     120 A    15   ETH  H6   HGA30    0.090000        1.0080           0
     121 A    16   ETH  C1   CG3310   -0.270000       12.0110           0
     122 A    16   ETH  C2   CG3310   -0.270000       12.0110           0
     123 A    16   ETH  H1   HGA30    0.090000        1.0080           0
     124 A    16   ETH  H2   HGA30    0.090000        1.0080           0
     125 A    16   ETH  H3   HGA30    0.090000        1.0080           0
     126 A    16   ETH  H4   HGA30    0.090000        1.0080           0
     127 A    16   ETH  H5   HGA30    0.090000        1.0080           0
     128 A    16   ETH  H6   HGA30    0.090000        1.0080           0
     129 A    17   ETH  C1   CG3310   -0.270000       12.0110           0
     130 A    17   ETH  C2   CG3310   -0.270000       12.0110           0
     131 A    17   ETH  H1   HGA30    0.090000        1.0080           0
     132 A    17   ETH  H2   HGA30    0.090000        1.0080           0
     133 A    17   ETH  H3   HGA30    0.090000        1.0080           0
     134 A    17   ETH  H4   HGA30    0.090000        1.0080           0
     135 A    17   ETH  H5   HGA30    0.090000        1.0080           0
     136 A    17   ETH  H6   HGA30    0.090000        1.0080           0
     137 A    18   ETH  C1   CG3310   -0.270000       12.0110           0
     138 A    18   ETH  C2   CG3310   -0.270000       12.0110           0
     139 A    18   ETH  H1   HGA30    0.090000        1.0080           0
     140 A    18   ETH  H2   HGA30    0.090000        1.0080           0
     141 A    18   ETH  H3   HGA30    0.090000        1.0080           0
     142 A    18   ETH  H4   HGA30    0.090000        1.0080           0
     143 A    18   ETH  H5   HGA30    0.090000        1.0080           0
     144 A    18   ETH  H6   HGA30    0.090000        1.0080           0
     145 A    19   ETH  C1   CG3310   -0.270000       12.0110           0
     146 A    19   ETH  C2   CG3310   -0.270000       12.0110           0
     147 A    19   ETH  H1   HGA30    0.090000        1.0080           0
     148 A    19   ETH  H2   HGA30    0.090000        1.0080           0
     149 A    19   ETH  H3   HGA30    0.090000        1.0080           0
     150 A    19   ETH  H4   HGA30    0.090000        1.0080           0
     151 A    19   ETH  H5   HGA30    0.090000        1.0080           0
     152 A    19   ETH  H6   HGA30    0.090000        1.0080           0
     153 A    20   ETH  C1   CG3310   -0.270000       12.0110           0
     154 A    20   ETH  C2   CG3310   -0.270000       12.0110           0
     155 A    20   ETH  H1   HGA30    0.090000        1.0080           0
     156 A    20   ETH  H2   HGA30    0.090000        1.0080           0
     157 A    20   ETH  H3   HGA30    0.090000        1.0080           0
     158 A    20   ETH  H4   HGA30    0.090000        1.0080           0
     159 A    20   ETH  H5   HGA30    0.090000        1.0080           0
     160 A    20   ETH  H6   HGA30    0.090000        1.0080           0
     161 A    21   ETH  C1   CG3310   -0.270000       12.0110           0
     162 A    21   ETH  C2   CG3310   -0.270000       12.0110           0
     163 A    21   ETH  H1   HGA30    0.090000        1.0080           0
     164 A    21   ETH  H2   HGA30    0.090000        1.0080           0
     165 A    21   ETH  H3   HGA30    0.090000        1.0080           0
     166 A    21   ETH  H4   HGA30    0.090000        1.0080           0
     167 A    21   ETH  H5   HGA30    0.090000        1.0080           0
     168 A    21   ETH  H6   HGA30    0.090000        1.0080           0
     169 A    22   ETH  C1   CG3310   -0.270000       12.0110           0
     170 A    22   ETH  C2   CG3310   -0.270000       12.0110           0
     171 A    22   ETH  H1   HGA30    0.090000        1.0080           0
     172 A    22   ETH  H2   HGA30    0.090000        1.0080           0
     173 A    22   ETH  H3   HGA30    0.090000        1.0080           0
     174 A    22   ETH  H4   HGA30    0.090000        1.0080           0
     175 A    22   ETH  H5   HGA30    0.090000        1.0080           0
     176 A    22   ETH  H6   HGA30    0.090000        1.0080           0
     177 A    23   ETH  C1   CG3310   -0.270000       12.0110           0
     178 A    23   ETH  C2   CG3310   -0.270000       12.0110           0
     179 A    23   ETH  H1   HGA30    0.090000        1.0080           0
     180 A    23   ETH  H2   HGA30    0.090000        1.0080           0
     181 A    23   ETH  H3   HGA30    0.090000        1.0080           0
     182 A    23   ETH  H4   HGA30    0.090000        1.0080           0
     183 A    23   ETH  H5   HGA30    0.090000        1.0080           0
     184 A    23   ETH  H6   HGA30    0.090000        1.0080           0
     185 A    24   ETH  C1   CG3310   -0.270000       12.0110           0
     186 A    24   ETH  C2   CG3310   -0.270000       12.0110           0
     187 A    24   ETH  H1   HGA30    0.090000        1.0080           0
     188 A    24   ETH  H2   HGA30    0.090000        1.0080           0
     189 A    24   ETH  H3   HGA30    0.090000        1.0080           0
     190 A    24   ETH  H4   HGA30    0.090000        1.0080           0
     191 A    24   ETH  H5   HGA30    0.090000        1.0080           0
     192 A    24   ETH  H6   HGA30    0.090000        1.0080           0
     193 A    25   ETH  C1   CG3310   -0.270000       12.0110           0
     194 A    25   ETH  C2   CG3310   -0.270000       12.0110           0
     195 A    25   ETH  H1   HGA30    0.090000        1.0080           0
     196 A    25   ETH  H2   HGA30    0.090000        1.0080           0
     197 A    25   ETH  H3   HGA30    0.090000        1.0080           0
     198 A    25   ETH  H4   HGA30    0.090000        1.0080           0
     199 A    25   ETH  H5   HGA30    0.090000        1.0080           0
     200 A    25   ETH  H6   HGA30    0.090000        1.0080           0
     201 A    26   ETH  C1   CG3310   -0.270000       12.0110           0
     202 A    26   ETH  C2   CG3310   -0.270000       12.0110           0
     203 A    26   ETH  H1   HGA30    0.090000        1.0080           0
     204 A    26   ETH  H2   HGA30    0.090000        1.0080           0
     205 A    26   ETH  H3   HGA30    0.090000        1.0080           0
     206 A    26   ETH  H4   HGA30    0.090000        1.0080           0
     207 A    26   ETH  H5   HGA30    0.090000        1.0080           0
     208 A    26   ETH  H6   HGA30    0.090000        1.0080           0
     209 A    27   ETH  C1   CG3310   -0.270000       12.0110           0
     210 A    27   ETH  C2   CG3310   -0.270000       12.0110           0
     211 A    27   ETH  H1   HGA30    0.090000        1.0080           0
     212 A    27   ETH  H2   HGA30    0.090000        1.0080           0
     213 A    27   ETH  H3   HGA30    0.090000        1.0080           0
     214 A    27   ETH  H4   HGA30    0.090000        1.0080           0
     215 A    27   ETH  H5   HGA30    0.090000        1.0080           0
     216 A    27   ETH  H6   HGA30    0.090000        1.0080           0
     217 A    28   ETH  C1   CG3310   -0.270000       12.0110           0
     218 A    28   ETH  C2   CG3310   -0.270000       12.0110           0
     219 A    28   ETH  H1   HGA30    0.090000        1.0080           0
     220 A    28   ETH  H2   HGA30    0.090000        1.0080           0
     221 A    28   ETH  H3   HGA30    0.090000        1.0080           0
     222 A    28   ETH  H4   HGA30    0.090000        1.0080           0
     223 A    28   ETH  H5   HGA30    0.090000        1.0080           0
     224 A    28   ETH  H6   HGA30    0.090000        1.0080           0
     225 A    29   ETH  C1   CG3310   -0.270000       12.0110           0
     226 A    29   ETH  C2   CG3310   -0.270000       12.0110           0
     227 A    29   ETH  H1   HGA30    0.090000        1.0080           0
     228 A    29   ETH  H2   HGA30    0.090000        1.0080           0
     229 A    29   ETH  H3   HGA30    0.090000        1.0080           0
     230 A    29   ETH  H4   HGA30    0.090000        1.0080           0
     231 A    29   ETH  H5   HGA30    0.090000        1.0080           0
     232 A    29   ETH  H6   HGA30    0.090000        1.0080           0
     233 A    30   ETH  C1   CG3310   -0.270000       12.0110           0
     234 A    30   ETH  C2   CG3310   -0.270000       12.0110           0
     235 A    30   ETH  H1   HGA30    0.090000        1.0080           0
     236 A    30   ETH  H2   HGA30    0.090000        1.0080           0
     237 A    30   ETH  H3   HGA30    0.090000        1.0080           0
     238 A    30   ETH  H4   HGA30    0.090000        1.0080           0
     239 A    30   ETH  H5   HGA30    0.090000        1.0080           0
     240 A    30   ETH  H6   HGA30    0.090000        1.0080           0
     241 A    31   ETH  C1   CG3310   -0.270000       12.0110           0
     242 A    31   ETH  C2   CG3310   -0.270000       12.0110           0
     243 A    31   ETH  H1   HGA30    0.090000        1.0080           0
     244 A    31   ETH  H2   HGA30    0.090000        1.0080           0
     245 A    31   ETH  H3   HGA30    0.090000        1.0080           0
     246 A    31   ETH  H4   HGA30    0.090000        1.0080           0
     247 A    31   ETH  H5   HGA30    0.090000        1.0080           0
     248 A    31   ETH  H6   HGA30    0.090000        1.0080           0
     249 A    32   ETH  C1   CG3310   -0.270000       12.0110           0
     250 A    32   ETH  C2   CG3310   -0.270000       12.0110           0
     251 A    32   ETH  H1   HGA30    0.090000        1.0080           0
     252 A    32   ETH  H2   HGA30    0.090000        1.0080           0
     253 A    32   ETH  H3   HGA30    0.090000        1.0080           0
     254 A    32   ETH  H4   HGA30    0.090000        1.0080           0
     255 A    32   ETH  H5   HGA30    0.090000        1.0080           0
     256 A    32   ETH  H6   HGA30    0.090000        1.0080           0
     257 A    33   ETH  C1   CG3310   -0.270000       12.0110           0
     258 A    33   ETH  C2   CG3310   -0.270000       12.0110           0
     259 A    33   ETH  H1   HGA30    0.090000        1.0080           0
     260 A    33   ETH  H2   HGA30    0.090000        1.0080           0
     261 A    33   ETH  H3   HGA30    0.090000        1.0080           0
     262 A    33   ETH  H4   HGA30    0.090000        1.0080           0
     263 A    33   ETH  H5   HGA30    0.090000        1.0080           0
     264 A    33   ETH  H6   HGA30    0.090000        1.0080           0
     265 A    34   ETH  C1   CG3310   -0.270000       12.0110           0
     266 A    34   ETH  C2   CG3310   -0.270000       12.0110           0
     267 A    34   ETH  H1   HGA30    0.090000        1.0080           0
     268 A    34   ETH  H2   HGA30    0.090000        1.0080           0
     269 A    34   ETH  H3   HGA30    0.090000        1.0080           0
     270 A    34   ETH  H4   HGA30    0.090000        1.0080           0
     271 A    34   ETH  H5   HGA30    0.090000        1.0080           0
     272 A    34   ETH  H6   HGA30    0.090000        1.0080           0
     273 A    35   ETH  C1   CG3310   -0.270000       12.0110           0
     274 A    35   ETH  C2   CG3310   -0.270000       12.0110           0
     275 A    35   ETH  H1   HGA30    0.090000        1.0080           0
     276 A    35   ETH  H2   HGA30    0.090000        1.0080           0
     277 A    35   ETH  H3   HGA30    0.090000        1.0080           0
     278 A    35   ETH  H4   HGA30    0.090000        1.0080           0
     279 A    35   ETH  H5   HGA30    0.090000        1.0080           0
     280 A    35   ETH  H6   HGA30    0.090000        1.0080           0
     281 A    36   ETH  C1   CG3310   -0.270000       12.0110           0
     282 A    36   ETH  C2   CG3310   -0.270000       12.0110           0
     283 A    36   ETH  H1   HGA30    0.090000        1.0080           0
     284 A    36   ETH  H2   HGA30    0.090000        1.0080           0
     285 A    36   ETH  H3   HGA30    0.090000        1.0080           0
     286 A    36   ETH  H4   HGA30    0.090000        1.0080           0
     287 A    36   ETH  H5   HGA30    0.090000        1.0080           0
     288 A    36   ETH  H6   HGA30    0.090000        1.0080           0
     289 A    37   ETH  C1   CG3310   -0.270000       12.0110           0
     290 A    37   ETH  C2   CG3310   -0.270000       12.0110           0
     291 A    37   ETH  H1   HGA30    0.090000        1.0080           0
     292 A    37   ETH  H2   HGA30    0.090000        1.0080           0
     293 A    37   ETH  H3   HGA30    0.090000        1.0080           0
     294 A    37   ETH  H4   HGA30    0.090000        1.0080           0
     295 A    37   ETH  H5   HGA30    0.090000        1.0080           0
     296 A    37   ETH  H6   HGA30    0.090000        1.0080           0
     297 A    38   ETH  C1   CG3310   -0.270000       12.0110           0
     298 A    38   ETH  C2   CG3310   -0.270000       12.0110           0
     299 A    38   ETH  H1   HGA30    0.090000        1.0080           0
     300 A    38   ETH  H2   HGA30    0.090000        1.0080           0
     301 A    38   ETH  H3   HGA30    0.090000        1.0080           0
     302 A    38   ETH  H4   HGA30    0.090000        1.0080           0
     303 A    38   ETH  H5   HGA30    0.090000        1.0080           0
     304 A    38   ETH  H6   HGA30    0.090000        1.0080           0
     305 A    39   ETH  C1   CG3310   -0.270000       12.0110           0
     306 A    39   ETH  C2   CG3310   -0.270000       12.0110           0
     307 A    39   ETH  H1   HGA30    0.090000        1.0080           0
     308 A    39   ETH  H2   HGA30    0.090000        1.0080           0
     309 A    39   ETH  H3   HGA30    0.090000        1.0080           0
     310 A    39   ETH  H4   HGA30    0.090000        1.0080           0
     311 A    39   ETH  H5   HGA30    0.090000        1.0080           0
     312 A    39   ETH  H6   HGA30    0.090000        1.0080           0
     313 A    40   ETH  C1   CG3310   -0.270000       12.0110           0
     314 A    40   ETH  C2   CG3310   -0.270000       12.0110           0
     315 A    40   ETH  H1   HGA30    0.090000        1.0080           0
     316 A    40   ETH  H2   HGA30    0.090000        1.0080           0
     317 A    40   ETH  H3   HGA30    0.090000        1.0080           0
     318 A    40   ETH  H4   HGA30    0.090000        1.0080           0
     319 A    40   ETH  H5   HGA30    0.090000        1.0080           0
     320 A    40   ETH  H6   HGA30    0.090000        1.0080           0
     321 A    41   ETH  C1   CG3310   -0.270000       12.0110           0
     322 A    41   ETH  C2   CG3310   -0.270000       12.0110           0
     323 A    41   ETH  H1   HGA30    0.090000        1.0080           0
     324 A    41   ETH  H2   HGA30    0.090000        1.0080           0
     325 A    41   ETH  H3   HGA30    0.090000        1.0080           0
     326 A    41   ETH  H4   HGA30    0.090000        1.0080           0
     327 A    41   ETH  H5   HGA30    0.090000        1.0080           0
     328 A    41   ETH  H6   HGA30    0.090000        1.0080           0
     329 A    42   ETH  C1   CG3310   -0.270000       12.0110           0
     330 A    42   ETH  C2   CG3310   -0.270000       12.0110           0
     331 A    42   ETH  H1   HGA30    0.090000        1.0080           0
     332 A    42   ETH  H2   HGA30    0.090000        1.0080           0
     333 A    42   ETH  H3   HGA30    0.090000        1.0080           0
     334 A    42   ETH  H4   HGA30    0.090000        1.0080           0
     335 A    42   ETH  H5   HGA30    0.090000        1.0080           0
     336 A    42   ETH  H6   HGA30    0.090000        1.0080           0
     337 A    43   ETH  C1   CG3310   -0.270000       12.0110           0
     338 A    43   ETH  C2   CG3310   -0.270000       12.0110           0
     339 A    43   ETH  H1   HGA30    0.090000        1.0080           0
     340 A    43   ETH  H2   HGA30    0.090000        1.0080           0
     341 A    43   ETH  H3   HGA30    0.090000        1.0080           0
     342 A    43   ETH  H4   HGA30    0.090000        1.0080           0
     343 A    43   ETH  H5   HGA30    0.090000        1.0080           0
     344 A    43   ETH  H6   HGA30    0.090000        1.0080           0
     345 A    44   ETH  C1   CG3310   -0.270000       12.0110           0
     346 A    44   ETH  C2   CG3310   -0.270000       12.0110           0
     347 A    44   ETH  H1   HGA30    0.090000        1.0080           0
     348 A    44   ETH  H2   HGA30    0.090000        1.0080           0
     349 A    44   ETH  H3   HGA30    0.090000        1.0080           0
     350 A    44   ETH  H4   HGA30    0.090000        1.0080           0
     351 A    44   ETH  H5   HGA30    0.090000        1.0080           0
     352 A    44   ETH  H6   HGA30    0.090000        1.0080           0
     353 A    45   ETH  C1   CG3310   -0.270000       12.0110           0
     354 A    45   ETH  C2   CG3310   -0.270000       12.0110           0
     355 A    45   ETH  H1   HGA30    0.090000        1.0080           0
     356 A    45   ETH  H2   HGA30    0.090000        1.0080           0
     357 A    45   ETH  H3   HGA30    0.090000        1.0080           0
     358 A    45   ETH  H4   HGA30    0.090000        1.0080           0
     359 A    45   ETH  H5   HGA30    0.090000        1.0080           0
     360 A    45   ETH  H6   HGA30    0.090000        1.0080           0
     361 A    46   ETH  C1   CG3310   -0.270000       12.0110           0
     362 A    46   ETH  C2   CG3310   -0.270000       12.0110           0
     363 A    46   ETH  H1   HGA30    0.090000        1.0080           0
     364 A    46   ETH  H2   HGA30    0.090000        1.0080           0
     365 A    46   ETH  H3   HGA30    0.090000        1.0080           0
     366 A    46   ETH  H4   HGA30    0.090000        1.0080           0
     367 A    46   ETH  H5   HGA30    0.090000        1.0080           0
     368 A    46   ETH  H6   HGA30    0.090000        1.0080           0
     369 A    47   ETH  C1   CG3310   -0.270000       12.0110           0
     370 A    47   ETH  C2   CG3310   -0.270000       12.0110           0
     371 A    47   ETH  H1   HGA30    0.090000        1.0080           0
     372 A    47   ETH  H2   HGA30    0.090000        1.0080           0
     373 A    47   ETH  H3   HGA30    0.090000        1.0080           0
     374 A    47   ETH  H4   HGA30    0.090000        1.0080           0
     375 A    47   ETH  H5   HGA30    0.090000        1.0080           0
     376 A    47   ETH  H6   HGA30    0.090000        1.0080           0
     377 A    48   ETH  C1   CG3310   -0.270000       12.0110           0
     378 A    48   ETH  C2   CG3310   -0.270000       12.0110           0
     379 A    48   ETH  H1   HGA30    0.090000        1.0080           0
     380 A    48   ETH  H2   HGA30    0.090000        1.0080           0
     381 A    48   ETH  H3   HGA30    0.090000        1.0080           0
     382 A    48   ETH  H4   HGA30    0.090000        1.0080           0
     383 A    48   ETH  H5   HGA30    0.090000        1.0080           0
     384 A    48   ETH  H6   HGA30    0.090000        1.0080           0
     385 A    49   ETH  C1   CG3310   -0.270000       12.0110           0
     386 A    49   ETH  C2   CG3310   -0.270000       12.0110           0
     387 A    49   ETH  H1   HGA30    0.090000        1.0080           0
     388 A    49   ETH  H2   HGA30    0.090000        1.0080           0
     389 A    49   ETH  H3   HGA30    0.090000        1.0080           0
     390 A    49   ETH  H4   HGA30    0.090000        1.0080           0
     391 A    49   ETH  H5   HGA30    0.090000        1.0080           0
     392 A    49   ETH  H6   HGA30    0.090000        1.0080           0
     393 A    50   ETH  C1   CG3310   -0.270000       12.0110           0
     394 A    50   ETH  C2   CG3310   -0.270000       12.0110           0
     395 A    50   ETH  H1   HGA30    0.090000        1.0080           0
     396 A    50   ETH  H2   HGA30    0.090000        1.0080           0
     397 A    50   ETH  H3   HGA30    0.090000        1.0080           0
     398 A    50   ETH  H4   HGA30    0.090000        1.0080           0
     399 A    50   ETH  H5   HGA30    0.090000        1.0080           0
     400 A    50   ETH  H6   HGA30    0.090000        1.0080           0
     401 A    51   ETH  C1   CG3310   -0.270000       12.0110           0
     402 A    51   ETH  C2   CG3310   -0.270000       12.0110           0
     403 A    51   ETH  H1   HGA30    0.090000        1.0080           0
     404 A    51   ETH  H2   HGA30    0.090000        1.0080           0
     405 A    51   ETH  H3   HGA30    0.090000        1.0080           0
     406 A    51   ETH  H4   HGA30    0.090000        1.0080           0
     407 A    51   ETH  H5   HGA30    0.090000        1.0080           0
     408 A    51   ETH  H6   HGA30    0.090000        1.0080           0
     409 A    52   ETH  C1   CG3310   -0.270000       12.0110           0
     410 A    52   ETH  C2   CG3310   -0.270000       12.0110           0
     411 A    52   ETH  H1   HGA30    0.090000        1.0080           0
     412 A    52   ETH  H2   HGA30    0.090000        1.0080           0
     413 A    52   ETH  H3   HGA30    0.090000        1.0080           0
     414 A    52   ETH  H4   HGA30    0.090000        1.0080           0
     415 A    52   ETH  H5   HGA30    0.090000        1.0080           0
     416 A    52   ETH  H6   HGA30    0.090000        1.0080           0
     417 A    53   ETH  C1   CG3310   -0.270000       12.0110           0
     418 A    53   ETH  C2   CG3310   -0.270000       12.0110           0
     419 A    53   ETH  H1   HGA30    0.090000        1.0080           0
     420 A    53   ETH  H2   HGA30    0.090000        1.0080           0
     421 A    53   ETH  H3   HGA30    0.090000        1.0080           0
     422 A    53   ETH  H4   HGA30    0.090000        1.0080           0
     423 A    53   ETH  H5   HGA30    0.090000        1.0080           0
     424 A    53   ETH  H6   HGA30    0.090000        1.0080           0
     425 A    54   ETH  C1   CG3310   -0.270000       12.0110           0
     426 A    54   ETH  C2   CG3310   -0.270000       12.0110           0
     427 A    54   ETH  H1   HGA30    0.090000        1.0080           0
     428 A    54   ETH  H2   HGA30    0.090000        1.0080           0
     429 A    54   ETH  H3   HGA30    0.090000        1.0080           0
     430 A    54   ETH  H4   HGA30    0.090000        1.0080           0
     431 A    54   ETH  H5   HGA30    0.090000        1.0080           0
     432 A    54   ETH  H6   HGA30    0.090000        1.0080           0
     433 A    55   ETH  C1   CG3310   -0.270000       12.0110           0
     434 A    55   ETH  C2   CG3310   -0.270000       12.0110           0
     435 A    55   ETH  H1   HGA30    0.090000        1.0080           0
     436 A    55   ETH  H2   HGA30    0.090000        1.0080           0
     437 A    55   ETH  H3   HGA30    0.090000        1.0080           0
     438 A    55   ETH  H4   HGA30    0.090000        1.0080           0
     439 A    55   ETH  H5   HGA30    0.090000        1.0080           0
     440 A    55   ETH  H6   HGA30    0.090000        1.0080           0
     441 A    56   ETH  C1   CG3310   -0.270000       12.0110           0
     442 A    56   ETH  C2   CG3310   -0.270000       12.0110           0
     443 A    56   ETH  H1   HGA30    0.090000        1.0080           0
     444 A    56   ETH  H2   HGA30    0.090000        1.0080           0
     445 A    56   ETH  H3   HGA30    0.090000        1.0080           0
     446 A    56   ETH  H4   HGA30    0.090000        1.0080           0
     447 A    56   ETH  H5   HGA30    0.090000        1.0080           0
     448 A    56   ETH  H6   HGA30    0.090000        1.0080           0
     449 A    57   ETH  C1   CG3310   -0.270000       12.0110           0
     450 A    57   ETH  C2   CG3310   -0.270000       12.0110           0
     451 A    57   ETH  H1   HGA30    0.090000        1.0080           0
     452 A    57   ETH  H2   HGA30    0.090000        1.0080           0
     453 A    57   ETH  H3   HGA30    0.090000        1.0080           0
     454 A    57   ETH  H4   HGA30    0.090000        1.0080           0
     455 A    57   ETH  H5   HGA30    0.090000        1.0080           0
     456 A    57   ETH  H6   HGA30    0.090000        1.0080           0
     457 A    58   ETH  C1   CG3310   -0.270000       12.0110           0
     458 A    58   ETH  C2   CG3310   -0.270000       12.0110           0
     459 A    58   ETH  H1   HGA30    0.090000        1.0080           0
     460 A    58   ETH  H2   HGA30    0.090000        1.0080           0
     461 A    58   ETH  H3   HGA30    0.090000        1.0080           0
     462 A    58   ETH  H4   HGA30    0.090000        1.0080           0
     463 A    58   ETH  H5   HGA30    0.090000        1.0080           0
     464 A    58   ETH  H6   HGA30    0.090000        1.0080           0
     465 A    59   ETH  C1   CG3310   -0.270000       12.0110           0
     466 A    59   ETH  C2   CG3310   -0.270000       12.0110           0
     467 A    59   ETH  H1   HGA30    0.090000        1.0080           0
     468 A    59   ETH  H2   HGA30    0.090000        1.0080           0
     469 A    59   ETH  H3   HGA30    0.090000        1.0080           0
     470 A    59   ETH  H4   HGA30    0.090000        1.0080           0
     471 A    59   ETH  H5   HGA30    0.090000        1.0080           0
     472 A    59   ETH  H6   HGA30    0.090000        1.0080           0
     473 A    60   ETH  C1   CG3310   -0.270000       12.0110           0
     474 A    60   ETH  C2   CG3310   -0.270000       12.0110           0
     475 A    60   ETH  H1   HGA30    0.090000        1.0080           0
     476 A    60   ETH  H2   HGA30    0.090000        1.0080           0
     477 A    60   ETH  H3   HGA30    0.090000        1.0080           0
     478 A    60   ETH  H4   HGA30    0.090000        1.0080           0
     479 A    60   ETH  H5   HGA30    0.090000        1.0080           0
     480 A    60   ETH  H6   HGA30    0.090000        1.0080           0
     481 A    61   ETH  C1   CG3310   -0.270000       12.0110           0
     482 A    61   ETH  C2   CG3310   -0.270000       12.0110           0
     483 A    61   ETH  H1   HGA30    0.090000        1.0080           0
     484 A    61   ETH  H2   HGA30    0.090000        1.0080           0
     485 A    61   ETH  H3   HGA30    0.090000        1.0080           0
     486 A    61   ETH  H4   HGA30    0.090000        1.0080           0
     487 A    61   ETH  H5   HGA30    0.090000        1.0080           0
     488 A    61   ETH  H6   HGA30    0.090000        1.0080           0
     489 A    62   ETH  C1   CG3310   -0.270000       12.0110           0
     490 A    62   ETH  C2   CG3310   -0.270000       12.0110           0
     491 A    62   ETH  H1   HGA30    0.090000        1.0080           0
     492 A    62   ETH  H2   HGA30    0.090000        1.0080           0
     493 A    62   ETH  H3   HGA30    0.090000        1.0080           0
     494 A    62   ETH  H4   HGA30    0.090000        1.0080           0
     495 A    62   ETH  H5   HGA30    0.090000        1.0080           0
     496 A    62   ETH  H6   HGA30    0.090000        1.0080           0
     497 A    63   ETH  C1   CG3310   -0.270000       12.0110           0
     498 A    63   ETH  C2   CG3310   -0.270000       12.0110           0
     499 A    63   ETH  H1   HGA30    0.090000        1.0080           0
     500 A    63   ETH  H2   HGA30    0.090000        1.0080           0
     501 A    63   ETH  H3   HGA30    0.090000        1.0080           0
     502 A    63   ETH  H4   HGA30    0.090000        1.0080           0
     503 A    63   ETH  H5   HGA30    0.090000        1.0080           0
     504 A    63   ETH  H6   HGA30    0.090000        1.0080           0
     505 A    64   ETH  C1   CG3310   -0.270000       12.0110           0
     506 A    64   ETH  C2   CG3310   -0.270000       12.0110           0
     507 A    64   ETH  H1   HGA30    0.090000        1.0080           0
     508 A    64   ETH  H2   HGA30    0.090000        1.0080           0
     509 A    64   ETH  H3   HGA30    0.090000        1.0080           0
     510 A    64   ETH  H4   HGA30    0.090000        1.0080           0
     511 A    64   ETH  H5   HGA30    0.090000        1.0080           0
     512 A    64   ETH  H6   HGA30    0.090000        1.0080           0
     513 A    65   ETH  C1   CG3310   -0.270000       12.0110           0
     514 A    65   ETH  C2   CG3310   -0.270000       12.0110           0
     515 A    65   ETH  H1   HGA30    0.090000        1.0080           0
     516 A    65   ETH  H2   HGA30    0.090000        1.0080           0
     517 A    65   ETH  H3   HGA30    0.090000        1.0080           0
     518 A    65   ETH  H4   HGA30    0.090000        1.0080           0
     519 A    65   ETH  H5   HGA30    0.090000        1.0080           0
     520 A    65   ETH  H6   HGA30    0.090000        1.0080           0
     521 A    66   ETH  C1   CG3310   -0.270000       12.0110           0
     522 A    66   ETH  C2   CG3310   -0.270000       12.0110           0
     523 A    66   ETH  H1   HGA30    0.090000        1.0080           0
     524 A    66   ETH  H2   HGA30    0.090000        1.0080           0
     525 A    66   ETH  H3   HGA30    0.090000        1.0080           0
     526 A    66   ETH  H4   HGA30    0.090000        1.0080           0
     527 A    66   ETH  H5   HGA30    0.090000        1.0080           0
     528 A    66   ETH  H6   HGA30    0.090000        1.0080           0
     529 A    67   ETH  C1   CG3310   -0.270000       12.0110           0
     530 A    67   ETH  C2   CG3310   -0.270000       12.0110           0
     531 A    67   ETH  H1   HGA30    0.090000        1.0080           0
     532 A    67   ETH  H2   HGA30    0.090000        1.0080           0
     533 A    67   ETH  H3   HGA30    0.090000        1.0080           0
     534 A    67   ETH  H4   HGA30    0.090000        1.0080           0
     535 A    67   ETH  H5   HGA30    0.090000        1.0080           0
     536 A    67   ETH  H6   HGA30    0.090000        1.0080           0
     537 A    68   ETH  C1   CG3310   -0.270000       12.0110           0
     538 A    68   ETH  C2   CG3310   -0.270000       12.0110           0
     539 A    68   ETH  H1   HGA30    0.090000        1.0080           0
     540 A    68   ETH  H2   HGA30    0.090000        1.0080           0
     541 A    68   ETH  H3   HGA30    0.090000        1.0080           0
     542 A    68   ETH  H4   HGA30    0.090000        1.0080           0
     543 A    68   ETH  H5   HGA30    0.090000        1.0080           0
     544 A    68   ETH  H6   HGA30    0.090000        1.0080           0
     545 A    69   ETH  C1   CG3310   -0.270000       12.0110           0
     546 A    69   ETH  C2   CG3310   -0.270000       12.0110           0
     547 A    69   ETH  H1   HGA30    0.090000        1.0080           0
     548 A    69   ETH  H2   HGA30    0.090000        1.0080           0
     549 A    69   ETH  H3   HGA30    0.090000        1.0080           0
     550 A    69   ETH  H4   HGA30    0.090000        1.0080           0
     551 A    69   ETH  H5   HGA30    0.090000        1.0080           0
     552 A    69   ETH  H6   HGA30    0.090000        1.0080           0
     553 A    70   ETH  C1   CG3310   -0.270000       12.0110           0
     554 A    70   ETH  C2   CG3310   -0.270000       12.0110           0
     555 A    70   ETH  H1   HGA30    0.090000        1.0080           0
     556 A    70   ETH  H2   HGA30    0.090000        1.0080           0
     557 A    70   ETH  H3   HGA30    0.090000        1.0080           0
     558 A    70   ETH  H4   HGA30    0.090000        1.0080           0
     559 A    70   ETH  H5   HGA30    0.090000        1.0080           0
     560 A    70   ETH  H6   HGA30    0.090000        1.0080           0
     561 A    71   ETH  C1   CG3310   -0.270000       12.0110           0
     562 A    71   ETH  C2   CG3310   -0.270000       12.0110           0
     563 A    71   ETH  H1   HGA30    0.090000        1.0080           0
     564 A    71   ETH  H2   HGA30    0.090000        1.0080           0
     565 A    71   ETH  H3   HGA30    0.090000        1.0080           0
     566 A    71   ETH  H4   HGA30    0.090000        1.0080           0
     567 A    71   ETH  H5   HGA30    0.090000        1.0080           0
     568 A    71   ETH  H6   HGA30    0.090000        1.0080           0
     569 A    72   ETH  C1   CG3310   -0.270000       12.0110           0
     570 A    72   ETH  C2   CG3310   -0.270000       12.0110           0
     571 A    72   ETH  H1   HGA30    0.090000        1.0080           0
     572 A    72   ETH  H2   HGA30    0.090000        1.0080           0
     573 A    72   ETH  H3   HGA30    0.090000        1.0080           0
     574 A    72   ETH  H4   HGA30    0.090000        1.0080           0
     575 A    72   ETH  H5   HGA30    0.090000        1.0080           0
     576 A    72   ETH  H6   HGA30    0.090000        1.0080           0
     577 A    73   ETH  C1   CG3310   -0.270000       12.0110           0
     578 A    73   ETH  C2   CG3310   -0.270000       12.0110           0
     579 A    73   ETH  H1   HGA30    0.090000        1.0080           0
     580 A    73   ETH  H2   HGA30    0.090000        1.0080           0
     581 A    73   ETH  H3   HGA30    0.090000        1.0080           0
     582 A    73   ETH  H4   HGA30    0.090000        1.0080           0
     583 A    73   ETH  H5   HGA30    0.090000        1.0080           0
     584 A    73   ETH  H6   HGA30    0.090000        1.0080           0
     585 A    74   ETH  C1   CG3310   -0.270000       12.0110           0
     586 A    74   ETH  C2   CG3310   -0.270000       12.0110           0
     587 A    74   ETH  H1   HGA30    0.090000        1.0080           0
     588 A    74   ETH  H2   HGA30    0.090000        1.0080           0
     589 A    74   ETH  H3   HGA30    0.090000        1.0080           0
     590 A    74   ETH  H4   HGA30    0.090000        1.0080           0
     591 A    74   ETH  H5   HGA30    0.090000        1.0080           0
     592 A    74   ETH  H6   HGA30    0.090000        1.0080           0
     593 A    75   ETH  C1   CG3310   -0.270000       12.0110           0
     594 A    75   ETH  C2   CG3310   -0.270000       12.0110           0
     595 A    75   ETH  H1   HGA30    0.090000        1.0080           0
     596 A    75   ETH  H2   HGA30    0.090000        1.0080           0
     597 A    75   ETH  H3   HGA30    0.090000        1.0080           0
     598 A    75   ETH  H4   HGA30    0.090000        1.0080           0
     599 A    75   ETH  H5   HGA30    0.090000        1.0080           0
     600 A    75   ETH  H6   HGA30    0.090000        1.0080           0
     601 A    76   ETH  C1   CG3310   -0.270000       12.0110           0
     602 A    76   ETH  C2   CG3310   -0.270000       12.0110           0
     603 A    76   ETH  H1   HGA30    0.090000        1.0080           0
     604 A    76   ETH  H2   HGA30    0.090000        1.0080           0
     605 A    76   ETH  H3   HGA30    0.090000        1.0080           0
     606 A    76   ETH  H4   HGA30    0.090000        1.0080           0
     607 A    76   ETH  H5   HGA30    0.090000        1.0080           0
     608 A    76   ETH  H6   HGA30    0.090000        1.0080           0
     609 A    77   ETH  C1   CG3310   -0.270000       12.0110           0
     610 A    77   ETH  C2   CG3310   -0.270000       12.0110           0
     611 A    77   ETH  H1   HGA30    0.090000        1.0080           0
     612 A    77   ETH  H2   HGA30    0.090000        1.0080           0
     613 A    77   ETH  H3   HGA30    0.090000        1.0080           0
     614 A    77   ETH  H4   HGA30    0.090000        1.0080           0
     615 A    77   ETH  H5   HGA30    0.090000        1.0080           0
     616 A    77   ETH  H6   HGA30    0.090000        1.0080           0
     617 A    78   ETH  C1   CG3310   -0.270000       12.0110           0
     618 A    78   ETH  C2   CG3310   -0.270000       12.0110           0
     619 A    78   ETH  H1   HGA30    0.090000        1.0080           0
     620 A    78   ETH  H2   HGA30    0.090000        1.0080           0
     621 A    78   ETH  H3   HGA30    0.090000        1.0080           0
     622 A    78   ETH  H4   HGA30    0.090000        1.0080           0
     623 A    78   ETH  H5   HGA30    0.090000        1.0080           0
     624 A    78   ETH  H6   HGA30    0.090000        1.0080           0
     625 A    79   ETH  C1   CG3310   -0.270000       12.0110           0
     626 A    79   ETH  C2   CG3310   -0.270000       12.0110           0
     627 A    79   ETH  H1   HGA30    0.090000        1.0080           0
     628 A    79   ETH  H2   HGA30    0.090000        1.0080           0
     629 A    79   ETH  H3   HGA30    0.090000        1.0080           0
     630 A    79   ETH  H4   HGA30    0.090000        1.0080           0
     631 A    79   ETH  H5   HGA30    0.090000        1.0080           0
     632 A    79   ETH  H6   HGA30    0.090000        1.0080           0
     633 A    80   ETH  C1   CG3310   -0.270000       12.0110           0
     634 A    80   ETH  C2   CG3310   -0.270000       12.0110           0
     635 A    80   ETH  H1   HGA30    0.090000        1.0080           0
     636 A    80   ETH  H2   HGA30    0.090000        1.0080           0
     637 A    80   ETH  H3   HGA30    0.090000        1.0080           0
     638 A    80   ETH  H4   HGA30    0.090000        1.0080           0
     639 A    80   ETH  H5   HGA30    0.090000        1.0080           0
     640 A    80   ETH  H6   HGA30    0.090000        1.0080           0
     641 A    81   ETH  C1   CG3310   -0.270000       12.0110           0
     642 A    81   ETH  C2   CG3310   -0.270000       12.0110           0
     643 A    81   ETH  H1   HGA30    0.090000        1.0080           0
     644 A    81   ETH  H2   HGA30    0.090000        1.0080           0
     645 A    81   ETH  H3   HGA30    0.090000        1.0080           0
     646 A    81   ETH  H4   HGA30    0.090000        1.0080           0
     647 A    81   ETH  H5   HGA30    0.090000        1.0080           0
     648 A    81   ETH  H6   HGA30    0.090000        1.0080           0
     649 A    82   ETH  C1   CG3310   -0.270000       12.0110           0
     650 A    82   ETH  C2   CG3310   -0.270000       12.0110           0
     651 A    82   ETH  H1   HGA30    0.090000        1.0080           0
     652 A    82   ETH  H2   HGA30    0.090000        1.0080           0
     653 A    82   ETH  H3   HGA30    0.090000        1.0080           0
     654 A    82   ETH  H4   HGA30    0.090000        1.0080           0
     655 A    82   ETH  H5   HGA30    0.090000        1.0080           0
     656 A    82   ETH  H6   HGA30    0.090000        1.0080           0
     657 A    83   ETH  C1   CG3310   -0.270000       12.0110           0
     658 A    83   ETH  C2   CG3310   -0.270000       12.0110           0
     659 A    83   ETH  H1   HGA30    0.090000        1.0080           0
     660 A    83   ETH  H2   HGA30    0.090000        1.0080           0
     661 A    83   ETH  H3   HGA30    0.090000        1.0080           0
     662 A    83   ETH  H4   HGA30    0.090000        1.0080           0
     663 A    83   ETH  H5   HGA30    0.090000        1.0080           0
     664 A    83   ETH  H6   HGA30    0.090000        1.0080           0
     665 A    84   ETH  C1   CG3310   -0.270000       12.0110           0
     666 A    84   ETH  C2   CG3310   -0.270000       12.0110           0
     667 A    84   ETH  H1   HGA30    0.090000        1.0080           0
     668 A    84   ETH  H2   HGA30    0.090000        1.0080           0
     669 A    84   ETH  H3   HGA30    0.090000        1.0080           0
     670 A    84   ETH  H4   HGA30    0.090000        1.0080           0
     671 A    84   ETH  H5   HGA30    0.090000        1.0080           0
     672 A    84   ETH  H6   HGA30    0.090000        1.0080           0
     673 A    85   ETH  C1   CG3310   -0.270000       12.0110           0
     674 A    85   ETH  C2   CG3310   -0.270000       12.0110           0
     675 A    85   ETH  H1   HGA30    0.090000        1.0080           0
     676 A    85   ETH  H2   HGA30    0.090000        1.0080           0
     677 A    85   ETH  H3   HGA30    0.090000        1.0080           0
     678 A    85   ETH  H4   HGA30    0.090000        1.0080           0
     679 A    85   ETH  H5   HGA30    0.090000        1.0080           0
     680 A    85   ETH  H6   HGA30    0.090000        1.0080           0
     681 A    86   ETH  C1   CG3310   -0.270000       12.0110           0
     682 A    86   ETH  C2   CG3310   -0.270000       12.0110           0
     683 A    86   ETH  H1   HGA30    0.090000        1.0080           0
     684 A    86   ETH  H2   HGA30    0.090000        1.0080           0
     685 A    86   ETH  H3   HGA30    0.090000        1.0080           0
     686 A    86   ETH  H4   HGA30    0.090000        1.0080           0
     687 A    86   ETH  H5   HGA30    0.090000        1.0080           0
     688 A    86   ETH  H6   HGA30    0.090000        1.0080           0
     689 A    87   ETH  C1   CG3310   -0.270000       12.0110           0
     690 A    87   ETH  C2   CG3310   -0.270000       12.0110           0
     691 A    87   ETH  H1   HGA30    0.090000        1.0080           0
     692 A    87   ETH  H2   HGA30    0.090000        1.0080           0
     693 A    87   ETH  H3   HGA30    0.090000        1.0080           0
     694 A    87   ETH  H4   HGA30    0.090000        1.0080           0
     695 A    87   ETH  H5   HGA30    0.090000        1.0080           0
     696 A    87   ETH  H6   HGA30    0.090000        1.0080           0
     697 A    88   ETH  C1   CG3310   -0.270000       12.0110           0
     698 A    88   ETH  C2   CG3310   -0.270000       12.0110           0
     699 A    88   ETH  H1   HGA30    0.090000        1.0080           0
     700 A    88   ETH  H2   HGA30    0.090000        1.0080           0
     701 A    88   ETH  H3   HGA30    0.090000        1.0080           0
     702 A    88   ETH  H4   HGA30    0.090000        1.0080           0
     703 A    88   ETH  H5   HGA30    0.090000        1.0080           0
     704 A    88   ETH  H6   HGA30    0.090000        1.0080           0
     705 A    89   ETH  C1   CG3310   -0.270000       12.0110           0
     706 A    89   ETH  C2   CG3310   -0.270000       12.0110           0
     707 A    89   ETH  H1   HGA30    0.090000        1.0080           0
     708 A    89   ETH  H2   HGA30    0.090000        1.0080           0
     709 A    89   ETH  H3   HGA30    0.090000        1.0080           0
     710 A    89   ETH  H4   HGA30    0.090000        1.0080           0
     711 A    89   ETH  H5   HGA30    0.090000        1.0080           0
     712 A    89   ETH  H6   HGA30    0.090000        1.0080           0
     713 A    90   ETH  C1   CG3310   -0.270000       12.0110           0
     714 A    90   ETH  C2   CG3310   -0.270000       12.0110           0
     715 A    90   ETH  H1   HGA30    0.090000        1.0080           0
     716 A    90   ETH  H2   HGA30    0.090000        1.0080           0
     717 A    90   ETH  H3   HGA30    0.090000        1.0080           0
     718 A    90   ETH  H4   HGA30    0.090000        1.0080           0
     719 A    90   ETH  H5   HGA30    0.090000        1.0080           0
     720 A    90   ETH  H6   HGA30    0.090000        1.0080           0
     721 A    91   ETH  C1   CG3310   -0.270000       12.0110           0
     722 A    91   ETH  C2   CG3310   -0.270000       12.0110           0
     723 A    91   ETH  H1   HGA30    0.090000        1.0080           0
     724 A    91   ETH  H2   HGA30    0.090000        1.0080           0
     725 A    91   ETH  H3   HGA30    0.090000        1.0080           0
     726 A    91   ETH  H4   HGA30    0.090000        1.0080           0
     727 A    91   ETH  H5   HGA30    0.090000        1.0080           0
     728 A    91   ETH  H6   HGA30    0.090000        1.0080           0
     729 A    92   ETH  C1   CG3310   -0.270000       12.0110           0
     730 A    92   ETH  C2   CG3310   -0.270000       12.0110           0
     731 A    92   ETH  H1   HGA30    0.090000        1.0080           0
     732 A    92   ETH  H2   HGA30    0.090000        1.0080           0
     733 A    92   ETH  H3   HGA30    0.090000        1.0080           0
     734 A    92   ETH  H4   HGA30    0.090000        1.0080           0
     735 A    92   ETH  H5   HGA30    0.090000        1.0080           0
     736 A    92   ETH  H6   HGA30    0.090000        1.0080           0
     737 A    93   ETH  C1   CG3310   -0.270000       12.0110           0
     738 A    93   ETH  C2   CG3310   -0.270000       12.0110           0
     739 A    93   ETH  H1   HGA30    0.090000        1.0080           0
     740 A    93   ETH  H2   HGA30    0.090000        1.0080           0
     741 A    93   ETH  H3   HGA30    0.090000        1.0080           0
     742 A    93   ETH  H4   HGA30    0.090000        1.0080           0
     743 A    93   ETH  H5   HGA30    0.090000        1.0080           0
     744 A    93   ETH  H6   HGA30    0.090000        1.0080           0
     745 A    94   ETH  C1   CG3310   -0.270000       12.0110           0
     746 A    94   ETH  C2   CG3310   -0.270000       12.0110           0
     747 A    94   ETH  H1   HGA30    0.090000        1.0080           0
     748 A    94   ETH  H2   HGA30    0.090000        1.0080           0
     749 A    94   ETH  H3   HGA30    0.090000        1.0080           0
     750 A    94   ETH  H4   HGA30    0.090000        1.0080           0
     751 A    94   ETH  H5   HGA30    0.090000        1.0080           0
     752 A    94   ETH  H6   HGA30    0.090000        1.0080           0
     753 A    95   ETH  C1   CG3310   -0.270000       12.0110           0
     754 A    95   ETH  C2   CG3310   -0.270000       12.0110           0
     755 A    95   ETH  H1   HGA30    0.090000        1.0080           0
     756 A    95   ETH  H2   HGA30    0.090000        1.0080           0
     757 A    95   ETH  H3   HGA30    0.090000        1.0080           0
     758 A    95   ETH  H4   HGA30    0.090000        1.0080           0
     759 A    95   ETH  H5   HGA30    0.090000        1.0080           0
     760 A    95   ETH  H6   HGA30    0.090000        1.0080           0
     761 A    96   ETH  C1   CG3310   -0.270000       12.0110           0
     762 A    96   ETH  C2   CG3310   -0.270000       12.0110           0
     763 A    96   ETH  H1   HGA30    0.090000        1.0080           0
     764 A    96   ETH  H2   HGA30    0.090000        1.0080           0
     765 A    96   ETH  H3   HGA30    0.090000        1.0080           0
     766 A    96   ETH  H4   HGA30    0.090000        1.0080           0
     767 A    96   ETH  H5   HGA30    0.090000        1.0080           0
     768 A    96   ETH  H6   HGA30    0.090000        1.0080           0
     769 A    97   ETH  C1   CG3310   -0.270000       12.0110           0
     770 A    97   ETH  C2   CG3310   -0.270000       12.0110           0
     771 A    97   ETH  H1   HGA30    0.090000        1.0080           0
     772 A    97   ETH  H2   HGA30    0.090000        1.0080           0
     773 A    97   ETH  H3   HGA30    0.090000        1.0080           0
     774 A    97   ETH  H4   HGA30    0.090000        1.0080           0
     775 A    97   ETH  H5   HGA30    0.090000        1.0080           0
     776 A    97   ETH  H6   HGA30    0.090000        1.0080           0
     777 A    98   ETH  C1   CG3310   -0.270000       12.0110           0
     778 A    98   ETH  C2   CG3310   -0.270000       12.0110           0
     779 A    98   ETH  H1   HGA30    0.090000        1.0080           0
     780 A    98   ETH  H2   HGA30    0.090000        1.0080           0
     781 A    98   ETH  H3   HGA30    0.090000        1.0080           0
     782 A    98   ETH  H4   HGA30    0.090000        1.0080           0
     783 A    98   ETH  H5   HGA30    0.090000        1.0080           0
     784 A    98   ETH  H6   HGA30    0.090000        1.0080           0
     785 A    99   ETH  C1   CG3310   -0.270000       12.0110           0
     786 A    99   ETH  C2   CG3310   -0.270000       12.0110           0
     787 A    99   ETH  H1   HGA30    0.090000        1.0080           0
     788 A    99   ETH  H2   HGA30    0.090000        1.0080           0
     789 A    99   ETH  H3   HGA30    0.090000        1.0080           0
     790 A    99   ETH  H4   HGA30    0.090000        1.0080           0
     791 A    99   ETH  H5   HGA30    0.090000        1.0080           0
     792 A    99   ETH  H6   HGA30    0.090000        1.0080           0
     793 A    100  ETH  C1   CG3310   -0.270000       12.0110           0
     794 A    100  ETH  C2   CG3310   -0.270000       12.0110           0
     795 A    100  ETH  H1   HGA30    0.090000        1.0080           0
     796 A    100  ETH  H2   HGA30    0.090000        1.0080           0
     797 A    100  ETH  H3   HGA30    0.090000        1.0080           0
     798 A    100  ETH  H4   HGA30    0.090000        1.0080           0
     799 A    100  ETH  H5   HGA30    0.090000        1.0080           0
     800 A    100  ETH  H6   HGA30    0.090000        1.0080           0
     801 A    101  ETH  C1   CG3310   -0.270000       12.0110           0
     802 A    101  ETH  C2   CG3310   -0.270000       12.0110           0
     803 A    101  ETH  H1   HGA30    0.090000        1.0080           0
     804 A    101  ETH  H2   HGA30    0.090000        1.0080           0
     805 A    101  ETH  H3   HGA30    0.090000        1.0080           0
     806 A    101  ETH  H4   HGA30    0.090000        1.0080           0
     807 A    101  ETH  H5   HGA30    0.090000        1.0080           0
     808 A    101  ETH  H6   HGA30    0.090000        1.0080           0
     809 A    102  ETH  C1   CG3310   -0.270000       12.0110           0
     810 A    102  ETH  C2   CG3310   -0.270000       12.0110           0
     811 A    102  ETH  H1   HGA30    0.090000        1.0080           0
     812 A    102  ETH  H2   HGA30    0.090000        1.0080           0
     813 A    102  ETH  H3   HGA30    0.090000        1.0080           0
     814 A    102  ETH  H4   HGA30    0.090000        1.0080           0
     815 A    102  ETH  H5   HGA30    0.090000        1.0080           0
     816 A    102  ETH  H6   HGA30    0.090000        1.0080           0
     817 A    103  ETH  C1   CG3310   -0.270000       12.0110           0
     818 A    103  ETH  C2   CG3310   -0.270000       12.0110           0
     819 A    103  ETH  H1   HGA30    0.090000        1.0080           0
     820 A    103  ETH  H2   HGA30    0.090000        1.0080           0
     821 A    103  ETH  H3   HGA30    0.090000        1.0080           0
     822 A    103  ETH  H4   HGA30    0.090000        1.0080           0
     823 A    103  ETH  H5   HGA30    0.090000        1.0080           0
     824 A    103  ETH  H6   HGA30    0.090000        1.0080           0
     825 A    104  ETH  C1   CG3310   -0.270000       12.0110           0
     826 A    104  ETH  C2   CG3310   -0.270000       12.0110           0
     827 A    104  ETH  H1   HGA30    0.090000        1.0080           0
     828 A    104  ETH  H2   HGA30    0.090000        1.0080           0
     829 A    104  ETH  H3   HGA30    0.090000        1.0080           0
     830 A    104  ETH  H4   HGA30    0.090000        1.0080           0
     831 A    104  ETH  H5   HGA30    0.090000        1.0080           0
     832 A    104  ETH  H6   HGA30    0.090000        1.0080           0
     833 A    105  ETH  C1   CG3310   -0.270000       12.0110           0
     834 A    105  ETH  C2   CG3310   -0.270000       12.0110           0
     835 A    105  ETH  H1   HGA30    0.090000        1.0080           0
     836 A    105  ETH  H2   HGA30    0.090000        1.0080           0
     837 A    105  ETH  H3   HGA30    0.090000        1.0080           0
     838 A    105  ETH  H4   HGA30    0.090000        1.0080           0
     839 A    105  ETH  H5   HGA30    0.090000        1.0080           0
     840 A    105  ETH  H6   HGA30    0.090000        1.0080           0
     841 A    106  ETH  C1   CG3310   -0.270000       12.0110           0
     842 A    106  ETH  C2   CG3310   -0.270000       12.0110           0
     843 A    106  ETH  H1   HGA30    0.090000        1.0080           0
     844 A    106  ETH  H2   HGA30    0.090000        1.0080           0
     845 A    106  ETH  H3   HGA30    0.090000        1.0080           0
     846 A    106  ETH  H4   HGA30    0.090000        1.0080           0
     847 A    106  ETH  H5   HGA30    0.090000        1.0080           0
     848 A    106  ETH  H6   HGA30    0.090000        1.0080           0
     849 A    107  ETH  C1   CG3310   -0.270000       12.0110           0
     850 A    107  ETH  C2   CG3310   -0.270000       12.0110           0
     851 A    107  ETH  H1   HGA30    0.090000        1.0080           0
     852 A    107  ETH  H2   HGA30    0.090000        1.0080           0
     853 A    107  ETH  H3   HGA30    0.090000        1.0080           0
     854 A    107  ETH  H4   HGA30    0.090000        1.0080           0
     855 A    107  ETH  H5   HGA30    0.090000        1.0080           0
     856 A    107  ETH  H6   HGA30    0.090000        1.0080           0
     857 A    108  ETH  C1   CG3310   -0.270000       12.0110           0
     858 A    108  ETH  C2   CG3310   -0.270000       12.0110           0
     859 A    108  ETH  H1   HGA30    0.090000        1.0080           0
     860 A    108  ETH  H2   HGA30    0.090000        1.0080           0
     861 A    108  ETH  H3   HGA30    0.090000        1.0080           0
     862 A    108  ETH  H4   HGA30    0.090000        1.0080           0
     863 A    108  ETH  H5   HGA30    0.090000        1.0080           0
     864 A    108  ETH  H6   HGA30    0.090000        1.0080           0
     865 A    109  ETH  C1   CG3310   -0.270000       12.0110           0
     866 A    109  ETH  C2   CG3310   -0.270000       12.0110           0
     867 A    109  ETH  H1   HGA30    0.090000        1.0080           0
     868 A    109  ETH  H2   HGA30    0.090000        1.0080           0
     869 A    109  ETH  H3   HGA30    0.090000        1.0080           0
     870 A    109  ETH  H4   HGA30    0.090000        1.0080           0
     871 A    109  ETH  H5   HGA30    0.090000        1.0080           0
     872 A    109  ETH  H6   HGA30    0.090000        1.0080           0
     873 A    110  ETH  C1   CG3310   -0.270000       12.0110           0
     874 A    110  ETH  C2   CG3310   -0.270000       12.0110           0
     875 A    110  ETH  H1   HGA30    0.090000        1.0080           0
     876 A    110  ETH  H2   HGA30    0.090000        1.0080           0
     877 A    110  ETH  H3   HGA30    0.090000        1.0080           0
     878 A    110  ETH  H4   HGA30    0.090000        1.0080           0
     879 A    110  ETH  H5   HGA30    0.090000        1.0080           0
     880 A    110  ETH  H6   HGA30    0.090000        1.0080           0
     881 A    111  ETH  C1   CG3310   -0.270000       12.0110           0
     882 A    111  ETH  C2   CG3310   -0.270000       12.0110           0
     883 A    111  ETH  H1   HGA30    0.090000        1.0080           0
     884 A    111  ETH  H2   HGA30    0.090000        1.0080           0
     885 A    111  ETH  H3   HGA30    0.090000        1.0080           0
     886 A    111  ETH  H4   HGA30    0.090000        1.0080           0
     887 A    111  ETH  H5   HGA30    0.090000        1.0080           0
     888 A    111  ETH  H6   HGA30    0.090000        1.0080           0
     889 A    112  ETH  C1   CG3310   -0.270000       12.0110           0
     890 A    112  ETH  C2   CG3310   -0.270000       12.0110           0
     891 A    112  ETH  H1   HGA30    0.090000        1.0080           0
     892 A    112  ETH  H2   HGA30    0.090000        1.0080           0
     893 A    112  ETH  H3   HGA30    0.090000        1.0080           0
     894 A    112  ETH  H4   HGA30    0.090000        1.0080           0
     895 A    112  ETH  H5   HGA30    0.090000        1.0080           0
     896 A    112  ETH  H6   HGA30    0.090000        1.0080           0
     897 A    113  ETH  C1   CG3310   -0.270000       12.0110           0
     898 A    113  ETH  C2   CG3310   -0.270000       12.0110           0
     899 A    113  ETH  H1   HGA30    0.090000        1.0080           0
     900 A    113  ETH  H2   HGA30    0.090000        1.0080           0
     901 A    113  ETH  H3   HGA30    0.090000        1.0080           0
     902 A    113  ETH  H4   HGA30    0.090000        1.0080           0
     903 A    113  ETH  H5   HGA30    0.090000        1.0080           0
     904 A    113  ETH  H6   HGA30    0.090000        1.0080           0
     905 A    114  ETH  C1   CG3310   -0.270000       12.0110           0
     906 A    114  ETH  C2   CG3310   -0.270000       12.0110           0
     907 A    114  ETH  H1   HGA30    0.090000        1.0080           0
     908 A    114  ETH  H2   HGA30    0.090000        1.0080           0
     909 A    114  ETH  H3   HGA30    0.090000        1.0080           0
     910 A    114  ETH  H4   HGA30    0.090000        1.0080           0
     911 A    114  ETH  H5   HGA30    0.090000        1.0080           0
     912 A    114  ETH  H6   HGA30    0.090000        1.0080           0
     913 A    115  ETH  C1   CG3310   -0.270000       12.0110           0
     914 A    115  ETH  C2   CG3310   -0.270000       12.0110           0
     915 A    115  ETH  H1   HGA30    0.090000        1.0080           0
     916 A    115  ETH  H2   HGA30    0.090000        1.0080           0
     917 A    115  ETH  H3   HGA30    0.090000        1.0080           0
     918 A    115  ETH  H4   HGA30    0.090000        1.0080           0
     919 A    115  ETH  H5   HGA30    0.090000        1.0080           0
     920 A    115  ETH  H6   HGA30    0.090000        1.0080           0
     921 A    116  ETH  C1   CG3310   -0.270000       12.0110           0
     922 A    116  ETH  C2   CG3310   -0.270000       12.0110           0
     923 A    116  ETH  H1   HGA30    0.090000        1.0080           0
     924 A    116  ETH  H2   HGA30    0.090000        1.0080           0
     925 A    116  ETH  H3   HGA30    0.090000        1.0080           0
     926 A    116  ETH  H4   HGA30    0.090000        1.0080           0
     927 A    116  ETH  H5   HGA30    0.090000        1.0080           0
     928 A    116  ETH  H6   HGA30    0.090000        1.0080           0
     929 A    117  ETH  C1   CG3310   -0.270000       12.0110           0
     930 A    117  ETH  C2   CG3310   -0.270000       12.0110           0
     931 A    117  ETH  H1   HGA30    0.090000        1.0080           0
     932 A    117  ETH  H2   HGA30    0.090000        1.0080           0
     933 A    117  ETH  H3   HGA30    0.090000        1.0080           0
     934 A    117  ETH  H4   HGA30    0.090000        1.0080           0
     935 A    117  ETH  H5   HGA30    0.090000        1.0080           0
     936 A    117  ETH  H6   HGA30    0.090000        1.0080           0
     937 A    118  ETH  C1   CG3310   -0.270000       12.0110           0
     938 A    118  ETH  C2   CG3310   -0.270000       12.0110           0
     939 A    118  ETH  H1   HGA30    0.090000        1.0080           0
     940 A    118  ETH  H2   HGA30    0.090000        1.0080           0
     941 A    118  ETH  H3   HGA30    0.090000        1.0080           0
     942 A    118  ETH  H4   HGA30    0.090000        1.0080           0
     943 A    118  ETH  H5   HGA30    0.090000        1.0080           0
     944 A    118  ETH  H6   HGA30    0.090000        1.0080           0
     945 A    119  ETH  C1   CG3310   -0.270000       12.0110           0
     946 A    119  ETH  C2   CG3310   -0.270000       12.0110           0
     947 A    119  ETH  H1   HGA30    0.090000        1.0080           0
     948 A    119  ETH  H2   HGA30    0.090000        1.0080           0
     949 A    119  ETH  H3   HGA30    0.090000        1.0080           0
     950 A    119  ETH  H4   HGA30    0.090000        1.0080           0
     951 A    119  ETH  H5   HGA30    0.090000        1.0080           0
     952 A    119  ETH  H6   HGA30    0.090000        1.0080           0
     953 A    120  ETH  C1   CG3310   -0.270000       12.0110           0
     954 A    120  ETH  C2   CG3310   -0.270000       12.0110           0
     955 A    120  ETH  H1   HGA30    0.090000        1.0080           0
     956 A    120  ETH  H2   HGA30    0.090000        1.0080           0
     957 A    120  ETH  H3   HGA30    0.090000        1.0080           0
     958 A    120  ETH  H4   HGA30    0.090000        1.0080           0
     959 A    120  ETH  H5   HGA30    0.090000        1.0080           0
     960 A    120  ETH  H6   HGA30    0.090000        1.0080           0
     961 A    121  ETH  C1   CG3310   -0.270000       12.0110           0
     962 A    121  ETH  C2   CG3310   -0.270000       12.0110           0
     963 A    121  ETH  H1   HGA30    0.090000        1.0080           0
     964 A    121  ETH  H2   HGA30    0.090000        1.0080           0
     965 A    121  ETH  H3   HGA30    0.090000        1.0080           0
     966 A    121  ETH  H4   HGA30    0.090000        1.0080           0
     967 A    121  ETH  H5   HGA30    0.090000        1.0080           0
     968 A    121  ETH  H6   HGA30    0.090000        1.0080           0
     969 A    122  ETH  C1   CG3310   -0.270000       12.0110           0
     970 A    122  ETH  C2   CG3310   -0.270000       12.0110           0
     971 A    122  ETH  H1   HGA30    0.090000        1.0080           0
     972 A    122  ETH  H2   HGA30    0.090000        1.0080           0
     973 A    122  ETH  H3   HGA30    0.090000        1.0080           0
     974 A    122  ETH  H4   HGA30    0.090000        1.0080           0
     975 A    122  ETH  H5   HGA30    0.090000        1.0080           0
     976 A    122  ETH  H6   HGA30    0.090000        1.0080           0
     977 A    123  ETH  C1   CG3310   -0.270000       12.0110           0
     978 A    123  ETH  C2   CG3310   -0.270000       12.0110           0
     979 A    123  ETH  H1   HGA30    0.090000        1.0080           0
     980 A    123  ETH  H2   HGA30    0.090000        1.0080           0
     981 A    123  ETH  H3   HGA30    0.090000        1.0080           0
     982 A    123  ETH  H4   HGA30    0.090000        1.0080           0
     983 A    123  ETH  H5   HGA30    0.090000        1.0080           0
     984 A    123  ETH  H6   HGA30    0.090000        1.0080           0
     985 A    124  ETH  C1   CG3310   -0.270000       12.0110           0
     986 A    124  ETH  C2   CG3310   -0.270000       12.0110           0
     987 A    124  ETH  H1   HGA30    0.090000        1.0080           0
     988 A    124  ETH  H2   HGA30    0.090000        1.0080           0
     989 A    124  ETH  H3   HGA30    0.090000        1.0080           0
     990 A    124  ETH  H4   HGA30    0.090000        1.0080           0
     991 A    124  ETH  H5   HGA30    0.090000        1.0080           0
     992 A    124  ETH  H6   HGA30    0.090000        1.0080           0
     993 A    125  ETH  C1   CG3310   -0.270000       12.0110           0
     994 A    125  ETH  C2   CG3310   -0.270000       12.0110           0
     995 A    125  ETH  H1   HGA30    0.090000        1.0080           0
     996 A    125  ETH  H2   HGA30    0.090000        1.0080           0
     997 A    125  ETH  H3   HGA30    0.090000        1.0080           0
     998 A    125  ETH  H4   HGA30    0.090000        1.0080           0
     999 A    125  ETH  H5   HGA30    0.090000        1.0080           0
    1000 A    125  ETH  H6   HGA30    0.090000        1.0080           0
    1001 A    126  ETH  C1   CG3310   -0.270000       12.0110           0
    1002 A    126  ETH  C2   CG3310   -0.270000       12.0110           0
    1003 A    126  ETH  H1   HGA30    0.090000        1.0080           0
    1004 A    126  ETH  H2   HGA30    0.090000        1.0080           0
    1005 A    126  ETH  H3   HGA30    0.090000        1.0080           0
    1006 A    126  ETH  H4   HGA30    0.090000        1.0080           0
    1007 A    126  ETH  H5   HGA30    0.090000        1.0080           0
    1008 A    126  ETH  H6   HGA30    0.090000        1.0080           0
    1009 A    127  ETH  C1   CG3310   -0.270000       12.0110           0
    1010 A    127  ETH  C2   CG3310   -0.270000       12.0110           0
    1011 A    127  ETH  H1   HGA30    0.090000        1.0080           0
    1012 A    127  ETH  H2   HGA30    0.090000        1.0080           0
    1013 A    127  ETH  H3   HGA30    0.090000        1.0080           0
    1014 A    127  ETH  H4   HGA30    0.090000        1.0080           0
    1015 A    127  ETH  H5   HGA30    0.090000        1.0080           0
    1016 A    127  ETH  H6   HGA30    0.090000        1.0080           0
    1017 A    128  ETH  C1   CG3310   -0.270000       12.0110           0
    1018 A    128  ETH  C2   CG3310   -0.270000       12.0110           0
    1019 A    128  ETH  H1   HGA30    0.090000        1.0080           0
    1020 A    128  ETH  H2   HGA30    0.090000        1.0080           0
    1021 A    128  ETH  H3   HGA30    0.090000        1.0080           0
    1022 A    128  ETH  H4   HGA30    0.090000        1.0080           0
    1023 A    128  ETH  H5   HGA30    0.090000        1.0080           0
    1024 A    128  ETH  H6   HGA30    0.090000        1.0080           0
    1025 A    129  ETH  C1   CG3310   -0.270000       12.0110           0
    1026 A    129  ETH  C2   CG3310   -0.270000       12.0110           0
    1027 A    129  ETH  H1   HGA30    0.090000        1.0080           0
    1028 A    129  ETH  H2   HGA30    0.090000        1.0080           0
    1029 A    129  ETH  H3   HGA30    0.090000        1.0080           0
    1030 A    129  ETH  H4   HGA30    0.090000        1.0080           0
    1031 A    129  ETH  H5   HGA30    0.090000        1.0080           0
    1032 A    129  ETH  H6   HGA30    0.090000        1.0080           0
    1033 A    130  ETH  C1   CG3310   -0.270000       12.0110           0
    1034 A    130  ETH  C2   CG3310   -0.270000       12.0110           0
    1035 A    130  ETH  H1   HGA30    0.090000        1.0080           0
    1036 A    130  ETH  H2   HGA30    0.090000        1.0080           0
    1037 A    130  ETH  H3   HGA30    0.090000        1.0080           0
    1038 A    130  ETH  H4   HGA30    0.090000        1.0080           0
    1039 A    130  ETH  H5   HGA30    0.090000        1.0080           0
    1040 A    130  ETH  H6   HGA30    0.090000        1.0080           0
    1041 A    131  ETH  C1   CG3310   -0.270000       12.0110           0
    1042 A    131  ETH  C2   CG3310   -0.270000       12.0110           0
    1043 A    131  ETH  H1   HGA30    0.090000        1.0080           0
    1044 A    131  ETH  H2   HGA30    0.090000        1.0080           0
    1045 A    131  ETH  H3   HGA30    0.090000        1.0080           0
    1046 A    131  ETH  H4   HGA30    0.090000        1.0080           0
    1047 A    131  ETH  H5   HGA30    0.090000        1.0080           0
    1048 A    131  ETH  H6   HGA30    0.090000        1.0080           0
    1049 A    132  ETH  C1   CG3310   -0.270000       12.0110           0
    1050 A    132  ETH  C2   CG3310   -0.270000       12.0110           0
    1051 A    132  ETH  H1   HGA30    0.090000        1.0080           0
    1052 A    132  ETH  H2   HGA30    0.090000        1.0080           0
    1053 A    132  ETH  H3   HGA30    0.090000        1.0080           0
    1054 A    132  ETH  H4   HGA30    0.090000        1.0080           0
    1055 A    132  ETH  H5   HGA30    0.090000        1.0080           0
    1056 A    132  ETH  H6   HGA30    0.090000        1.0080           0
    1057 A    133  ETH  C1   CG3310   -0.270000       12.0110           0
    1058 A    133  ETH  C2   CG3310   -0.270000       12.0110           0
    1059 A    133  ETH  H1   HGA30    0.090000        1.0080           0
    1060 A    133  ETH  H2   HGA30    0.090000        1.0080           0
    1061 A    133  ETH  H3   HGA30    0.090000        1.0080           0
    1062 A    133  ETH  H4   HGA30    0.090000        1.0080           0
    1063 A    133  ETH  H5   HGA30    0.090000        1.0080           0
    1064 A    133  ETH  H6   HGA30    0.090000        1.0080           0
    1065 A    134  ETH  C1   CG3310   -0.270000       12.0110           0
    1066 A    134  ETH  C2   CG3310   -0.270000       12.0110           0
    1067 A    134  ETH  H1   HGA30    0.090000        1.0080           0
    1068 A    134  ETH  H2   HGA30    0.090000        1.0080           0
    1069 A    134  ETH  H3   HGA30    0.090000        1.0080           0
    1070 A    134  ETH  H4   HGA30    0.090000        1.0080           0
    1071 A    134  ETH  H5   HGA30    0.090000        1.0080           0
    1072 A    134  ETH  H6   HGA30    0.090000        1.0080           0
    1073 A    135  ETH  C1   CG3310   -0.270000       12.0110           0
    1074 A    135  ETH  C2   CG3310   -0.270000       12.0110           0
    1075 A    135  ETH  H1   HGA30    0.090000        1.0080           0
    1076 A    135  ETH  H2   HGA30    0.090000        1.0080           0
    1077 A    135  ETH  H3   HGA30    0.090000        1.0080           0
    1078 A    135  ETH  H4   HGA30    0.090000        1.0080           0
    1079 A    135  ETH  H5   HGA30    0.090000        1.0080           0
    1080 A    135  ETH  H6   HGA30    0.090000        1.0080           0
    1081 A    136  ETH  C1   CG3310   -0.270000       12.0110           0
    1082 A    136  ETH  C2   CG3310   -0.270000       12.0110           0
    1083 A    136  ETH  H1   HGA30    0.090000        1.0080           0
    1084 A    136  ETH  H2   HGA30    0.090000        1.0080           0
    1085 A    136  ETH  H3   HGA30    0.090000        1.0080           0
    1086 A    136  ETH  H4   HGA30    0.090000        1.0080           0
    1087 A    136  ETH  H5   HGA30    0.090000        1.0080           0
    1088 A    136  ETH  H6   HGA30    0.090000        1.0080           0
    1089 A    137  ETH  C1   CG3310   -0.270000       12.0110           0
    1090 A    137  ETH  C2   CG3310   -0.270000       12.0110           0
    1091 A    137  ETH  H1   HGA30    0.090000        1.0080           0
    1092 A    137  ETH  H2   HGA30    0.090000        1.0080           0
    1093 A    137  ETH  H3   HGA30    0.090000        1.0080           0
    1094 A    137  ETH  H4   HGA30    0.090000        1.0080           0
    1095 A    137  ETH  H5   HGA30    0.090000        1.0080           0
    1096 A    137  ETH  H6   HGA30    0.090000        1.0080           0
    1097 A    138  ETH  C1   CG3310   -0.270000       12.0110           0
    1098 A    138  ETH  C2   CG3310   -0.270000       12.0110           0
    1099 A    138  ETH  H1   HGA30    0.090000        1.0080           0
    1100 A    138  ETH  H2   HGA30    0.090000        1.0080           0
    1101 A    138  ETH  H3   HGA30    0.090000        1.0080           0
    1102 A    138  ETH  H4   HGA30    0.090000        1.0080           0
    1103 A    138  ETH  H5   HGA30    0.090000        1.0080           0
    1104 A    138  ETH  H6   HGA30    0.090000        1.0080           0
    1105 A    139  ETH  C1   CG3310   -0.270000       12.0110           0
    1106 A    139  ETH  C2   CG3310   -0.270000       12.0110           0
    1107 A    139  ETH  H1   HGA30    0.090000        1.0080           0
    1108 A    139  ETH  H2   HGA30    0.090000        1.0080           0
    1109 A    139  ETH  H3   HGA30    0.090000        1.0080           0
    1110 A    139  ETH  H4   HGA30    0.090000        1.0080           0
    1111 A    139  ETH  H5   HGA30    0.090000        1.0080           0
    1112 A    139  ETH  H6   HGA30    0.090000        1.0080           0
    1113 A    140  ETH  C1   CG3310   -0.270000       12.0110           0
    1114 A    140  ETH  C2   CG3310   -0.270000       12.0110           0
    1115 A    140  ETH  H1   HGA30    0.090000        1.0080           0
    1116 A    140  ETH  H2   HGA30    0.090000        1.0080           0
    1117 A    140  ETH  H3   HGA30    0.090000        1.0080           0
    1118 A    140  ETH  H4   HGA30    0.090000        1.0080           0
    1119 A    140  ETH  H5   HGA30    0.090000        1.0080           0
    1120 A    140  ETH  H6   HGA30    0.090000        1.0080           0
    1121 A    141  ETH  C1   CG3310   -0.270000       12.0110           0
    1122 A    141  ETH  C2   CG3310   -0.270000       12.0110           0
    1123 A    141  ETH  H1   HGA30    0.090000        1.0080           0
    1124 A    141  ETH  H2   HGA30    0.090000        1.0080           0
    1125 A    141  ETH  H3   HGA30    0.090000        1.0080           0
    1126 A    141  ETH  H4   HGA30    0.090000        1.0080           0
    1127 A    141  ETH  H5   HGA30    0.090000        1.0080           0
    1128 A    141  ETH  H6   HGA30    0.090000        1.0080           0
    1129 A    142  ETH  C1   CG3310   -0.270000       12.0110           0
    1130 A    142  ETH  C2   CG3310   -0.270000       12.0110           0
    1131 A    142  ETH  H1   HGA30    0.090000        1.0080           0
    1132 A    142  ETH  H2   HGA30    0.090000        1.0080           0
    1133 A    142  ETH  H3   HGA30    0.090000        1.0080           0
    1134 A    142  ETH  H4   HGA30    0.090000        1.0080           0
    1135 A    142  ETH  H5   HGA30    0.090000        1.0080           0
    1136 A    142  ETH  H6   HGA30    0.090000        1.0080           0
    1137 A    143  ETH  C1   CG3310   -0.270000       12.0110           0
    1138 A    143  ETH  C2   CG3310   -0.270000       12.0110           0
    1139 A    143  ETH  H1   HGA30    0.090000        1.0080           0
    1140 A    143  ETH  H2   HGA30    0.090000        1.0080           0
    1141 A    143  ETH  H3   HGA30    0.090000        1.0080           0
    1142 A    143  ETH  H4   HGA30    0.090000        1.0080           0
    1143 A    143  ETH  H5   HGA30    0.090000        1.0080           0
    1144 A    143  ETH  H6   HGA30    0.090000        1.0080           0
    1145 A    144  ETH  C1   CG3310   -0.270000       12.0110           0
    1146 A    144  ETH  C2   CG3310   -0.270000       12.0110           0
    1147 A    144  ETH  H1   HGA30    0.090000        1.0080           0
    1148 A    144  ETH  H2   HGA30    0.090000        1.0080           0
    1149 A    144  ETH  H3   HGA30    0.090000        1.0080           0
    1150 A    144  ETH  H4   HGA30    0.090000        1.0080           0
    1151 A    144  ETH  H5   HGA30    0.090000        1.0080           0
    1152 A    144  ETH  H6   HGA30    0.090000        1.0080           0
    1153 A    145  ETH  C1   CG3310   -0.270000       12.0110           0
    1154 A    145  ETH  C2   CG3310   -0.270000       12.0110           0
    1155 A    145  ETH  H1   HGA30    0.090000        1.0080           0
    1156 A    145  ETH  H2   HGA30    0.090000        1.0080           0
    1157 A    145  ETH  H3   HGA30    0.090000        1.0080           0
    1158 A    145  ETH  H4   HGA30    0.090000        1.0080           0
    1159 A    145  ETH  H5   HGA30    0.090000        1.0080           0
    1160 A    145  ETH  H6   HGA30    0.090000        1.0080           0
    1161 A    146  ETH  C1   CG3310   -0.270000       12.0110           0
    1162 A    146  ETH  C2   CG3310   -0.270000       12.0110           0
    1163 A    146  ETH  H1   HGA30    0.090000        1.0080           0
    1164 A    146  ETH  H2   HGA30    0.090000        1.0080           0
    1165 A    146  ETH  H3   HGA30    0.090000        1.0080           0
    1166 A    146  ETH  H4   HGA30    0.090000        1.0080           0
    1167 A    146  ETH  H5   HGA30    0.090000        1.0080           0
    1168 A    146  ETH  H6   HGA30    0.090000        1.0080           0
    1169 A    147  ETH  C1   CG3310   -0.270000       12.0110           0
    1170 A    147  ETH  C2   CG3310   -0.270000       12.0110           0
    1171 A    147  ETH  H1   HGA30    0.090000        1.0080           0
    1172 A    147  ETH  H2   HGA30    0.090000        1.0080           0
    1173 A    147  ETH  H3   HGA30    0.090000        1.0080           0
    1174 A    147  ETH  H4   HGA30    0.090000        1.0080           0
    1175 A    147  ETH  H5   HGA30    0.090000        1.0080           0
    1176 A    147  ETH  H6   HGA30    0.090000        1.0080           0
    1177 A    148  ETH  C1   CG3310   -0.270000       12.0110           0
    1178 A    148  ETH  C2   CG3310   -0.270000       12.0110           0
    1179 A    148  ETH  H1   HGA30    0.090000        1.0080           0
    1180 A    148  ETH  H2   HGA30    0.090000        1.0080           0
    1181 A    148  ETH  H3   HGA30    0.090000        1.0080           0
    1182 A    148  ETH  H4   HGA30    0.090000        1.0080           0
    1183 A    148  ETH  H5   HGA30    0.090000        1.0080           0
    1184 A    148  ETH  H6   HGA30    0.090000        1.0080           0
    1185 A    149  ETH  C1   CG3310   -0.270000       12.0110           0
    1186 A    149  ETH  C2   CG3310   -0.270000       12.0110           0
    1187 A    149  ETH  H1   HGA30    0.090000        1.0080           0
    1188 A    149  ETH  H2   HGA30    0.090000        1.0080           0
    1189 A    149  ETH  H3   HGA30    0.090000        1.0080           0
    1190 A    149  ETH  H4   HGA30    0.090000        1.0080           0
    1191 A    149  ETH  H5   HGA30    0.090000        1.0080           0
    1192 A    149  ETH  H6   HGA30    0.090000        1.0080           0
    1193 A    150  ETH  C1   CG3310   -0.270000       12.0110           0
    1194 A    150  ETH  C2   CG3310   -0.270000       12.0110           0
    1195 A    150  ETH  H1   HGA30    0.090000        1.0080           0
    1196 A    150  ETH  H2   HGA30    0.090000        1.0080           0
    1197 A    150  ETH  H3   HGA30    0.090000        1.0080           0
    1198 A    150  ETH  H4   HGA30    0.090000        1.0080           0
    1199 A    150  ETH  H5   HGA30    0.090000        1.0080           0
    1200 A    150  ETH  H6   HGA30    0.090000        1.0080           0
    1201 A    151  ETH  C1   CG3310   -0.270000       12.0110           0
    1202 A    151  ETH  C2   CG3310   -0.270000       12.0110           0
    1203 A    151  ETH  H1   HGA30    0.090000        1.0080           0
    1204 A    151  ETH  H2   HGA30    0.090000        1.0080           0
    1205 A    151  ETH  H3   HGA30    0.090000        1.0080           0
    1206 A    151  ETH  H4   HGA30    0.090000        1.0080           0
    1207 A    151  ETH  H5   HGA30    0.090000        1.0080           0
    1208 A    151  ETH  H6   HGA30    0.090000        1.0080           0
    1209 A    152  ETH  C1   CG3310   -0.270000       12.0110           0
    1210 A    152  ETH  C2   CG3310   -0.270000       12.0110           0
    1211 A    152  ETH  H1   HGA30    0.090000        1.0080           0
    1212 A    152  ETH  H2   HGA30    0.090000        1.0080           0
    1213 A    152  ETH  H3   HGA30    0.090000        1.0080           0
    1214 A    152  ETH  H4   HGA30    0.090000        1.0080           0
    1215 A    152  ETH  H5   HGA30    0.090000        1.0080           0
    1216 A    152  ETH  H6   HGA30    0.090000        1.0080           0
    1217 A    153  ETH  C1   CG3310   -0.270000       12.0110           0
    1218 A    153  ETH  C2   CG3310   -0.270000       12.0110           0
    1219 A    153  ETH  H1   HGA30    0.090000        1.0080           0
    1220 A    153  ETH  H2   HGA30    0.090000        1.0080           0
    1221 A    153  ETH  H3   HGA30    0.090000        1.0080           0
    1222 A    153  ETH  H4   HGA30    0.090000        1.0080           0
    1223 A    153  ETH  H5   HGA30    0.090000        1.0080           0
    1224 A    153  ETH  H6   HGA30    0.090000        1.0080           0
    1225 A    154  ETH  C1   CG3310   -0.270000       12.0110           0
    1226 A    154  ETH  C2   CG3310   -0.270000       12.0110           0
    1227 A    154  ETH  H1   HGA30    0.090000        1.0080           0
    1228 A    154  ETH  H2   HGA30    0.090000        1.0080           0
    1229 A    154  ETH  H3   HGA30    0.090000        1.0080           0
    1230 A    154  ETH  H4   HGA30    0.090000        1.0080           0
    1231 A    154  ETH  H5   HGA30    0.090000        1.0080           0
    1232 A    154  ETH  H6   HGA30    0.090000        1.0080           0
    1233 A    155  ETH  C1   CG3310   -0.270000       12.0110           0
    1234 A    155  ETH  C2   CG3310   -0.270000       12.0110           0
    1235 A    155  ETH  H1   HGA30    0.090000        1.0080           0
    1236 A    155  ETH  H2   HGA30    0.090000        1.0080           0
    1237 A    155  ETH  H3   HGA30    0.090000        1.0080           0
    1238 A    155  ETH  H4   HGA30    0.090000        1.0080           0
    1239 A    155  ETH  H5   HGA30    0.090000        1.0080           0
    1240 A    155  ETH  H6   HGA30    0.090000        1.0080           0
    1241 A    156  ETH  C1   CG3310   -0.270000       12.0110           0
    1242 A    156  ETH  C2   CG3310   -0.270000       12.0110           0
    1243 A    156  ETH  H1   HGA30    0.090000        1.0080           0
    1244 A    156  ETH  H2   HGA30    0.090000        1.0080           0
    1245 A    156  ETH  H3   HGA30    0.090000        1.0080           0
    1246 A    156  ETH  H4   HGA30    0.090000        1.0080           0
    1247 A    156  ETH  H5   HGA30    0.090000        1.0080           0
    1248 A    156  ETH  H6   HGA30    0.090000        1.0080           0
    1249 A    157  ETH  C1   CG3310   -0.270000       12.0110           0
    1250 A    157  ETH  C2   CG3310   -0.270000       12.0110           0
    1251 A    157  ETH  H1   HGA30    0.090000        1.0080           0
    1252 A    157  ETH  H2   HGA30    0.090000        1.0080           0
    1253 A    157  ETH  H3   HGA30    0.090000        1.0080           0
    1254 A    157  ETH  H4   HGA30    0.090000        1.0080           0
    1255 A    157  ETH  H5   HGA30    0.090000        1.0080           0
    1256 A    157  ETH  H6   HGA30    0.090000        1.0080           0
    1257 A    158  ETH  C1   CG3310   -0.270000       12.0110           0
    1258 A    158  ETH  C2   CG3310   -0.270000       12.0110           0
    1259 A    158  ETH  H1   HGA30    0.090000        1.0080           0
    1260 A    158  ETH  H2   HGA30    0.090000        1.0080           0
    1261 A    158  ETH  H3   HGA30    0.090000        1.0080           0
    1262 A    158  ETH  H4   HGA30    0.090000        1.0080           0
    1263 A    158  ETH  H5   HGA30    0.090000        1.0080           0
    1264 A    158  ETH  H6   HGA30    0.090000        1.0080           0
    1265 A    159  ETH  C1   CG3310   -0.270000       12.0110           0
    1266 A    159  ETH  C2   CG3310   -0.270000       12.0110           0
    1267 A    159  ETH  H1   HGA30    0.090000        1.0080           0
    1268 A    159  ETH  H2   HGA30    0.090000        1.0080           0
    1269 A    159  ETH  H3   HGA30    0.090000        1.0080           0
    1270 A    159  ETH  H4   HGA30    0.090000        1.0080           0
    1271 A    159  ETH  H5   HGA30    0.090000        1.0080           0
    1272 A    159  ETH  H6   HGA30    0.090000        1.0080           0
    1273 A    160  ETH  C1   CG3310   -0.270000       12.0110           0
    1274 A    160  ETH  C2   CG3310   -0.270000       12.0110           0
    1275 A    160  ETH  H1   HGA30    0.090000        1.0080           0
    1276 A    160  ETH  H2   HGA30    0.090000        1.0080           0
    1277 A    160  ETH  H3   HGA30    0.090000        1.0080           0
    1278 A    160  ETH  H4   HGA30    0.090000        1.0080           0
    1279 A    160  ETH  H5   HGA30    0.090000        1.0080           0
    1280 A    160  ETH  H6   HGA30    0.090000        1.0080           0
    1281 A    161  ETH  C1   CG3310   -0.270000       12.0110           0
    1282 A    161  ETH  C2   CG3310   -0.270000       12.0110           0
    1283 A    161  ETH  H1   HGA30    0.090000        1.0080           0
    1284 A    161  ETH  H2   HGA30    0.090000        1.0080           0
    1285 A    161  ETH  H3   HGA30    0.090000        1.0080           0
    1286 A    161  ETH  H4   HGA30    0.090000        1.0080           0
    1287 A    161  ETH  H5   HGA30    0.090000        1.0080           0
    1288 A    161  ETH  H6   HGA30    0.090000        1.0080           0
    1289 A    162  ETH  C1   CG3310   -0.270000       12.0110           0
    1290 A    162  ETH  C2   CG3310   -0.270000       12.0110           0
    1291 A    162  ETH  H1   HGA30    0.090000        1.0080           0
    1292 A    162  ETH  H2   HGA30    0.090000        1.0080           0
    1293 A    162  ETH  H3   HGA30    0.090000        1.0080           0
    1294 A    162  ETH  H4   HGA30    0.090000        1.0080           0
    1295 A    162  ETH  H5   HGA30    0.090000        1.0080           0
    1296 A    162  ETH  H6   HGA30    0.090000        1.0080           0
    1297 A    163  ETH  C1   CG3310   -0.270000       12.0110           0
    1298 A    163  ETH  C2   CG3310   -0.270000       12.0110           0
    1299 A    163  ETH  H1   HGA30    0.090000        1.0080           0
    1300 A    163  ETH  H2   HGA30    0.090000        1.0080           0
    1301 A    163  ETH  H3   HGA30    0.090000        1.0080           0
    1302 A    163  ETH  H4   HGA30    0.090000        1.0080           0
    1303 A    163  ETH  H5   HGA30    0.090000        1.0080           0
    1304 A    163  ETH  H6   HGA30    0.090000        1.0080           0
    1305 A    164  ETH  C1   CG3310   -0.270000       12.0110           0
    1306 A    164  ETH  C2   CG3310   -0.270000       12.0110           0
    1307 A    164  ETH  H1   HGA30    0.090000        1.0080           0
    1308 A    164  ETH  H2   HGA30    0.090000        1.0080           0
    1309 A    164  ETH  H3   HGA30    0.090000        1.0080           0
    1310 A    164  ETH  H4   HGA30    0.090000        1.0080           0
    1311 A    164  ETH  H5   HGA30    0.090000        1.0080           0
    1312 A    164  ETH  H6   HGA30    0.090000        1.0080           0
    1313 A    165  ETH  C1   CG3310   -0.270000       12.0110           0
    1314 A    165  ETH  C2   CG3310   -0.270000       12.0110           0
    1315 A    165  ETH  H1   HGA30    0.090000        1.0080           0
    1316 A    165  ETH  H2   HGA30    0.090000        1.0080           0
    1317 A    165  ETH  H3   HGA30    0.090000        1.0080           0
    1318 A    165  ETH  H4   HGA30    0.090000        1.0080           0
    1319 A    165  ETH  H5   HGA30    0.090000        1.0080           0
    1320 A    165  ETH  H6   HGA30    0.090000        1.0080           0
    1321 A    166  ETH  C1   CG3310   -0.270000       12.0110           0
    1322 A    166  ETH  C2   CG3310   -0.270000       12.0110           0
    1323 A    166  ETH  H1   HGA30    0.090000        1.0080           0
    1324 A    166  ETH  H2   HGA30    0.090000        1.0080           0
    1325 A    166  ETH  H3   HGA30    0.090000        1.0080           0
    1326 A    166  ETH  H4   HGA30    0.090000        1.0080           0
    1327 A    166  ETH  H5   HGA30    0.090000        1.0080           0
    1328 A    166  ETH  H6   HGA30    0.090000        1.0080           0
    1329 A    167  ETH  C1   CG3310   -0.270000       12.0110           0
    1330 A    167  ETH  C2   CG3310   -0.270000       12.0110           0
    1331 A    167  ETH  H1   HGA30    0.090000        1.0080           0
    1332 A    167  ETH  H2   HGA30    0.090000        1.0080           0
    1333 A    167  ETH  H3   HGA30    0.090000        1.0080           0
    1334 A    167  ETH  H4   HGA30    0.090000        1.0080           0
    1335 A    167  ETH  H5   HGA30    0.090000        1.0080           0
    1336 A    167  ETH  H6   HGA30    0.090000        1.0080           0
    1337 A    168  ETH  C1   CG3310   -0.270000       12.0110           0
    1338 A    168  ETH  C2   CG3310   -0.270000       12.0110           0
    1339 A    168  ETH  H1   HGA30    0.090000        1.0080           0
    1340 A    168  ETH  H2   HGA30    0.090000        1.0080           0
    1341 A    168  ETH  H3   HGA30    0.090000        1.0080           0
    1342 A    168  ETH  H4   HGA30    0.090000        1.0080           0
    1343 A    168  ETH  H5   HGA30    0.090000        1.0080           0
    1344 A    168  ETH  H6   HGA30    0.090000        1.0080           0
    1345 A    169  ETH  C1   CG3310   -0.270000       12.0110           0
    1346 A    169  ETH  C2   CG3310   -0.270000       12.0110           0
    1347 A    169  ETH  H1   HGA30    0.090000        1.0080           0
    1348 A    169  ETH  H2   HGA30    0.090000        1.0080           0
    1349 A    169  ETH  H3   HGA30    0.090000        1.0080           0
    1350 A    169  ETH  H4   HGA30    0.090000        1.0080           0
    1351 A    169  ETH  H5   HGA30    0.090000        1.0080           0
    1352 A    169  ETH  H6   HGA30    0.090000        1.0080           0
    1353 A    170  ETH  C1   CG3310   -0.270000       12.0110           0
    1354 A    170  ETH  C2   CG3310   -0.270000       12.0110           0
    1355 A    170  ETH  H1   HGA30    0.090000        1.0080           0
    1356 A    170  ETH  H2   HGA30    0.090000        1.0080           0
    1357 A    170  ETH  H3   HGA30    0.090000        1.0080           0
    1358 A    170  ETH  H4   HGA30    0.090000        1.0080           0
    1359 A    170  ETH  H5   HGA30    0.090000        1.0080           0
    1360 A    170  ETH  H6   HGA30    0.090000        1.0080           0
    1361 A    171  ETH  C1   CG3310   -0.270000       12.0110           0
    1362 A    171  ETH  C2   CG3310   -0.270000       12.0110           0
    1363 A    171  ETH  H1   HGA30    0.090000        1.0080           0
    1364 A    171  ETH  H2   HGA30    0.090000        1.0080           0
    1365 A    171  ETH  H3   HGA30    0.090000        1.0080           0
    1366 A    171  ETH  H4   HGA30    0.090000        1.0080           0
    1367 A    171  ETH  H5   HGA30    0.090000        1.0080           0
    1368 A    171  ETH  H6   HGA30    0.090000        1.0080           0
    1369 A    172  ETH  C1   CG3310   -0.270000       12.0110           0
    1370 A    172  ETH  C2   CG3310   -0.270000       12.0110           0
    1371 A    172  ETH  H1   HGA30    0.090000        1.0080           0
    1372 A    172  ETH  H2   HGA30    0.090000        1.0080           0
    1373 A    172  ETH  H3   HGA30    0.090000        1.0080           0
    1374 A    172  ETH  H4   HGA30    0.090000        1.0080           0
    1375 A    172  ETH  H5   HGA30    0.090000        1.0080           0
    1376 A    172  ETH  H6   HGA30    0.090000        1.0080           0
    1377 A    173  ETH  C1   CG3310   -0.270000       12.0110           0
    1378 A    173  ETH  C2   CG3310   -0.270000       12.0110           0
    1379 A    173  ETH  H1   HGA30    0.090000        1.0080           0
    1380 A    173  ETH  H2   HGA30    0.090000        1.0080           0
    1381 A    173  ETH  H3   HGA30    0.090000        1.0080           0
    1382 A    173  ETH  H4   HGA30    0.090000        1.0080           0
    1383 A    173  ETH  H5   HGA30    0.090000        1.0080           0
    1384 A    173  ETH  H6   HGA30    0.090000        1.0080           0
    1385 A    174  ETH  C1   CG3310   -0.270000       12.0110           0
    1386 A    174  ETH  C2   CG3310   -0.270000       12.0110           0
    1387 A    174  ETH  H1   HGA30    0.090000        1.0080           0
    1388 A    174  ETH  H2   HGA30    0.090000        1.0080           0
    1389 A    174  ETH  H3   HGA30    0.090000        1.0080           0
    1390 A    174  ETH  H4   HGA30    0.090000        1.0080           0
    1391 A    174  ETH  H5   HGA30    0.090000        1.0080           0
    1392 A    174  ETH  H6   HGA30    0.090000        1.0080           0
    1393 A    175  ETH  C1   CG3310   -0.270000       12.0110           0
    1394 A    175  ETH  C2   CG3310   -0.270000       12.0110           0
    1395 A    175  ETH  H1   HGA30    0.090000        1.0080           0
    1396 A    175  ETH  H2   HGA30    0.090000        1.0080           0
    1397 A    175  ETH  H3   HGA30    0.090000        1.0080           0
    1398 A    175  ETH  H4   HGA30    0.090000        1.0080           0
    1399 A    175  ETH  H5   HGA30    0.090000        1.0080           0
    1400 A    175  ETH  H6   HGA30    0.090000        1.0080           0
    1401 A    176  ETH  C1   CG3310   -0.270000       12.0110           0
    1402 A    176  ETH  C2   CG3310   -0.270000       12.0110           0
    1403 A    176  ETH  H1   HGA30    0.090000        1.0080           0
    1404 A    176  ETH  H2   HGA30    0.090000        1.0080           0
    1405 A    176  ETH  H3   HGA30    0.090000        1.0080           0
    1406 A    176  ETH  H4   HGA30    0.090000        1.0080           0
    1407 A    176  ETH  H5   HGA30    0.090000        1.0080           0
    1408 A    176  ETH  H6   HGA30    0.090000        1.0080           0
    1409 A    177  ETH  C1   CG3310   -0.270000       12.0110           0
    1410 A    177  ETH  C2   CG3310   -0.270000       12.0110           0
    1411 A    177  ETH  H1   HGA30    0.090000        1.0080           0
    1412 A    177  ETH  H2   HGA30    0.090000        1.0080           0
    1413 A    177  ETH  H3   HGA30    0.090000        1.0080           0
    1414 A    177  ETH  H4   HGA30    0.090000        1.0080           0
    1415 A    177  ETH  H5   HGA30    0.090000        1.0080           0
    1416 A    177  ETH  H6   HGA30    0.090000        1.0080           0
    1417 A    178  ETH  C1   CG3310   -0.270000       12.0110           0
    1418 A    178  ETH  C2   CG3310   -0.270000       12.0110           0
    1419 A    178  ETH  H1   HGA30    0.090000        1.0080           0
    1420 A    178  ETH  H2   HGA30    0.090000        1.0080           0
    1421 A    178  ETH  H3   HGA30    0.090000        1.0080           0
    1422 A    178  ETH  H4   HGA30    0.090000        1.0080           0
    1423 A    178  ETH  H5   HGA30    0.090000        1.0080           0
    1424 A    178  ETH  H6   HGA30    0.090000        1.0080           0
    1425 A    179  ETH  C1   CG3310   -0.270000       12.0110           0
    1426 A    179  ETH  C2   CG3310   -0.270000       12.0110           0
    1427 A    179  ETH  H1   HGA30    0.090000        1.0080           0
    1428 A    179  ETH  H2   HGA30    0.090000        1.0080           0
    1429 A    179  ETH  H3   HGA30    0.090000        1.0080           0
    1430 A    179  ETH  H4   HGA30    0.090000        1.0080           0
    1431 A    179  ETH  H5   HGA30    0.090000        1.0080           0
    1432 A    179  ETH  H6   HGA30    0.090000        1.0080           0
    1433 A    180  ETH  C1   CG3310   -0.270000       12.0110           0
    1434 A    180  ETH  C2   CG3310   -0.270000       12.0110           0
    1435 A    180  ETH  H1   HGA30    0.090000        1.0080           0
    1436 A    180  ETH  H2   HGA30    0.090000        1.0080           0
    1437 A    180  ETH  H3   HGA30    0.090000        1.0080           0
    1438 A    180  ETH  H4   HGA30    0.090000        1.0080           0
    1439 A    180  ETH  H5   HGA30    0.090000        1.0080           0
    1440 A    180  ETH  H6   HGA30    0.090000        1.0080           0
    1441 A    181  ETH  C1   CG3310   -0.270000       12.0110           0
    1442 A    181  ETH  C2   CG3310   -0.270000       12.0110           0
    1443 A    181  ETH  H1   HGA30    0.090000        1.0080           0
    1444 A    181  ETH  H2   HGA30    0.090000        1.0080           0
    1445 A    181  ETH  H3   HGA30    0.090000        1.0080           0
    1446 A    181  ETH  H4   HGA30    0.090000        1.0080           0
    1447 A    181  ETH  H5   HGA30    0.090000        1.0080           0
    1448 A    181  ETH  H6   HGA30    0.090000        1.0080           0
    1449 A    182  ETH  C1   CG3310   -0.270000       12.0110           0
    1450 A    182  ETH  C2   CG3310   -0.270000       12.0110           0
    1451 A    182  ETH  H1   HGA30    0.090000        1.0080           0
    1452 A    182  ETH  H2   HGA30    0.090000        1.0080           0
    1453 A    182  ETH  H3   HGA30    0.090000        1.0080           0
    1454 A    182  ETH  H4   HGA30    0.090000        1.0080           0
    1455 A    182  ETH  H5   HGA30    0.090000        1.0080           0
    1456 A    182  ETH  H6   HGA30    0.090000        1.0080           0
    1457 A    183  ETH  C1   CG3310   -0.270000       12.0110           0
    1458 A    183  ETH  C2   CG3310   -0.270000       12.0110           0
    1459 A    183  ETH  H1   HGA30    0.090000        1.0080           0
    1460 A    183  ETH  H2   HGA30    0.090000        1.0080           0
    1461 A    183  ETH  H3   HGA30    0.090000        1.0080           0
    1462 A    183  ETH  H4   HGA30    0.090000        1.0080           0
    1463 A    183  ETH  H5   HGA30    0.090000        1.0080           0
    1464 A    183  ETH  H6   HGA30    0.090000        1.0080           0
    1465 A    184  ETH  C1   CG3310   -0.270000       12.0110           0
    1466 A    184  ETH  C2   CG3310   -0.270000       12.0110           0
    1467 A    184  ETH  H1   HGA30    0.090000        1.0080           0
    1468 A    184  ETH  H2   HGA30    0.090000        1.0080           0
    1469 A    184  ETH  H3   HGA30    0.090000        1.0080           0
    1470 A    184  ETH  H4   HGA30    0.090000        1.0080           0
    1471 A    184  ETH  H5   HGA30    0.090000        1.0080           0
    1472 A    184  ETH  H6   HGA30    0.090000        1.0080           0
    1473 A    185  ETH  C1   CG3310   -0.270000       12.0110           0
    1474 A    185  ETH  C2   CG3310   -0.270000       12.0110           0
    1475 A    185  ETH  H1   HGA30    0.090000        1.0080           0
    1476 A    185  ETH  H2   HGA30    0.090000        1.0080           0
    1477 A    185  ETH  H3   HGA30    0.090000        1.0080           0
    1478 A    185  ETH  H4   HGA30    0.090000        1.0080           0
    1479 A    185  ETH  H5   HGA30    0.090000        1.0080           0
    1480 A    185  ETH  H6   HGA30    0.090000        1.0080           0
    1481 A    186  ETH  C1   CG3310   -0.270000       12.0110           0
    1482 A    186  ETH  C2   CG3310   -0.270000       12.0110           0
    1483 A    186  ETH  H1   HGA30    0.090000        1.0080           0
    1484 A    186  ETH  H2   HGA30    0.090000        1.0080           0
    1485 A    186  ETH  H3   HGA30    0.090000        1.0080           0
    1486 A    186  ETH  H4   HGA30    0.090000        1.0080           0
    1487 A    186  ETH  H5   HGA30    0.090000        1.0080           0
    1488 A    186  ETH  H6   HGA30    0.090000        1.0080           0
    1489 A    187  ETH  C1   CG3310   -0.270000       12.0110           0
    1490 A    187  ETH  C2   CG3310   -0.270000       12.0110           0
    1491 A    187  ETH  H1   HGA30    0.090000        1.0080           0
    1492 A    187  ETH  H2   HGA30    0.090000        1.0080           0
    1493 A    187  ETH  H3   HGA30    0.090000        1.0080           0
    1494 A    187  ETH  H4   HGA30    0.090000        1.0080           0
    1495 A    187  ETH  H5   HGA30    0.090000        1.0080           0
    1496 A    187  ETH  H6   HGA30    0.090000        1.0080           0
    1497 A    188  ETH  C1   CG3310   -0.270000       12.0110           0
    1498 A    188  ETH  C2   CG3310   -0.270000       12.0110           0
    1499 A    188  ETH  H1   HGA30    0.090000        1.0080           0
    1500 A    188  ETH  H2   HGA30    0.090000        1.0080           0
    1501 A    188  ETH  H3   HGA30    0.090000        1.0080           0
    1502 A    188  ETH  H4   HGA30    0.090000        1.0080           0
    1503 A    188  ETH  H5   HGA30    0.090000        1.0080           0
    1504 A    188  ETH  H6   HGA30    0.090000        1.0080           0
    1505 A    189  ETH  C1   CG3310   -0.270000       12.0110           0
    1506 A    189  ETH  C2   CG3310   -0.270000       12.0110           0
    1507 A    189  ETH  H1   HGA30    0.090000        1.0080           0
    1508 A    189  ETH  H2   HGA30    0.090000        1.0080           0
    1509 A    189  ETH  H3   HGA30    0.090000        1.0080           0
    1510 A    189  ETH  H4   HGA30    0.090000        1.0080           0
    1511 A    189  ETH  H5   HGA30    0.090000        1.0080           0
    1512 A    189  ETH  H6   HGA30    0.090000        1.0080           0
    1513 A    190  ETH  C1   CG3310   -0.270000       12.0110           0
    1514 A    190  ETH  C2   CG3310   -0.270000       12.0110           0
    1515 A    190  ETH  H1   HGA30    0.090000        1.0080           0
    1516 A    190  ETH  H2   HGA30    0.090000        1.0080           0
    1517 A    190  ETH  H3   HGA30    0.090000        1.0080           0
    1518 A    190  ETH  H4   HGA30    0.090000        1.0080           0
    1519 A    190  ETH  H5   HGA30    0.090000        1.0080           0
    1520 A    190  ETH  H6   HGA30    0.090000        1.0080           0
    1521 A    191  ETH  C1   CG3310   -0.270000       12.0110           0
    1522 A    191  ETH  C2   CG3310   -0.270000       12.0110           0
    1523 A    191  ETH  H1   HGA30    0.090000        1.0080           0
    1524 A    191  ETH  H2   HGA30    0.090000        1.0080           0
    1525 A    191  ETH  H3   HGA30    0.090000        1.0080           0
    1526 A    191  ETH  H4   HGA30    0.090000        1.0080           0
    1527 A    191  ETH  H5   HGA30    0.090000        1.0080           0
    1528 A    191  ETH  H6   HGA30    0.090000        1.0080           0
    1529 A    192  ETH  C1   CG3310   -0.270000       12.0110           0
    1530 A    192  ETH  C2   CG3310   -0.270000       12.0110           0
    1531 A    192  ETH  H1   HGA30    0.090000        1.0080           0
    1532 A    192  ETH  H2   HGA30    0.090000        1.0080           0
    1533 A    192  ETH  H3   HGA30    0.090000        1.0080           0
    1534 A    192  ETH  H4   HGA30    0.090000        1.0080           0
    1535 A    192  ETH  H5   HGA30    0.090000        1.0080           0
    1536 A    192  ETH  H6   HGA30    0.090000        1.0080           0
    1537 A    193  ETH  C1   CG3310   -0.270000       12.0110           0
    1538 A    193  ETH  C2   CG3310   -0.270000       12.0110           0
    1539 A    193  ETH  H1   HGA30    0.090000        1.0080           0
    1540 A    193  ETH  H2   HGA30    0.090000        1.0080           0
    1541 A    193  ETH  H3   HGA30    0.090000        1.0080           0
    1542 A    193  ETH  H4   HGA30    0.090000        1.0080           0
    1543 A    193  ETH  H5   HGA30    0.090000        1.0080           0
    1544 A    193  ETH  H6   HGA30    0.090000        1.0080           0
    1545 A    194  ETH  C1   CG3310   -0.270000       12.0110           0
    1546 A    194  ETH  C2   CG3310   -0.270000       12.0110           0
    1547 A    194  ETH  H1   HGA30    0.090000        1.0080           0
    1548 A    194  ETH  H2   HGA30    0.090000        1.0080           0
    1549 A    194  ETH  H3   HGA30    0.090000        1.0080           0
    1550 A    194  ETH  H4   HGA30    0.090000        1.0080           0
    1551 A    194  ETH  H5   HGA30    0.090000        1.0080           0
    1552 A    194  ETH  H6   HGA30    0.090000        1.0080           0
    1553 A    195  ETH  C1   CG3310   -0.270000       12.0110           0
    1554 A    195  ETH  C2   CG3310   -0.270000       12.0110           0
    1555 A    195  ETH  H1   HGA30    0.090000        1.0080           0
    1556 A    195  ETH  H2   HGA30    0.090000        1.0080           0
    1557 A    195  ETH  H3   HGA30    0.090000        1.0080           0
    1558 A    195  ETH  H4   HGA30    0.090000        1.0080           0
    1559 A    195  ETH  H5   HGA30    0.090000        1.0080           0
    1560 A    195  ETH  H6   HGA30    0.090000        1.0080           0
    1561 A    196  ETH  C1   CG3310   -0.270000       12.0110           0
    1562 A    196  ETH  C2   CG3310   -0.270000       12.0110           0
    1563 A    196  ETH  H1   HGA30    0.090000        1.0080           0
    1564 A    196  ETH  H2   HGA30    0.090000        1.0080           0
    1565 A    196  ETH  H3   HGA30    0.090000        1.0080           0
    1566 A    196  ETH  H4   HGA30    0.090000        1.0080           0
    1567 A    196  ETH  H5   HGA30    0.090000        1.0080           0
    1568 A    196  ETH  H6   HGA30    0.090000        1.0080           0
    1569 A    197  ETH  C1   CG3310   -0.270000       12.0110           0
    1570 A    197  ETH  C2   CG3310   -0.270000       12.0110           0
    1571 A    197  ETH  H1   HGA30    0.090000        1.0080           0
    1572 A    197  ETH  H2   HGA30    0.090000        1.0080           0
    1573 A    197  ETH  H3   HGA30    0.090000        1.0080           0
    1574 A    197  ETH  H4   HGA30    0.090000        1.0080           0
    1575 A    197  ETH  H5   HGA30    0.090000        1.0080           0
    1576 A    197  ETH  H6   HGA30    0.090000        1.0080           0
    1577 A    198  ETH  C1   CG3310   -0.270000       12.0110           0
    1578 A    198  ETH  C2   CG3310   -0.270000       12.0110           0
    1579 A    198  ETH  H1   HGA30    0.090000        1.0080           0
    1580 A    198  ETH  H2   HGA30    0.090000        1.0080           0
    1581 A    198  ETH  H3   HGA30    0.090000        1.0080           0
    1582 A    198  ETH  H4   HGA30    0.090000        1.0080           0
    1583 A    198  ETH  H5   HGA30    0.090000        1.0080           0
    1584 A    198  ETH  H6   HGA30    0.090000        1.0080           0
    1585 A    199  ETH  C1   CG3310   -0.270000       12.0110           0
    1586 A    199  ETH  C2   CG3310   -0.270000       12.0110           0
    1587 A    199  ETH  H1   HGA30    0.090000        1.0080           0
    1588 A    199  ETH  H2   HGA30    0.090000        1.0080           0
    1589 A    199  ETH  H3   HGA30    0.090000        1.0080           0
    1590 A    199  ETH  H4   HGA30    0.090000        1.0080           0
    1591 A    199  ETH  H5   HGA30    0.090000        1.0080           0
    1592 A    199  ETH  H6   HGA30    0.090000        1.0080           0
    1593 A    200  ETH  C1   CG3310   -0.270000       12.0110           0
    1594 A    200  ETH  C2   CG3310   -0.270000       12.0110           0
    1595 A    200  ETH  H1   HGA30    0.090000        1.0080           0
    1596 A    200  ETH  H2   HGA30    0.090000        1.0080           0
    1597 A    200  ETH  H3   HGA30    0.090000        1.0080           0
    1598 A    200  ETH  H4   HGA30    0.090000        1.0080           0
    1599 A    200  ETH  H5   HGA30    0.090000        1.0080           0
    1600 A    200  ETH  H6   HGA30    0.090000        1.0080           0
    1601 A    201  ETH  C1   CG3310   -0.270000       12.0110           0
    1602 A    201  ETH  C2   CG3310   -0.270000       12.0110           0
    1603 A    201  ETH  H1   HGA30    0.090000        1.0080           0
    1604 A    201  ETH  H2   HGA30    0.090000        1.0080           0
    1605 A    201  ETH  H3   HGA30    0.090000        1.0080           0
    1606 A    201  ETH  H4   HGA30    0.090000        1.0080           0
    1607 A    201  ETH  H5   HGA30    0.090000        1.0080           0
    1608 A    201  ETH  H6   HGA30    0.090000        1.0080           0
    1609 A    202  ETH  C1   CG3310   -0.270000       12.0110           0
    1610 A    202  ETH  C2   CG3310   -0.270000       12.0110           0
    1611 A    202  ETH  H1   HGA30    0.090000        1.0080           0
    1612 A    202  ETH  H2   HGA30    0.090000        1.0080           0
    1613 A    202  ETH  H3   HGA30    0.090000        1.0080           0
    1614 A    202  ETH  H4   HGA30    0.090000        1.0080           0
    1615 A    202  ETH  H5   HGA30    0.090000        1.0080           0
    1616 A    202  ETH  H6   HGA30    0.090000        1.0080           0
    1617 A    203  ETH  C1   CG3310   -0.270000       12.0110           0
    1618 A    203  ETH  C2   CG3310   -0.270000       12.0110           0
    1619 A    203  ETH  H1   HGA30    0.090000        1.0080           0
    1620 A    203  ETH  H2   HGA30    0.090000        1.0080           0
    1621 A    203  ETH  H3   HGA30    0.090000        1.0080           0
    1622 A    203  ETH  H4   HGA30    0.090000        1.0080           0
    1623 A    203  ETH  H5   HGA30    0.090000        1.0080           0
    1624 A    203  ETH  H6   HGA30    0.090000        1.0080           0
    1625 A    204  ETH  C1   CG3310   -0.270000       12.0110           0
    1626 A    204  ETH  C2   CG3310   -0.270000       12.0110           0
    1627 A    204  ETH  H1   HGA30    0.090000        1.0080           0
    1628 A    204  ETH  H2   HGA30    0.090000        1.0080           0
    1629 A    204  ETH  H3   HGA30    0.090000        1.0080           0
    1630 A    204  ETH  H4   HGA30    0.090000        1.0080           0
    1631 A    204  ETH  H5   HGA30    0.090000        1.0080           0
    1632 A    204  ETH  H6   HGA30    0.090000        1.0080           0
    1633 A    205  ETH  C1   CG3310   -0.270000       12.0110           0
    1634 A    205  ETH  C2   CG3310   -0.270000       12.0110           0
    1635 A    205  ETH  H1   HGA30    0.090000        1.0080           0
    1636 A    205  ETH  H2   HGA30    0.090000        1.0080           0
    1637 A    205  ETH  H3   HGA30    0.090000        1.0080           0
    1638 A    205  ETH  H4   HGA30    0.090000        1.0080           0
    1639 A    205  ETH  H5   HGA30    0.090000        1.0080           0
    1640 A    205  ETH  H6   HGA30    0.090000        1.0080           0
    1641 A    206  ETH  C1   CG3310   -0.270000       12.0110           0
    1642 A    206  ETH  C2   CG3310   -0.270000       12.0110           0
    1643 A    206  ETH  H1   HGA30    0.090000        1.0080           0
    1644 A    206  ETH  H2   HGA30    0.090000        1.0080           0
    1645 A    206  ETH  H3   HGA30    0.090000        1.0080           0
    1646 A    206  ETH  H4   HGA30    0.090000        1.0080           0
    1647 A    206  ETH  H5   HGA30    0.090000        1.0080           0
    1648 A    206  ETH  H6   HGA30    0.090000        1.0080           0
    1649 A    207  ETH  C1   CG3310   -0.270000       12.0110           0
    1650 A    207  ETH  C2   CG3310   -0.270000       12.0110           0
    1651 A    207  ETH  H1   HGA30    0.090000        1.0080           0
    1652 A    207  ETH  H2   HGA30    0.090000        1.0080           0
    1653 A    207  ETH  H3   HGA30    0.090000        1.0080           0
    1654 A    207  ETH  H4   HGA30    0.090000        1.0080           0
    1655 A    207  ETH  H5   HGA30    0.090000        1.0080           0
    1656 A    207  ETH  H6   HGA30    0.090000        1.0080           0
    1657 A    208  ETH  C1   CG3310   -0.270000       12.0110           0
    1658 A    208  ETH  C2   CG3310   -0.270000       12.0110           0
    1659 A    208  ETH  H1   HGA30    0.090000        1.0080           0
    1660 A    208  ETH  H2   HGA30    0.090000        1.0080           0
    1661 A    208  ETH  H3   HGA30    0.090000        1.0080           0
    1662 A    208  ETH  H4   HGA30    0.090000        1.0080           0
    1663 A    208  ETH  H5   HGA30    0.090000        1.0080           0
    1664 A    208  ETH  H6   HGA30    0.090000        1.0080           0
    1665 A    209  ETH  C1   CG3310   -0.270000       12.0110           0
    1666 A    209  ETH  C2   CG3310   -0.270000       12.0110           0
    1667 A    209  ETH  H1   HGA30    0.090000        1.0080           0
    1668 A    209  ETH  H2   HGA30    0.090000        1.0080           0
    1669 A    209  ETH  H3   HGA30    0.090000        1.0080           0
    1670 A    209  ETH  H4   HGA30    0.090000        1.0080           0
    1671 A    209  ETH  H5   HGA30    0.090000        1.0080           0
    1672 A    209  ETH  H6   HGA30    0.090000        1.0080           0
    1673 A    210  ETH  C1   CG3310   -0.270000       12.0110           0
    1674 A    210  ETH  C2   CG3310   -0.270000       12.0110           0
    1675 A    210  ETH  H1   HGA30    0.090000        1.0080           0
    1676 A    210  ETH  H2   HGA30    0.090000        1.0080           0
    1677 A    210  ETH  H3   HGA30    0.090000        1.0080           0
    1678 A    210  ETH  H4   HGA30    0.090000        1.0080           0
    1679 A    210  ETH  H5   HGA30    0.090000        1.0080           0
    1680 A    210  ETH  H6   HGA30    0.090000        1.0080           0
    1681 A    211  ETH  C1   CG3310   -0.270000       12.0110           0
    1682 A    211  ETH  C2   CG3310   -0.270000       12.0110           0
    1683 A    211  ETH  H1   HGA30    0.090000        1.0080           0
    1684 A    211  ETH  H2   HGA30    0.090000        1.0080           0
    1685 A    211  ETH  H3   HGA30    0.090000        1.0080           0
    1686 A    211  ETH  H4   HGA30    0.090000        1.0080           0
    1687 A    211  ETH  H5   HGA30    0.090000        1.0080           0
    1688 A    211  ETH  H6   HGA30    0.090000        1.0080           0
    1689 A    212  ETH  C1   CG3310   -0.270000       12.0110           0
    1690 A    212  ETH  C2   CG3310   -0.270000       12.0110           0
    1691 A    212  ETH  H1   HGA30    0.090000        1.0080           0
    1692 A    212  ETH  H2   HGA30    0.090000        1.0080           0
    1693 A    212  ETH  H3   HGA30    0.090000        1.0080           0
    1694 A    212  ETH  H4   HGA30    0.090000        1.0080           0
    1695 A    212  ETH  H5   HGA30    0.090000        1.0080           0
    1696 A    212  ETH  H6   HGA30    0.090000        1.0080           0
    1697 A    213  ETH  C1   CG3310   -0.270000       12.0110           0
    1698 A    213  ETH  C2   CG3310   -0.270000       12.0110           0
    1699 A    213  ETH  H1   HGA30    0.090000        1.0080           0
    1700 A    213  ETH  H2   HGA30    0.090000        1.0080           0
    1701 A    213  ETH  H3   HGA30    0.090000        1.0080           0
    1702 A    213  ETH  H4   HGA30    0.090000        1.0080           0
    1703 A    213  ETH  H5   HGA30    0.090000        1.0080           0
    1704 A    213  ETH  H6   HGA30    0.090000        1.0080           0
    1705 A    214  ETH  C1   CG3310   -0.270000       12.0110           0
    1706 A    214  ETH  C2   CG3310   -0.270000       12.0110           0
    1707 A    214  ETH  H1   HGA30    0.090000        1.0080           0
    1708 A    214  ETH  H2   HGA30    0.090000        1.0080           0
    1709 A    214  ETH  H3   HGA30    0.090000        1.0080           0
    1710 A    214  ETH  H4   HGA30    0.090000        1.0080           0
    1711 A    214  ETH  H5   HGA30    0.090000        1.0080           0
    1712 A    214  ETH  H6   HGA30    0.090000        1.0080           0
    1713 A    215  ETH  C1   CG3310   -0.270000       12.0110           0
    1714 A    215  ETH  C2   CG3310   -0.270000       12.0110           0
    1715 A    215  ETH  H1   HGA30    0.090000        1.0080           0
    1716 A    215  ETH  H2   HGA30    0.090000        1.0080           0
    1717 A    215  ETH  H3   HGA30    0.090000        1.0080           0
    1718 A    215  ETH  H4   HGA30    0.090000        1.0080           0
    1719 A    215  ETH  H5   HGA30    0.090000        1.0080           0
    1720 A    215  ETH  H6   HGA30    0.090000        1.0080           0
    1721 A    216  ETH  C1   CG3310   -0.270000       12.0110           0
    1722 A    216  ETH  C2   CG3310   -0.270000       12.0110           0
    1723 A    216  ETH  H1   HGA30    0.090000        1.0080           0
    1724 A    216  ETH  H2   HGA30    0.090000        1.0080           0
    1725 A    216  ETH  H3   HGA30    0.090000        1.0080           0
    1726 A    216  ETH  H4   HGA30    0.090000        1.0080           0
    1727 A    216  ETH  H5   HGA30    0.090000        1.0080           0
    1728 A    216  ETH  H6   HGA30    0.090000        1.0080           0
    1729 A    217  ETH  C1   CG3310   -0.270000       12.0110           0
    1730 A    217  ETH  C2   CG3310   -0.270000       12.0110           0
    1731 A    217  ETH  H1   HGA30    0.090000        1.0080           0
    1732 A    217  ETH  H2   HGA30    0.090000        1.0080           0
    1733 A    217  ETH  H3   HGA30    0.090000        1.0080           0
    1734 A    217  ETH  H4   HGA30    0.090000        1.0080           0
    1735 A    217  ETH  H5   HGA30    0.090000        1.0080           0
    1736 A    217  ETH  H6   HGA30    0.090000        1.0080           0
    1737 A    218  ETH  C1   CG3310   -0.270000       12.0110           0
    1738 A    218  ETH  C2   CG3310   -0.270000       12.0110           0
    1739 A    218  ETH  H1   HGA30    0.090000        1.0080           0
    1740 A    218  ETH  H2   HGA30    0.090000        1.0080           0
    1741 A    218  ETH  H3   HGA30    0.090000        1.0080           0
    1742 A    218  ETH  H4   HGA30    0.090000        1.0080           0
    1743 A    218  ETH  H5   HGA30    0.090000        1.0080           0
    1744 A    218  ETH  H6   HGA30    0.090000        1.0080           0
    1745 A    219  ETH  C1   CG3310   -0.270000       12.0110           0
    1746 A    219  ETH  C2   CG3310   -0.270000       12.0110           0
    1747 A    219  ETH  H1   HGA30    0.090000        1.0080           0
    1748 A    219  ETH  H2   HGA30    0.090000        1.0080           0
    1749 A    219  ETH  H3   HGA30    0.090000        1.0080           0
    1750 A    219  ETH  H4   HGA30    0.090000        1.0080           0
    1751 A    219  ETH  H5   HGA30    0.090000        1.0080           0
    1752 A    219  ETH  H6   HGA30    0.090000        1.0080           0
    1753 A    220  ETH  C1   CG3310   -0.270000       12.0110           0
    1754 A    220  ETH  C2   CG3310   -0.270000       12.0110           0
    1755 A    220  ETH  H1   HGA30    0.090000        1.0080           0
    1756 A    220  ETH  H2   HGA30    0.090000        1.0080           0
    1757 A    220  ETH  H3   HGA30    0.090000        1.0080           0
    1758 A    220  ETH  H4   HGA30    0.090000        1.0080           0
    1759 A    220  ETH  H5   HGA30    0.090000        1.0080           0
    1760 A    220  ETH  H6   HGA30    0.090000        1.0080           0
    1761 A    221  ETH  C1   CG3310   -0.270000       12.0110           0
    1762 A    221  ETH  C2   CG3310   -0.270000       12.0110           0
    1763 A    221  ETH  H1   HGA30    0.090000        1.0080           0
    1764 A    221  ETH  H2   HGA30    0.090000        1.0080           0
    1765 A    221  ETH  H3   HGA30    0.090000        1.0080           0
    1766 A    221  ETH  H4   HGA30    0.090000        1.0080           0
    1767 A    221  ETH  H5   HGA30    0.090000        1.0080           0
    1768 A    221  ETH  H6   HGA30    0.090000        1.0080           0
    1769 A    222  ETH  C1   CG3310   -0.270000       12.0110           0
    1770 A    222  ETH  C2   CG3310   -0.270000       12.0110           0
    1771 A    222  ETH  H1   HGA30    0.090000        1.0080           0
    1772 A    222  ETH  H2   HGA30    0.090000        1.0080           0
    1773 A    222  ETH  H3   HGA30    0.090000        1.0080           0
    1774 A    222  ETH  H4   HGA30    0.090000        1.0080           0
    1775 A    222  ETH  H5   HGA30    0.090000        1.0080           0
    1776 A    222  ETH  H6   HGA30    0.090000        1.0080           0
    1777 A    223  ETH  C1   CG3310   -0.270000       12.0110           0
    1778 A    223  ETH  C2   CG3310   -0.270000       12.0110           0
    1779 A    223  ETH  H1   HGA30    0.090000        1.0080           0
    1780 A    223  ETH  H2   HGA30    0.090000        1.0080           0
    1781 A    223  ETH  H3   HGA30    0.090000        1.0080           0
    1782 A    223  ETH  H4   HGA30    0.090000        1.0080           0
    1783 A    223  ETH  H5   HGA30    0.090000        1.0080           0
    1784 A    223  ETH  H6   HGA30    0.090000        1.0080           0
    1785 A    224  ETH  C1   CG3310   -0.270000       12.0110           0
    1786 A    224  ETH  C2   CG3310   -0.270000       12.0110           0
    1787 A    224  ETH  H1   HGA30    0.090000        1.0080           0
    1788 A    224  ETH  H2   HGA30    0.090000        1.0080           0
    1789 A    224  ETH  H3   HGA30    0.090000        1.0080           0
    1790 A    224  ETH  H4   HGA30    0.090000        1.0080           0
    1791 A    224  ETH  H5   HGA30    0.090000        1.0080           0
    1792 A    224  ETH  H6   HGA30    0.090000        1.0080           0
    1793 A    225  ETH  C1   CG3310   -0.270000       12.0110           0
    1794 A    225  ETH  C2   CG3310   -0.270000       12.0110           0
    1795 A    225  ETH  H1   HGA30    0.090000        1.0080           0
    1796 A    225  ETH  H2   HGA30    0.090000        1.0080           0
    1797 A    225  ETH  H3   HGA30    0.090000        1.0080           0
    1798 A    225  ETH  H4   HGA30    0.090000        1.0080           0
    1799 A    225  ETH  H5   HGA30    0.090000        1.0080           0
    1800 A    225  ETH  H6   HGA30    0.090000        1.0080           0
    1801 A    226  ETH  C1   CG3310   -0.270000       12.0110           0
    1802 A    226  ETH  C2   CG3310   -0.270000       12.0110           0
    1803 A    226  ETH  H1   HGA30    0.090000        1.0080           0
    1804 A    226  ETH  H2   HGA30    0.090000        1.0080           0
    1805 A    226  ETH  H3   HGA30    0.090000        1.0080           0
    1806 A    226  ETH  H4   HGA30    0.090000        1.0080           0
    1807 A    226  ETH  H5   HGA30    0.090000        1.0080           0
    1808 A    226  ETH  H6   HGA30    0.090000        1.0080           0
    1809 A    227  ETH  C1   CG3310   -0.270000       12.0110           0
    1810 A    227  ETH  C2   CG3310   -0.270000       12.0110           0
    1811 A    227  ETH  H1   HGA30    0.090000        1.0080           0
    1812 A    227  ETH  H2   HGA30    0.090000        1.0080           0
    1813 A    227  ETH  H3   HGA30    0.090000        1.0080           0
    1814 A    227  ETH  H4   HGA30    0.090000        1.0080           0
    1815 A    227  ETH  H5   HGA30    0.090000        1.0080           0
    1816 A    227  ETH  H6   HGA30    0.090000        1.0080           0
    1817 A    228  ETH  C1   CG3310   -0.270000       12.0110           0
    1818 A    228  ETH  C2   CG3310   -0.270000       12.0110           0
    1819 A    228  ETH  H1   HGA30    0.090000        1.0080           0
    1820 A    228  ETH  H2   HGA30    0.090000        1.0080           0
    1821 A    228  ETH  H3   HGA30    0.090000        1.0080           0
    1822 A    228  ETH  H4   HGA30    0.090000        1.0080           0
    1823 A    228  ETH  H5   HGA30    0.090000        1.0080           0
    1824 A    228  ETH  H6   HGA30    0.090000        1.0080           0
    1825 A    229  ETH  C1   CG3310   -0.270000       12.0110           0
    1826 A    229  ETH  C2   CG3310   -0.270000       12.0110           0
    1827 A    229  ETH  H1   HGA30    0.090000        1.0080           0
    1828 A    229  ETH  H2   HGA30    0.090000        1.0080           0
    1829 A    229  ETH  H3   HGA30    0.090000        1.0080           0
    1830 A    229  ETH  H4   HGA30    0.090000        1.0080           0
    1831 A    229  ETH  H5   HGA30    0.090000        1.0080           0
    1832 A    229  ETH  H6   HGA30    0.090000        1.0080           0
    1833 A    230  ETH  C1   CG3310   -0.270000       12.0110           0
    1834 A    230  ETH  C2   CG3310   -0.270000       12.0110           0
    1835 A    230  ETH  H1   HGA30    0.090000        1.0080           0
    1836 A    230  ETH  H2   HGA30    0.090000        1.0080           0
    1837 A    230  ETH  H3   HGA30    0.090000        1.0080           0
    1838 A    230  ETH  H4   HGA30    0.090000        1.0080           0
    1839 A    230  ETH  H5   HGA30    0.090000        1.0080           0
    1840 A    230  ETH  H6   HGA30    0.090000        1.0080           0
    1841 A    231  ETH  C1   CG3310   -0.270000       12.0110           0
    1842 A    231  ETH  C2   CG3310   -0.270000       12.0110           0
    1843 A    231  ETH  H1   HGA30    0.090000        1.0080           0
    1844 A    231  ETH  H2   HGA30    0.090000        1.0080           0
    1845 A    231  ETH  H3   HGA30    0.090000        1.0080           0
    1846 A    231  ETH  H4   HGA30    0.090000        1.0080           0
    1847 A    231  ETH  H5   HGA30    0.090000        1.0080           0
    1848 A    231  ETH  H6   HGA30    0.090000        1.0080           0
    1849 A    232  ETH  C1   CG3310   -0.270000       12.0110           0
    1850 A    232  ETH  C2   CG3310   -0.270000       12.0110           0
    1851 A    232  ETH  H1   HGA30    0.090000        1.0080           0
    1852 A    232  ETH  H2   HGA30    0.090000        1.0080           0
    1853 A    232  ETH  H3   HGA30    0.090000        1.0080           0
    1854 A    232  ETH  H4   HGA30    0.090000        1.0080           0
    1855 A    232  ETH  H5   HGA30    0.090000        1.0080           0
    1856 A    232  ETH  H6   HGA30    0.090000        1.0080           0
    1857 A    233  ETH  C1   CG3310   -0.270000       12.0110           0
    1858 A    233  ETH  C2   CG3310   -0.270000       12.0110           0
    1859 A    233  ETH  H1   HGA30    0.090000        1.0080           0
    1860 A    233  ETH  H2   HGA30    0.090000        1.0080           0
    1861 A    233  ETH  H3   HGA30    0.090000        1.0080           0
    1862 A    233  ETH  H4   HGA30    0.090000        1.0080           0
    1863 A    233  ETH  H5   HGA30    0.090000        1.0080           0
    1864 A    233  ETH  H6   HGA30    0.090000        1.0080           0
    1865 A    234  ETH  C1   CG3310   -0.270000       12.0110           0
    1866 A    234  ETH  C2   CG3310   -0.270000       12.0110           0
    1867 A    234  ETH  H1   HGA30    0.090000        1.0080           0
    1868 A    234  ETH  H2   HGA30    0.090000        1.0080           0
    1869 A    234  ETH  H3   HGA30    0.090000        1.0080           0
    1870 A    234  ETH  H4   HGA30    0.090000        1.0080           0
    1871 A    234  ETH  H5   HGA30    0.090000        1.0080           0
    1872 A    234  ETH  H6   HGA30    0.090000        1.0080           0
    1873 A    235  ETH  C1   CG3310   -0.270000       12.0110           0
    1874 A    235  ETH  C2   CG3310   -0.270000       12.0110           0
    1875 A    235  ETH  H1   HGA30    0.090000        1.0080           0
    1876 A    235  ETH  H2   HGA30    0.090000        1.0080           0
    1877 A    235  ETH  H3   HGA30    0.090000        1.0080           0
    1878 A    235  ETH  H4   HGA30    0.090000        1.0080           0
    1879 A    235  ETH  H5   HGA30    0.090000        1.0080           0
    1880 A    235  ETH  H6   HGA30    0.090000        1.0080           0
    1881 A    236  ETH  C1   CG3310   -0.270000       12.0110           0
    1882 A    236  ETH  C2   CG3310   -0.270000       12.0110           0
    1883 A    236  ETH  H1   HGA30    0.090000        1.0080           0
    1884 A    236  ETH  H2   HGA30    0.090000        1.0080           0
    1885 A    236  ETH  H3   HGA30    0.090000        1.0080           0
    1886 A    236  ETH  H4   HGA30    0.090000        1.0080           0
    1887 A    236  ETH  H5   HGA30    0.090000        1.0080           0
    1888 A    236  ETH  H6   HGA30    0.090000        1.0080           0
    1889 A    237  ETH  C1   CG3310   -0.270000       12.0110           0
    1890 A    237  ETH  C2   CG3310   -0.270000       12.0110           0
    1891 A    237  ETH  H1   HGA30    0.090000        1.0080           0
    1892 A    237  ETH  H2   HGA30    0.090000        1.0080           0
    1893 A    237  ETH  H3   HGA30    0.090000        1.0080           0
    1894 A    237  ETH  H4   HGA30    0.090000        1.0080           0
    1895 A    237  ETH  H5   HGA30    0.090000        1.0080           0
    1896 A    237  ETH  H6   HGA30    0.090000        1.0080           0
    1897 A    238  ETH  C1   CG3310   -0.270000       12.0110           0
    1898 A    238  ETH  C2   CG3310   -0.270000       12.0110           0
    1899 A    238  ETH  H1   HGA30    0.090000        1.0080           0
    1900 A    238  ETH  H2   HGA30    0.090000        1.0080           0
    1901 A    238  ETH  H3   HGA30    0.090000        1.0080           0
    1902 A    238  ETH  H4   HGA30    0.090000        1.0080           0
    1903 A    238  ETH  H5   HGA30    0.090000        1.0080           0
    1904 A    238  ETH  H6   HGA30    0.090000        1.0080           0
    1905 A    239  ETH  C1   CG3310   -0.270000       12.0110           0
    1906 A    239  ETH  C2   CG3310   -0.270000       12.0110           0
    1907 A    239  ETH  H1   HGA30    0.090000        1.0080           0
    1908 A    239  ETH  H2   HGA30    0.090000        1.0080           0
    1909 A    239  ETH  H3   HGA30    0.090000        1.0080           0
    1910 A    239  ETH  H4   HGA30    0.090000        1.0080           0
    1911 A    239  ETH  H5   HGA30    0.090000        1.0080           0
    1912 A    239  ETH  H6   HGA30    0.090000        1.0080           0
    1913 A    240  ETH  C1   CG3310   -0.270000       12.0110           0
    1914 A    240  ETH  C2   CG3310   -0.270000       12.0110           0
    1915 A    240  ETH  H1   HGA30    0.090000        1.0080           0
    1916 A    240  ETH  H2   HGA30    0.090000        1.0080           0
    1917 A    240  ETH  H3   HGA30    0.090000        1.0080           0
    1918 A    240  ETH  H4   HGA30    0.090000        1.0080           0
    1919 A    240  ETH  H5   HGA30    0.090000        1.0080           0
    1920 A    240  ETH  H6   HGA30    0.090000        1.0080           0
    1921 A    241  ETH  C1   CG3310   -0.270000       12.0110           0
    1922 A    241  ETH  C2   CG3310   -0.270000       12.0110           0
    1923 A    241  ETH  H1   HGA30    0.090000        1.0080           0
    1924 A    241  ETH  H2   HGA30    0.090000        1.0080           0
    1925 A    241  ETH  H3   HGA30    0.090000        1.0080           0
    1926 A    241  ETH  H4   HGA30    0.090000        1.0080           0
    1927 A    241  ETH  H5   HGA30    0.090000        1.0080           0
    1928 A    241  ETH  H6   HGA30    0.090000        1.0080           0
    1929 A    242  ETH  C1   CG3310   -0.270000       12.0110           0
    1930 A    242  ETH  C2   CG3310   -0.270000       12.0110           0
    1931 A    242  ETH  H1   HGA30    0.090000        1.0080           0
    1932 A    242  ETH  H2   HGA30    0.090000        1.0080           0
    1933 A    242  ETH  H3   HGA30    0.090000        1.0080           0
    1934 A    242  ETH  H4   HGA30    0.090000        1.0080           0
    1935 A    242  ETH  H5   HGA30    0.090000        1.0080           0
    1936 A    242  ETH  H6   HGA30    0.090000        1.0080           0
    1937 A    243  ETH  C1   CG3310   -0.270000       12.0110           0
    1938 A    243  ETH  C2   CG3310   -0.270000       12.0110           0
    1939 A    243  ETH  H1   HGA30    0.090000        1.0080           0
    1940 A    243  ETH  H2   HGA30    0.090000        1.0080           0
    1941 A    243  ETH  H3   HGA30    0.090000        1.0080           0
    1942 A    243  ETH  H4   HGA30    0.090000        1.0080           0
    1943 A    243  ETH  H5   HGA30    0.090000        1.0080           0
    1944 A    243  ETH  H6   HGA30    0.090000        1.0080           0
    1945 A    244  ETH  C1   CG3310   -0.270000       12.0110           0
    1946 A    244  ETH  C2   CG3310   -0.270000       12.0110           0
    1947 A    244  ETH  H1   HGA30    0.090000        1.0080           0
    1948 A    244  ETH  H2   HGA30    0.090000        1.0080           0
    1949 A    244  ETH  H3   HGA30    0.090000        1.0080           0
    1950 A    244  ETH  H4   HGA30    0.090000        1.0080           0
    1951 A    244  ETH  H5   HGA30    0.090000        1.0080           0
    1952 A    244  ETH  H6   HGA30    0.090000        1.0080           0
    1953 A    245  ETH  C1   CG3310   -0.270000       12.0110           0
    1954 A    245  ETH  C2   CG3310   -0.270000       12.0110           0
    1955 A    245  ETH  H1   HGA30    0.090000        1.0080           0
    1956 A    245  ETH  H2   HGA30    0.090000        1.0080           0
    1957 A    245  ETH  H3   HGA30    0.090000        1.0080           0
    1958 A    245  ETH  H4   HGA30    0.090000        1.0080           0
    1959 A    245  ETH  H5   HGA30    0.090000        1.0080           0
    1960 A    245  ETH  H6   HGA30    0.090000        1.0080           0
    1961 A    246  ETH  C1   CG3310   -0.270000       12.0110           0
    1962 A    246  ETH  C2   CG3310   -0.270000       12.0110           0
    1963 A    246  ETH  H1   HGA30    0.090000        1.0080           0
    1964 A    246  ETH  H2   HGA30    0.090000        1.0080           0
    1965 A    246  ETH  H3   HGA30    0.090000        1.0080           0
    1966 A    246  ETH  H4   HGA30    0.090000        1.0080           0
    1967 A    246  ETH  H5   HGA30    0.090000        1.0080           0
    1968 A    246  ETH  H6   HGA30    0.090000        1.0080           0
    1969 A    247  ETH  C1   CG3310   -0.270000       12.0110           0
    1970 A    247  ETH  C2   CG3310   -0.270000       12.0110           0
    1971 A    247  ETH  H1   HGA30    0.090000        1.0080           0
    1972 A    247  ETH  H2   HGA30    0.090000        1.0080           0
    1973 A    247  ETH  H3   HGA30    0.090000        1.0080           0
    1974 A    247  ETH  H4   HGA30    0.090000        1.0080           0
    1975 A    247  ETH  H5   HGA30    0.090000        1.0080           0
    1976 A    247  ETH  H6   HGA30    0.090000        1.0080           0
    1977 A    248  ETH  C1   CG3310   -0.270000       12.0110           0
    1978 A    248  ETH  C2   CG3310   -0.270000       12.0110           0
    1979 A    248  ETH  H1   HGA30    0.090000        1.0080           0
    1980 A    248  ETH  H2   HGA30    0.090000        1.0080           0
    1981 A    248  ETH  H3   HGA30    0.090000        1.0080           0
    1982 A    248  ETH  H4   HGA30    0.090000        1.0080           0
    1983 A    248  ETH  H5   HGA30    0.090000        1.0080           0
    1984 A    248  ETH  H6   HGA30    0.090000        1.0080           0
    1985 A    249  ETH  C1   CG3310   -0.270000       12.0110           0
    1986 A    249  ETH  C2   CG3310   -0.270000       12.0110           0
    1987 A    249  ETH  H1   HGA30    0.090000        1.0080           0
    1988 A    249  ETH  H2   HGA30    0.090000        1.0080           0
    1989 A    249  ETH  H3   HGA30    0.090000        1.0080           0
    1990 A    249  ETH  H4   HGA30    0.090000        1.0080           0
    1991 A    249  ETH  H5   HGA30    0.090000        1.0080           0
    1992 A    249  ETH  H6   HGA30    0.090000        1.0080           0
    1993 A    250  ETH  C1   CG3310   -0.270000       12.0110           0
    1994 A    250  ETH  C2   CG3310   -0.270000       12.0110           0
    1995 A    250  ETH  H1   HGA30    0.090000        1.0080           0
    1996 A    250  ETH  H2   HGA30    0.090000        1.0080           0
    1997 A    250  ETH  H3   HGA30    0.090000        1.0080           0
    1998 A    250  ETH  H4   HGA30    0.090000        1.0080           0
    1999 A    250  ETH  H5   HGA30    0.090000        1.0080           0
    2000 A    250  ETH  H6   HGA30    0.090000        1.0080           0
    2001 A    251  ETH  C1   CG3310   -0.270000       12.0110           0
    2002 A    251  ETH  C2   CG3310   -0.270000       12.0110           0
    2003 A    251  ETH  H1   HGA30    0.090000        1.0080           0
    2004 A    251  ETH  H2   HGA30    0.090000        1.0080           0
    2005 A    251  ETH  H3   HGA30    0.090000        1.0080           0
    2006 A    251  ETH  H4   HGA30    0.090000        1.0080           0
    2007 A    251  ETH  H5   HGA30    0.090000        1.0080           0
    2008 A    251  ETH  H6   HGA30    0.090000        1.0080           0
    2009 A    252  ETH  C1   CG3310   -0.270000       12.0110           0
    2010 A    252  ETH  C2   CG3310   -0.270000       12.0110           0
    2011 A    252  ETH  H1   HGA30    0.090000        1.0080           0
    2012 A    252  ETH  H2   HGA30    0.090000        1.0080           0
    2013 A    252  ETH  H3   HGA30    0.090000        1.0080           0
    2014 A    252  ETH  H4   HGA30    0.090000        1.0080           0
    2015 A    252  ETH  H5   HGA30    0.090000        1.0080           0
    2016 A    252  ETH  H6   HGA30    0.090000        1.0080           0
    2017 A    253  ETH  C1   CG3310   -0.270000       12.0110           0
    2018 A    253  ETH  C2   CG3310   -0.270000       12.0110           0
    2019 A    253  ETH  H1   HGA30    0.090000        1.0080           0
    2020 A    253  ETH  H2   HGA30    0.090000        1.0080           0
    2021 A    253  ETH  H3   HGA30    0.090000        1.0080           0
    2022 A    253  ETH  H4   HGA30    0.090000        1.0080           0
    2023 A    253  ETH  H5   HGA30    0.090000        1.0080           0
    2024 A    253  ETH  H6   HGA30    0.090000        1.0080           0
    2025 A    254  ETH  C1   CG3310   -0.270000       12.0110           0
    2026 A    254  ETH  C2   CG3310   -0.270000       12.0110           0
    2027 A    254  ETH  H1   HGA30    0.090000        1.0080           0
    2028 A    254  ETH  H2   HGA30    0.090000        1.0080           0
    2029 A    254  ETH  H3   HGA30    0.090000        1.0080           0
    2030 A    254  ETH  H4   HGA30    0.090000        1.0080           0
    2031 A    254  ETH  H5   HGA30    0.090000        1.0080           0
    2032 A    254  ETH  H6   HGA30    0.090000        1.0080           0
    2033 A    255  ETH  C1   CG3310   -0.270000       12.0110           0
    2034 A    255  ETH  C2   CG3310   -0.270000       12.0110           0
    2035 A    255  ETH  H1   HGA30    0.090000        1.0080           0
    2036 A    255  ETH  H2   HGA30    0.090000        1.0080           0
    2037 A    255  ETH  H3   HGA30    0.090000        1.0080           0
    2038 A    255  ETH  H4   HGA30    0.090000        1.0080           0
    2039 A    255  ETH  H5   HGA30    0.090000        1.0080           0
    2040 A    255  ETH  H6   HGA30    0.090000        1.0080           0
    2041 A    256  ETH  C1   CG3310   -0.270000       12.0110           0
    2042 A    256  ETH  C2   CG3310   -0.270000       12.0110           0
    2043 A    256  ETH  H1   HGA30    0.090000        1.0080           0
    2044 A    256  ETH  H2   HGA30    0.090000        1.0080           0
    2045 A    256  ETH  H3   HGA30    0.090000        1.0080           0
    2046 A    256  ETH  H4   HGA30    0.090000        1.0080           0
    2047 A    256  ETH  H5   HGA30    0.090000        1.0080           0
    2048 A    256  ETH  H6   HGA30    0.090000        1.0080           0
    2049 A    257  ETH  C1   CG3310   -0.270000       12.0110           0
    2050 A    257  ETH  C2   CG3310   -0.270000       12.0110           0
    2051 A    257  ETH  H1   HGA30    0.090000        1.0080           0
    2052 A    257  ETH  H2   HGA30    0.090000        1.0080           0
    2053 A    257  ETH  H3   HGA30    0.090000        1.0080           0
    2054 A    257  ETH  H4   HGA30    0.090000        1.0080           0
    2055 A    257  ETH  H5   HGA30    0.090000        1.0080           0
    2056 A    257  ETH  H6   HGA30    0.090000        1.0080           0
    2057 A    258  ETH  C1   CG3310   -0.270000       12.0110           0
    2058 A    258  ETH  C2   CG3310   -0.270000       12.0110           0
    2059 A    258  ETH  H1   HGA30    0.090000        1.0080           0
    2060 A    258  ETH  H2   HGA30    0.090000        1.0080           0
    2061 A    258  ETH  H3   HGA30    0.090000        1.0080           0
    2062 A    258  ETH  H4   HGA30    0.090000        1.0080           0
    2063 A    258  ETH  H5   HGA30    0.090000        1.0080           0
    2064 A    258  ETH  H6   HGA30    0.090000        1.0080           0
    2065 A    259  ETH  C1   CG3310   -0.270000       12.0110           0
    2066 A    259  ETH  C2   CG3310   -0.270000       12.0110           0
    2067 A    259  ETH  H1   HGA30    0.090000        1.0080           0
    2068 A    259  ETH  H2   HGA30    0.090000        1.0080           0
    2069 A    259  ETH  H3   HGA30    0.090000        1.0080           0
    2070 A    259  ETH  H4   HGA30    0.090000        1.0080           0
    2071 A    259  ETH  H5   HGA30    0.090000        1.0080           0
    2072 A    259  ETH  H6   HGA30    0.090000        1.0080           0
    2073 A    260  ETH  C1   CG3310   -0.270000       12.0110           0
    2074 A    260  ETH  C2   CG3310   -0.270000       12.0110           0
    2075 A    260  ETH  H1   HGA30    0.090000        1.0080           0
    2076 A    260  ETH  H2   HGA30    0.090000        1.0080           0
    2077 A    260  ETH  H3   HGA30    0.090000        1.0080           0
    2078 A    260  ETH  H4   HGA30    0.090000        1.0080           0
    2079 A    260  ETH  H5   HGA30    0.090000        1.0080           0
    2080 A    260  ETH  H6   HGA30    0.090000        1.0080           0
    2081 A    261  ETH  C1   CG3310   -0.270000       12.0110           0
    2082 A    261  ETH  C2   CG3310   -0.270000       12.0110           0
    2083 A    261  ETH  H1   HGA30    0.090000        1.0080           0
    2084 A    261  ETH  H2   HGA30    0.090000        1.0080           0
    2085 A    261  ETH  H3   HGA30    0.090000        1.0080           0
    2086 A    261  ETH  H4   HGA30    0.090000        1.0080           0
    2087 A    261  ETH  H5   HGA30    0.090000        1.0080           0
    2088 A    261  ETH  H6   HGA30    0.090000        1.0080           0
    2089 A    262  ETH  C1   CG3310   -0.270000       12.0110           0
    2090 A    262  ETH  C2   CG3310   -0.270000       12.0110           0
    2091 A    262  ETH  H1   HGA30    0.090000        1.0080           0
    2092 A    262  ETH  H2   HGA30    0.090000        1.0080           0
    2093 A    262  ETH  H3   HGA30    0.090000        1.0080           0
    2094 A    262  ETH  H4   HGA30    0.090000        1.0080           0
    2095 A    262  ETH  H5   HGA30    0.090000        1.0080           0
    2096 A    262  ETH  H6   HGA30    0.090000        1.0080           0
    2097 A    263  ETH  C1   CG3310   -0.270000       12.0110           0
    2098 A    263  ETH  C2   CG3310   -0.270000       12.0110           0
    2099 A    263  ETH  H1   HGA30    0.090000        1.0080           0
    2100 A    263  ETH  H2   HGA30    0.090000        1.0080           0
    2101 A    263  ETH  H3   HGA30    0.090000        1.0080           0
    2102 A    263  ETH  H4   HGA30    0.090000        1.0080           0
    2103 A    263  ETH  H5   HGA30    0.090000        1.0080           0
    2104 A    263  ETH  H6   HGA30    0.090000        1.0080           0
    2105 A    264  ETH  C1   CG3310   -0.270000       12.0110           0
    2106 A    264  ETH  C2   CG3310   -0.270000       12.0110           0
    2107 A    264  ETH  H1   HGA30    0.090000        1.0080           0
    2108 A    264  ETH  H2   HGA30    0.090000        1.0080           0
    2109 A    264  ETH  H3   HGA30    0.090000        1.0080           0
    2110 A    264  ETH  H4   HGA30    0.090000        1.0080           0
    2111 A    264  ETH  H5   HGA30    0.090000        1.0080           0
    2112 A    264  ETH  H6   HGA30    0.090000        1.0080           0
    2113 A    265  ETH  C1   CG3310   -0.270000       12.0110           0
    2114 A    265  ETH  C2   CG3310   -0.270000       12.0110           0
    2115 A    265  ETH  H1   HGA30    0.090000        1.0080           0
    2116 A    265  ETH  H2   HGA30    0.090000        1.0080           0
    2117 A    265  ETH  H3   HGA30    0.090000        1.0080           0
    2118 A    265  ETH  H4   HGA30    0.090000        1.0080           0
    2119 A    265  ETH  H5   HGA30    0.090000        1.0080           0
    2120 A    265  ETH  H6   HGA30    0.090000        1.0080           0
    2121 A    266  ETH  C1   CG3310   -0.270000       12.0110           0
    2122 A    266  ETH  C2   CG3310   -0.270000       12.0110           0
    2123 A    266  ETH  H1   HGA30    0.090000        1.0080           0
    2124 A    266  ETH  H2   HGA30    0.090000        1.0080           0
    2125 A    266  ETH  H3   HGA30    0.090000        1.0080           0
    2126 A    266  ETH  H4   HGA30    0.090000        1.0080           0
    2127 A    266  ETH  H5   HGA30    0.090000        1.0080           0
    2128 A    266  ETH  H6   HGA30    0.090000        1.0080           0
    2129 A    267  ETH  C1   CG3310   -0.270000       12.0110           0
    2130 A    267  ETH  C2   CG3310   -0.270000       12.0110           0
    2131 A    267  ETH  H1   HGA30    0.090000        1.0080           0
    2132 A    267  ETH  H2   HGA30    0.090000        1.0080           0
    2133 A    267  ETH  H3   HGA30    0.090000        1.0080           0
    2134 A    267  ETH  H4   HGA30    0.090000        1.0080           0
    2135 A    267  ETH  H5   HGA30    0.090000        1.0080           0
    2136 A    267  ETH  H6   HGA30    0.090000        1.0080           0
    2137 A    268  ETH  C1   CG3310   -0.270000       12.0110           0
    2138 A    268  ETH  C2   CG3310   -0.270000       12.0110           0
    2139 A    268  ETH  H1   HGA30    0.090000        1.0080           0
    2140 A    268  ETH  H2   HGA30    0.090000        1.0080           0
    2141 A    268  ETH  H3   HGA30    0.090000        1.0080           0
    2142 A    268  ETH  H4   HGA30    0.090000        1.0080           0
    2143 A    268  ETH  H5   HGA30    0.090000        1.0080           0
    2144 A    268  ETH  H6   HGA30    0.090000        1.0080           0
    2145 A    269  ETH  C1   CG3310   -0.270000       12.0110           0
    2146 A    269  ETH  C2   CG3310   -0.270000       12.0110           0
    2147 A    269  ETH  H1   HGA30    0.090000        1.0080           0
    2148 A    269  ETH  H2   HGA30    0.090000        1.0080           0
    2149 A    269  ETH  H3   HGA30    0.090000        1.0080           0
    2150 A    269  ETH  H4   HGA30    0.090000        1.0080           0
    2151 A    269  ETH  H5   HGA30    0.090000        1.0080           0
    2152 A    269  ETH  H6   HGA30    0.090000        1.0080           0
    2153 A    270  ETH  C1   CG3310   -0.270000       12.0110           0
    2154 A    270  ETH  C2   CG3310   -0.270000       12.0110           0
    2155 A    270  ETH  H1   HGA30    0.090000        1.0080           0
    2156 A    270  ETH  H2   HGA30    0.090000        1.0080           0
    2157 A    270  ETH  H3   HGA30    0.090000        1.0080           0
    2158 A    270  ETH  H4   HGA30    0.090000        1.0080           0
    2159 A    270  ETH  H5   HGA30    0.090000        1.0080           0
    2160 A    270  ETH  H6   HGA30    0.090000        1.0080           0
    2161 A    271  ETH  C1   CG3310   -0.270000       12.0110           0
    2162 A    271  ETH  C2   CG3310   -0.270000       12.0110           0
    2163 A    271  ETH  H1   HGA30    0.090000        1.0080           0
    2164 A    271  ETH  H2   HGA30    0.090000        1.0080           0
    2165 A    271  ETH  H3   HGA30    0.090000        1.0080           0
    2166 A    271  ETH  H4   HGA30    0.090000        1.0080           0
    2167 A    271  ETH  H5   HGA30    0.090000        1.0080           0
    2168 A    271  ETH  H6   HGA30    0.090000        1.0080           0
    2169 A    272  ETH  C1   CG3310   -0.270000       12.0110           0
    2170 A    272  ETH  C2   CG3310   -0.270000       12.0110           0
    2171 A    272  ETH  H1   HGA30    0.090000        1.0080           0
    2172 A    272  ETH  H2   HGA30    0.090000        1.0080           0
    2173 A    272  ETH  H3   HGA30    0.090000        1.0080           0
    2174 A    272  ETH  H4   HGA30    0.090000        1.0080           0
    2175 A    272  ETH  H5   HGA30    0.090000        1.0080           0
    2176 A    272  ETH  H6   HGA30    0.090000        1.0080           0
    2177 A    273  ETH  C1   CG3310   -0.270000       12.0110           0
    2178 A    273  ETH  C2   CG3310   -0.270000       12.0110           0
    2179 A    273  ETH  H1   HGA30    0.090000        1.0080           0
    2180 A    273  ETH  H2   HGA30    0.090000        1.0080           0
    2181 A    273  ETH  H3   HGA30    0.090000        1.0080           0
    2182 A    273  ETH  H4   HGA30    0.090000        1.0080           0
    2183 A    273  ETH  H5   HGA30    0.090000        1.0080           0
    2184 A    273  ETH  H6   HGA30    0.090000        1.0080           0
    2185 A    274  ETH  C1   CG3310   -0.270000       12.0110           0
    2186 A    274  ETH  C2   CG3310   -0.270000       12.0110           0
    2187 A    274  ETH  H1   HGA30    0.090000        1.0080           0
    2188 A    274  ETH  H2   HGA30    0.090000        1.0080           0
    2189 A    274  ETH  H3   HGA30    0.090000        1.0080           0
    2190 A    274  ETH  H4   HGA30    0.090000        1.0080           0
    2191 A    274  ETH  H5   HGA30    0.090000        1.0080           0
    2192 A    274  ETH  H6   HGA30    0.090000        1.0080           0
    2193 A    275  ETH  C1   CG3310   -0.270000       12.0110           0
    2194 A    275  ETH  C2   CG3310   -0.270000       12.0110           0
    2195 A    275  ETH  H1   HGA30    0.090000        1.0080           0
    2196 A    275  ETH  H2   HGA30    0.090000        1.0080           0
    2197 A    275  ETH  H3   HGA30    0.090000        1.0080           0
    2198 A    275  ETH  H4   HGA30    0.090000        1.0080           0
    2199 A    275  ETH  H5   HGA30    0.090000        1.0080           0
    2200 A    275  ETH  H6   HGA30    0.090000        1.0080           0
    2201 A    276  ETH  C1   CG3310   -0.270000       12.0110           0
    2202 A    276  ETH  C2   CG3310   -0.270000       12.0110           0
    2203 A    276  ETH  H1   HGA30    0.090000        1.0080           0
    2204 A    276  ETH  H2   HGA30    0.090000        1.0080           0
    2205 A    276  ETH  H3   HGA30    0.090000        1.0080           0
    2206 A    276  ETH  H4   HGA30    0.090000        1.0080           0
    2207 A    276  ETH  H5   HGA30    0.090000        1.0080           0
    2208 A    276  ETH  H6   HGA30    0.090000        1.0080           0
    2209 A    277  ETH  C1   CG3310   -0.270000       12.0110           0
    2210 A    277  ETH  C2   CG3310   -0.270000       12.0110           0
    2211 A    277  ETH  H1   HGA30    0.090000        1.0080           0
    2212 A    277  ETH  H2   HGA30    0.090000        1.0080           0
    2213 A    277  ETH  H3   HGA30    0.090000        1.0080           0
    2214 A    277  ETH  H4   HGA30    0.090000        1.0080           0
    2215 A    277  ETH  H5   HGA30    0.090000        1.0080           0
    2216 A    277  ETH  H6   HGA30    0.090000        1.0080           0
    2217 A    278  ETH  C1   CG3310   -0.270000       12.0110           0
    2218 A    278  ETH  C2   CG3310   -0.270000       12.0110           0
    2219 A    278  ETH  H1   HGA30    0.090000        1.0080           0
    2220 A    278  ETH  H2   HGA30    0.090000        1.0080           0
    2221 A    278  ETH  H3   HGA30    0.090000        1.0080           0
    2222 A    278  ETH  H4   HGA30    0.090000        1.0080           0
    2223 A    278  ETH  H5   HGA30    0.090000        1.0080           0
    2224 A    278  ETH  H6   HGA30    0.090000        1.0080           0
    2225 A    279  ETH  C1   CG3310   -0.270000       12.0110           0
    2226 A    279  ETH  C2   CG3310   -0.270000       12.0110           0
    2227 A    279  ETH  H1   HGA30    0.090000        1.0080           0
    2228 A    279  ETH  H2   HGA30    0.090000        1.0080           0
    2229 A    279  ETH  H3   HGA30    0.090000        1.0080           0
    2230 A    279  ETH  H4   HGA30    0.090000        1.0080           0
    2231 A    279  ETH  H5   HGA30    0.090000        1.0080           0
    2232 A    279  ETH  H6   HGA30    0.090000        1.0080           0
    2233 A    280  ETH  C1   CG3310   -0.270000       12.0110           0
    2234 A    280  ETH  C2   CG3310   -0.270000       12.0110           0
    2235 A    280  ETH  H1   HGA30    0.090000        1.0080           0
    2236 A    280  ETH  H2   HGA30    0.090000        1.0080           0
    2237 A    280  ETH  H3   HGA30    0.090000        1.0080           0
    2238 A    280  ETH  H4   HGA30    0.090000        1.0080           0
    2239 A    280  ETH  H5   HGA30    0.090000        1.0080           0
    2240 A    280  ETH  H6   HGA30    0.090000        1.0080           0
    2241 A    281  ETH  C1   CG3310   -0.270000       12.0110           0
    2242 A    281  ETH  C2   CG3310   -0.270000       12.0110           0
    2243 A    281  ETH  H1   HGA30    0.090000        1.0080           0
    2244 A    281  ETH  H2   HGA30    0.090000        1.0080           0
    2245 A    281  ETH  H3   HGA30    0.090000        1.0080           0
    2246 A    281  ETH  H4   HGA30    0.090000        1.0080           0
    2247 A    281  ETH  H5   HGA30    0.090000        1.0080           0
    2248 A    281  ETH  H6   HGA30    0.090000        1.0080           0
    2249 A    282  ETH  C1   CG3310   -0.270000       12.0110           0
    2250 A    282  ETH  C2   CG3310   -0.270000       12.0110           0
    2251 A    282  ETH  H1   HGA30    0.090000        1.0080           0
    2252 A    282  ETH  H2   HGA30    0.090000        1.0080           0
    2253 A    282  ETH  H3   HGA30    0.090000        1.0080           0
    2254 A    282  ETH  H4   HGA30    0.090000        1.0080           0
    2255 A    282  ETH  H5   HGA30    0.090000        1.0080           0
    2256 A    282  ETH  H6   HGA30    0.090000        1.0080           0
    2257 A    283  ETH  C1   CG3310   -0.270000       12.0110           0
    2258 A    283  ETH  C2   CG3310   -0.270000       12.0110           0
    2259 A    283  ETH  H1   HGA30    0.090000        1.0080           0
    2260 A    283  ETH  H2   HGA30    0.090000        1.0080           0
    2261 A    283  ETH  H3   HGA30    0.090000        1.0080           0
    2262 A    283  ETH  H4   HGA30    0.090000        1.0080           0
    2263 A    283  ETH  H5   HGA30    0.090000        1.0080           0
    2264 A    283  ETH  H6   HGA30    0.090000        1.0080           0
    2265 A    284  ETH  C1   CG3310   -0.270000       12.0110           0
    2266 A    284  ETH  C2   CG3310   -0.270000       12.0110           0
    2267 A    284  ETH  H1   HGA30    0.090000        1.0080           0
    2268 A    284  ETH  H2   HGA30    0.090000        1.0080           0
    2269 A    284  ETH  H3   HGA30    0.090000        1.0080           0
    2270 A    284  ETH  H4   HGA30    0.090000        1.0080           0
    2271 A    284  ETH  H5   HGA30    0.090000        1.0080           0
    2272 A    284  ETH  H6   HGA30    0.090000        1.0080           0
    2273 A    285  ETH  C1   CG3310   -0.270000       12.0110           0
    2274 A    285  ETH  C2   CG3310   -0.270000       12.0110           0
    2275 A    285  ETH  H1   HGA30    0.090000        1.0080           0
    2276 A    285  ETH  H2   HGA30    0.090000        1.0080           0
    2277 A    285  ETH  H3   HGA30    0.090000        1.0080           0
    2278 A    285  ETH  H4   HGA30    0.090000        1.0080           0
    2279 A    285  ETH  H5   HGA30    0.090000        1.0080           0
    2280 A    285  ETH  H6   HGA30    0.090000        1.0080           0
    2281 A    286  ETH  C1   CG3310   -0.270000       12.0110           0
    2282 A    286  ETH  C2   CG3310   -0.270000       12.0110           0
    2283 A    286  ETH  H1   HGA30    0.090000        1.0080           0
    2284 A    286  ETH  H2   HGA30    0.090000        1.0080           0
    2285 A    286  ETH  H3   HGA30    0.090000        1.0080           0
    2286 A    286  ETH  H4   HGA30    0.090000        1.0080           0
    2287 A    286  ETH  H5   HGA30    0.090000        1.0080           0
    2288 A    286  ETH  H6   HGA30    0.090000        1.0080           0
    2289 A    287  ETH  C1   CG3310   -0.270000       12.0110           0
    2290 A    287  ETH  C2   CG3310   -0.270000       12.0110           0
    2291 A    287  ETH  H1   HGA30    0.090000        1.0080           0
    2292 A    287  ETH  H2   HGA30    0.090000        1.0080           0
    2293 A    287  ETH  H3   HGA30    0.090000        1.0080           0
    2294 A    287  ETH  H4   HGA30    0.090000        1.0080           0
    2295 A    287  ETH  H5   HGA30    0.090000        1.0080           0
    2296 A    287  ETH  H6   HGA30    0.090000        1.0080           0
    2297 A    288  ETH  C1   CG3310   -0.270000       12.0110           0
    2298 A    288  ETH  C2   CG3310   -0.270000       12.0110           0
    2299 A    288  ETH  H1   HGA30    0.090000        1.0080           0
    2300 A    288  ETH  H2   HGA30    0.090000        1.0080           0
    2301 A    288  ETH  H3   HGA30    0.090000        1.0080           0
    2302 A    288  ETH  H4   HGA30    0.090000        1.0080           0
    2303 A    288  ETH  H5   HGA30    0.090000        1.0080           0
    2304 A    288  ETH  H6   HGA30    0.090000        1.0080           0
    2305 A    289  ETH  C1   CG3310   -0.270000       12.0110           0
    2306 A    289  ETH  C2   CG3310   -0.270000       12.0110           0
    2307 A    289  ETH  H1   HGA30    0.090000        1.0080           0
    2308 A    289  ETH  H2   HGA30    0.090000        1.0080           0
    2309 A    289  ETH  H3   HGA30    0.090000        1.0080           0
    2310 A    289  ETH  H4   HGA30    0.090000        1.0080           0
    2311 A    289  ETH  H5   HGA30    0.090000        1.0080           0
    2312 A    289  ETH  H6   HGA30    0.090000        1.0080           0
    2313 A    290  ETH  C1   CG3310   -0.270000       12.0110           0
    2314 A    290  ETH  C2   CG3310   -0.270000       12.0110           0
    2315 A    290  ETH  H1   HGA30    0.090000        1.0080           0
    2316 A    290  ETH  H2   HGA30    0.090000        1.0080           0
    2317 A    290  ETH  H3   HGA30    0.090000        1.0080           0
    2318 A    290  ETH  H4   HGA30    0.090000        1.0080           0
    2319 A    290  ETH  H5   HGA30    0.090000        1.0080           0
    2320 A    290  ETH  H6   HGA30    0.090000        1.0080           0
    2321 A    291  ETH  C1   CG3310   -0.270000       12.0110           0
    2322 A    291  ETH  C2   CG3310   -0.270000       12.0110           0
    2323 A    291  ETH  H1   HGA30    0.090000        1.0080           0
    2324 A    291  ETH  H2   HGA30    0.090000        1.0080           0
    2325 A    291  ETH  H3   HGA30    0.090000        1.0080           0
    2326 A    291  ETH  H4   HGA30    0.090000        1.0080           0
    2327 A    291  ETH  H5   HGA30    0.090000        1.0080           0
    2328 A    291  ETH  H6   HGA30    0.090000        1.0080           0
    2329 A    292  ETH  C1   CG3310   -0.270000       12.0110           0
    2330 A    292  ETH  C2   CG3310   -0.270000       12.0110           0
    2331 A    292  ETH  H1   HGA30    0.090000        1.0080           0
    2332 A    292  ETH  H2   HGA30    0.090000        1.0080           0
    2333 A    292  ETH  H3   HGA30    0.090000        1.0080           0
    2334 A    292  ETH  H4   HGA30    0.090000        1.0080           0
    2335 A    292  ETH  H5   HGA30    0.090000        1.0080           0
    2336 A    292  ETH  H6   HGA30    0.090000        1.0080           0
    2337 A    293  ETH  C1   CG3310   -0.270000       12.0110           0
    2338 A    293  ETH  C2   CG3310   -0.270000       12.0110           0
    2339 A    293  ETH  H1   HGA30    0.090000        1.0080           0
    2340 A    293  ETH  H2   HGA30    0.090000        1.0080           0
    2341 A    293  ETH  H3   HGA30    0.090000        1.0080           0
    2342 A    293  ETH  H4   HGA30    0.090000        1.0080           0
    2343 A    293  ETH  H5   HGA30    0.090000        1.0080           0
    2344 A    293  ETH  H6   HGA30    0.090000        1.0080           0
    2345 A    294  ETH  C1   CG3310   -0.270000       12.0110           0
    2346 A    294  ETH  C2   CG3310   -0.270000       12.0110           0
    2347 A    294  ETH  H1   HGA30    0.090000        1.0080           0
    2348 A    294  ETH  H2   HGA30    0.090000        1.0080           0
    2349 A    294  ETH  H3   HGA30    0.090000        1.0080           0
    2350 A    294  ETH  H4   HGA30    0.090000        1.0080           0
    2351 A    294  ETH  H5   HGA30    0.090000        1.0080           0
    2352 A    294  ETH  H6   HGA30    0.090000        1.0080           0
    2353 A    295  ETH  C1   CG3310   -0.270000       12.0110           0
    2354 A    295  ETH  C2   CG3310   -0.270000       12.0110           0
    2355 A    295  ETH  H1   HGA30    0.090000        1.0080           0
    2356 A    295  ETH  H2   HGA30    0.090000        1.0080           0
    2357 A    295  ETH  H3   HGA30    0.090000        1.0080           0
    2358 A    295  ETH  H4   HGA30    0.090000        1.0080           0
    2359 A    295  ETH  H5   HGA30    0.090000        1.0080           0
    2360 A    295  ETH  H6   HGA30    0.090000        1.0080           0
    2361 A    296  ETH  C1   CG3310   -0.270000       12.0110           0
    2362 A    296  ETH  C2   CG3310   -0.270000       12.0110           0
    2363 A    296  ETH  H1   HGA30    0.090000        1.0080           0
    2364 A    296  ETH  H2   HGA30    0.090000        1.0080           0
    2365 A    296  ETH  H3   HGA30    0.090000        1.0080           0
    2366 A    296  ETH  H4   HGA30    0.090000        1.0080           0
    2367 A    296  ETH  H5   HGA30    0.090000        1.0080           0
    2368 A    296  ETH  H6   HGA30    0.090000        1.0080           0
    2369 A    297  ETH  C1   CG3310   -0.270000       12.0110           0
    2370 A    297  ETH  C2   CG3310   -0.270000       12.0110           0
    2371 A    297  ETH  H1   HGA30    0.090000        1.0080           0
    2372 A    297  ETH  H2   HGA30    0.090000        1.0080           0
    2373 A    297  ETH  H3   HGA30    0.090000        1.0080           0
    2374 A    297  ETH  H4   HGA30    0.090000        1.0080           0
    2375 A    297  ETH  H5   HGA30    0.090000        1.0080           0
    2376 A    297  ETH  H6   HGA30    0.090000        1.0080           0
    2377 A    298  ETH  C1   CG3310   -0.270000       12.0110           0
    2378 A    298  ETH  C2   CG3310   -0.270000       12.0110           0
    2379 A    298  ETH  H1   HGA30    0.090000        1.0080           0
    2380 A    298  ETH  H2   HGA30    0.090000        1.0080           0
    2381 A    298  ETH  H3   HGA30    0.090000        1.0080           0
    2382 A    298  ETH  H4   HGA30    0.090000        1.0080           0
    2383 A    298  ETH  H5   HGA30    0.090000        1.0080           0
    2384 A    298  ETH  H6   HGA30    0.090000        1.0080           0
    2385 A    299  ETH  C1   CG3310   -0.270000       12.0110           0
    2386 A    299  ETH  C2   CG3310   -0.270000       12.0110           0
    2387 A    299  ETH  H1   HGA30    0.090000        1.0080           0
    2388 A    299  ETH  H2   HGA30    0.090000        1.0080           0
    2389 A    299  ETH  H3   HGA30    0.090000        1.0080           0
    2390 A    299  ETH  H4   HGA30    0.090000        1.0080           0
    2391 A    299  ETH  H5   HGA30    0.090000        1.0080           0
    2392 A    299  ETH  H6   HGA30    0.090000        1.0080           0
    2393 A    300  ETH  C1   CG3310   -0.270000       12.0110           0
    2394 A    300  ETH  C2   CG3310   -0.270000       12.0110           0
    2395 A    300  ETH  H1   HGA30    0.090000        1.0080           0
    2396 A    300  ETH  H2   HGA30    0.090000        1.0080           0
    2397 A    300  ETH  H3   HGA30    0.090000        1.0080           0
    2398 A    300  ETH  H4   HGA30    0.090000        1.0080           0
    2399 A    300  ETH  H5   HGA30    0.090000        1.0080           0
    2400 A    300  ETH  H6   HGA30    0.090000        1.0080           0
    2401 A    301  ETH  C1   CG3310   -0.270000       12.0110           0
    2402 A    301  ETH  C2   CG3310   -0.270000       12.0110           0
    2403 A    301  ETH  H1   HGA30    0.090000        1.0080           0
    2404 A    301  ETH  H2   HGA30    0.090000        1.0080           0
    2405 A    301  ETH  H3   HGA30    0.090000        1.0080           0
    2406 A    301  ETH  H4   HGA30    0.090000        1.0080           0
    2407 A    301  ETH  H5   HGA30    0.090000        1.0080           0
    2408 A    301  ETH  H6   HGA30    0.090000        1.0080           0
    2409 A    302  ETH  C1   CG3310   -0.270000       12.0110           0
    2410 A    302  ETH  C2   CG3310   -0.270000       12.0110           0
    2411 A    302  ETH  H1   HGA30    0.090000        1.0080           0
    2412 A    302  ETH  H2   HGA30    0.090000        1.0080           0
    2413 A    302  ETH  H3   HGA30    0.090000        1.0080           0
    2414 A    302  ETH  H4   HGA30    0.090000        1.0080           0
    2415 A    302  ETH  H5   HGA30    0.090000        1.0080           0
    2416 A    302  ETH  H6   HGA30    0.090000        1.0080           0
    2417 A    303  ETH  C1   CG3310   -0.270000       12.0110           0
    2418 A    303  ETH  C2   CG3310   -0.270000       12.0110           0
    2419 A    303  ETH  H1   HGA30    0.090000        1.0080           0
    2420 A    303  ETH  H2   HGA30    0.090000        1.0080           0
    2421 A    303  ETH  H3   HGA30    0.090000        1.0080           0
    2422 A    303  ETH  H4   HGA30    0.090000        1.0080           0
    2423 A    303  ETH  H5   HGA30    0.090000        1.0080           0
    2424 A    303  ETH  H6   HGA30    0.090000        1.0080           0
    2425 A    304  ETH  C1   CG3310   -0.270000       12.0110           0
    2426 A    304  ETH  C2   CG3310   -0.270000       12.0110           0
    2427 A    304  ETH  H1   HGA30    0.090000        1.0080           0
    2428 A    304  ETH  H2   HGA30    0.090000        1.0080           0
    2429 A    304  ETH  H3   HGA30    0.090000        1.0080           0
    2430 A    304  ETH  H4   HGA30    0.090000        1.0080           0
    2431 A    304  ETH  H5   HGA30    0.090000        1.0080           0
    2432 A    304  ETH  H6   HGA30    0.090000        1.0080           0
    2433 A    305  ETH  C1   CG3310   -0.270000       12.0110           0
    2434 A    305  ETH  C2   CG3310   -0.270000       12.0110           0
    2435 A    305  ETH  H1   HGA30    0.090000        1.0080           0
    2436 A    305  ETH  H2   HGA30    0.090000        1.0080           0
    2437 A    305  ETH  H3   HGA30    0.090000        1.0080           0
    2438 A    305  ETH  H4   HGA30    0.090000        1.0080           0
    2439 A    305  ETH  H5   HGA30    0.090000        1.0080           0
    2440 A    305  ETH  H6   HGA30    0.090000        1.0080           0
    2441 A    306  ETH  C1   CG3310   -0.270000       12.0110           0
    2442 A    306  ETH  C2   CG3310   -0.270000       12.0110           0
    2443 A    306  ETH  H1   HGA30    0.090000        1.0080           0
    2444 A    306  ETH  H2   HGA30    0.090000        1.0080           0
    2445 A    306  ETH  H3   HGA30    0.090000        1.0080           0
    2446 A    306  ETH  H4   HGA30    0.090000        1.0080           0
    2447 A    306  ETH  H5   HGA30    0.090000        1.0080           0
    2448 A    306  ETH  H6   HGA30    0.090000        1.0080           0
    2449 A    307  ETH  C1   CG3310   -0.270000       12.0110           0
    2450 A    307  ETH  C2   CG3310   -0.270000       12.0110           0
    2451 A    307  ETH  H1   HGA30    0.090000        1.0080           0
    2452 A    307  ETH  H2   HGA30    0.090000        1.0080           0
    2453 A    307  ETH  H3   HGA30    0.090000        1.0080           0
    2454 A    307  ETH  H4   HGA30    0.090000        1.0080           0
    2455 A    307  ETH  H5   HGA30    0.090000        1.0080           0
    2456 A    307  ETH  H6   HGA30    0.090000        1.0080           0
    2457 A    308  ETH  C1   CG3310   -0.270000       12.0110           0
    2458 A    308  ETH  C2   CG3310   -0.270000       12.0110           0
    2459 A    308  ETH  H1   HGA30    0.090000        1.0080           0
    2460 A    308  ETH  H2   HGA30    0.090000        1.0080           0
    2461 A    308  ETH  H3   HGA30    0.090000        1.0080           0
    2462 A    308  ETH  H4   HGA30    0.090000        1.0080           0
    2463 A    308  ETH  H5   HGA30    0.090000        1.0080           0
    2464 A    308  ETH  H6   HGA30    0.090000        1.0080           0
    2465 A    309  ETH  C1   CG3310   -0.270000       12.0110           0
    2466 A    309  ETH  C2   CG3310   -0.270000       12.0110           0
    2467 A    309  ETH  H1   HGA30    0.090000        1.0080           0
    2468 A    309  ETH  H2   HGA30    0.090000        1.0080           0
    2469 A    309  ETH  H3   HGA30    0.090000        1.0080           0
    2470 A    309  ETH  H4   HGA30    0.090000        1.0080           0
    2471 A    309  ETH  H5   HGA30    0.090000        1.0080           0
    2472 A    309  ETH  H6   HGA30    0.090000        1.0080           0
    2473 A    310  ETH  C1   CG3310   -0.270000       12.0110           0
    2474 A    310  ETH  C2   CG3310   -0.270000       12.0110           0
    2475 A    310  ETH  H1   HGA30    0.090000        1.0080           0
    2476 A    310  ETH  H2   HGA30    0.090000        1.0080           0
    2477 A    310  ETH  H3   HGA30    0.090000        1.0080           0
    2478 A    310  ETH  H4   HGA30    0.090000        1.0080           0
    2479 A    310  ETH  H5   HGA30    0.090000        1.0080           0
    2480 A    310  ETH  H6   HGA30    0.090000        1.0080           0
    2481 A    311  ETH  C1   CG3310   -0.270000       12.0110           0
    2482 A    311  ETH  C2   CG3310   -0.270000       12.0110           0
    2483 A    311  ETH  H1   HGA30    0.090000        1.0080           0
    2484 A    311  ETH  H2   HGA30    0.090000        1.0080           0
    2485 A    311  ETH  H3   HGA30    0.090000        1.0080           0
    2486 A    311  ETH  H4   HGA30    0.090000        1.0080           0
    2487 A    311  ETH  H5   HGA30    0.090000        1.0080           0
    2488 A    311  ETH  H6   HGA30    0.090000        1.0080           0
    2489 A    312  ETH  C1   CG3310   -0.270000       12.0110           0
    2490 A    312  ETH  C2   CG3310   -0.270000       12.0110           0
    2491 A    312  ETH  H1   HGA30    0.090000        1.0080           0
    2492 A    312  ETH  H2   HGA30    0.090000        1.0080           0
    2493 A    312  ETH  H3   HGA30    0.090000        1.0080           0
    2494 A    312  ETH  H4   HGA30    0.090000        1.0080           0
    2495 A    312  ETH  H5   HGA30    0.090000        1.0080           0
    2496 A    312  ETH  H6   HGA30    0.090000        1.0080           0
    2497 A    313  ETH  C1   CG3310   -0.270000       12.0110           0
    2498 A    313  ETH  C2   CG3310   -0.270000       12.0110           0
    2499 A    313  ETH  H1   HGA30    0.090000        1.0080           0
    2500 A    313  ETH  H2   HGA30    0.090000        1.0080           0
    2501 A    313  ETH  H3   HGA30    0.090000        1.0080           0
    2502 A    313  ETH  H4   HGA30    0.090000        1.0080           0
    2503 A    313  ETH  H5   HGA30    0.090000        1.0080           0
    2504 A    313  ETH  H6   HGA30    0.090000        1.0080           0
    2505 A    314  ETH  C1   CG3310   -0.270000       12.0110           0
    2506 A    314  ETH  C2   CG3310   -0.270000       12.0110           0
    2507 A    314  ETH  H1   HGA30    0.090000        1.0080           0
    2508 A    314  ETH  H2   HGA30    0.090000        1.0080           0
    2509 A    314  ETH  H3   HGA30    0.090000        1.0080           0
    2510 A    314  ETH  H4   HGA30    0.090000        1.0080           0
    2511 A    314  ETH  H5   HGA30    0.090000        1.0080           0
    2512 A    314  ETH  H6   HGA30    0.090000        1.0080           0
    2513 A    315  ETH  C1   CG3310   -0.270000       12.0110           0
    2514 A    315  ETH  C2   CG3310   -0.270000       12.0110           0
    2515 A    315  ETH  H1   HGA30    0.090000        1.0080           0
    2516 A    315  ETH  H2   HGA30    0.090000        1.0080           0
    2517 A    315  ETH  H3   HGA30    0.090000        1.0080           0
    2518 A    315  ETH  H4   HGA30    0.090000        1.0080           0
    2519 A    315  ETH  H5   HGA30    0.090000        1.0080           0
    2520 A    315  ETH  H6   HGA30    0.090000        1.0080           0
    2521 A    316  ETH  C1   CG3310   -0.270000       12.0110           0
    2522 A    316  ETH  C2   CG3310   -0.270000       12.0110           0
    2523 A    316  ETH  H1   HGA30    0.090000        1.0080           0
    2524 A    316  ETH  H2   HGA30    0.090000        1.0080           0
    2525 A    316  ETH  H3   HGA30    0.090000        1.0080           0
    2526 A    316  ETH  H4   HGA30    0.090000        1.0080           0
    2527 A    316  ETH  H5   HGA30    0.090000        1.0080           0
    2528 A    316  ETH  H6   HGA30    0.090000        1.0080           0
    2529 A    317  ETH  C1   CG3310   -0.270000       12.0110           0
    2530 A    317  ETH  C2   CG3310   -0.270000       12.0110           0
    2531 A    317  ETH  H1   HGA30    0.090000        1.0080           0
    2532 A    317  ETH  H2   HGA30    0.090000        1.0080           0
    2533 A    317  ETH  H3   HGA30    0.090000        1.0080           0
    2534 A    317  ETH  H4   HGA30    0.090000        1.0080           0
    2535 A    317  ETH  H5   HGA30    0.090000        1.0080           0
    2536 A    317  ETH  H6   HGA30    0.090000        1.0080           0
    2537 A    318  ETH  C1   CG3310   -0.270000       12.0110           0
    2538 A    318  ETH  C2   CG3310   -0.270000       12.0110           0
    2539 A    318  ETH  H1   HGA30    0.090000        1.0080           0
    2540 A    318  ETH  H2   HGA30    0.090000        1.0080           0
    2541 A    318  ETH  H3   HGA30    0.090000        1.0080           0
    2542 A    318  ETH  H4   HGA30    0.090000        1.0080           0
    2543 A    318  ETH  H5   HGA30    0.090000        1.0080           0
    2544 A    318  ETH  H6   HGA30    0.090000        1.0080           0
    2545 A    319  ETH  C1   CG3310   -0.270000       12.0110           0
    2546 A    319  ETH  C2   CG3310   -0.270000       12.0110           0
    2547 A    319  ETH  H1   HGA30    0.090000        1.0080           0
    2548 A    319  ETH  H2   HGA30    0.090000        1.0080           0
    2549 A    319  ETH  H3   HGA30    0.090000        1.0080           0
    2550 A    319  ETH  H4   HGA30    0.090000        1.0080           0
    2551 A    319  ETH  H5   HGA30    0.090000        1.0080           0
    2552 A    319  ETH  H6   HGA30    0.090000        1.0080           0
    2553 A    320  ETH  C1   CG3310   -0.270000       12.0110           0
    2554 A    320  ETH  C2   CG3310   -0.270000       12.0110           0
    2555 A    320  ETH  H1   HGA30    0.090000        1.0080           0
    2556 A    320  ETH  H2   HGA30    0.090000        1.0080           0
    2557 A    320  ETH  H3   HGA30    0.090000        1.0080           0
    2558 A    320  ETH  H4   HGA30    0.090000        1.0080           0
    2559 A    320  ETH  H5   HGA30    0.090000        1.0080           0
    2560 A    320  ETH  H6   HGA30    0.090000        1.0080           0
    2561 A    321  ETH  C1   CG3310   -0.270000       12.0110           0
    2562 A    321  ETH  C2   CG3310   -0.270000       12.0110           0
    2563 A    321  ETH  H1   HGA30    0.090000        1.0080           0
    2564 A    321  ETH  H2   HGA30    0.090000        1.0080           0
    2565 A    321  ETH  H3   HGA30    0.090000        1.0080           0
    2566 A    321  ETH  H4   HGA30    0.090000        1.0080           0
    2567 A    321  ETH  H5   HGA30    0.090000        1.0080           0
    2568 A    321  ETH  H6   HGA30    0.090000        1.0080           0
    2569 A    322  ETH  C1   CG3310   -0.270000       12.0110           0
    2570 A    322  ETH  C2   CG3310   -0.270000       12.0110           0
    2571 A    322  ETH  H1   HGA30    0.090000        1.0080           0
    2572 A    322  ETH  H2   HGA30    0.090000        1.0080           0
    2573 A    322  ETH  H3   HGA30    0.090000        1.0080           0
    2574 A    322  ETH  H4   HGA30    0.090000        1.0080           0
    2575 A    322  ETH  H5   HGA30    0.090000        1.0080           0
    2576 A    322  ETH  H6   HGA30    0.090000        1.0080           0
    2577 A    323  ETH  C1   CG3310   -0.270000       12.0110           0
    2578 A    323  ETH  C2   CG3310   -0.270000       12.0110           0
    2579 A    323  ETH  H1   HGA30    0.090000        1.0080           0
    2580 A    323  ETH  H2   HGA30    0.090000        1.0080           0
    2581 A    323  ETH  H3   HGA30    0.090000        1.0080           0
    2582 A    323  ETH  H4   HGA30    0.090000        1.0080           0
    2583 A    323  ETH  H5   HGA30    0.090000        1.0080           0
    2584 A    323  ETH  H6   HGA30    0.090000        1.0080           0
    2585 A    324  ETH  C1   CG3310   -0.270000       12.0110           0
    2586 A    324  ETH  C2   CG3310   -0.270000       12.0110           0
    2587 A    324  ETH  H1   HGA30    0.090000        1.0080           0
    2588 A    324  ETH  H2   HGA30    0.090000        1.0080           0
    2589 A    324  ETH  H3   HGA30    0.090000        1.0080           0
    2590 A    324  ETH  H4   HGA30    0.090000        1.0080           0
    2591 A    324  ETH  H5   HGA30    0.090000        1.0080           0
    2592 A    324  ETH  H6   HGA30    0.090000        1.0080           0
    2593 A    325  ETH  C1   CG3310   -0.270000       12.0110           0
    2594 A    325  ETH  C2   CG3310   -0.270000       12.0110           0
    2595 A    325  ETH  H1   HGA30    0.090000        1.0080           0
    2596 A    325  ETH  H2   HGA30    0.090000        1.0080           0
    2597 A    325  ETH  H3   HGA30    0.090000        1.0080           0
    2598 A    325  ETH  H4   HGA30    0.090000        1.0080           0
    2599 A    325  ETH  H5   HGA30    0.090000        1.0080           0
    2600 A    325  ETH  H6   HGA30    0.090000        1.0080           0
    2601 A    326  ETH  C1   CG3310   -0.270000       12.0110           0
    2602 A    326  ETH  C2   CG3310   -0.270000       12.0110           0
    2603 A    326  ETH  H1   HGA30    0.090000        1.0080           0
    2604 A    326  ETH  H2   HGA30    0.090000        1.0080           0
    2605 A    326  ETH  H3   HGA30    0.090000        1.0080           0
    2606 A    326  ETH  H4   HGA30    0.090000        1.0080           0
    2607 A    326  ETH  H5   HGA30    0.090000        1.0080           0
    2608 A    326  ETH  H6   HGA30    0.090000        1.0080           0
    2609 A    327  ETH  C1   CG3310   -0.270000       12.0110           0
    2610 A    327  ETH  C2   CG3310   -0.270000       12.0110           0
    2611 A    327  ETH  H1   HGA30    0.090000        1.0080           0
    2612 A    327  ETH  H2   HGA30    0.090000        1.0080           0
    2613 A    327  ETH  H3   HGA30    0.090000        1.0080           0
    2614 A    327  ETH  H4   HGA30    0.090000        1.0080           0
    2615 A    327  ETH  H5   HGA30    0.090000        1.0080           0
    2616 A    327  ETH  H6   HGA30    0.090000        1.0080           0
    2617 A    328  ETH  C1   CG3310   -0.270000       12.0110           0
    2618 A    328  ETH  C2   CG3310   -0.270000       12.0110           0
    2619 A    328  ETH  H1   HGA30    0.090000        1.0080           0
    2620 A    328  ETH  H2   HGA30    0.090000        1.0080           0
    2621 A    328  ETH  H3   HGA30    0.090000        1.0080           0
    2622 A    328  ETH  H4   HGA30    0.090000        1.0080           0
    2623 A    328  ETH  H5   HGA30    0.090000        1.0080           0
    2624 A    328  ETH  H6   HGA30    0.090000        1.0080           0
    2625 A    329  ETH  C1   CG3310   -0.270000       12.0110           0
    2626 A    329  ETH  C2   CG3310   -0.270000       12.0110           0
    2627 A    329  ETH  H1   HGA30    0.090000        1.0080           0
    2628 A    329  ETH  H2   HGA30    0.090000        1.0080           0
    2629 A    329  ETH  H3   HGA30    0.090000        1.0080           0
    2630 A    329  ETH  H4   HGA30    0.090000        1.0080           0
    2631 A    329  ETH  H5   HGA30    0.090000        1.0080           0
    2632 A    329  ETH  H6   HGA30    0.090000        1.0080           0
    2633 A    330  ETH  C1   CG3310   -0.270000       12.0110           0
    2634 A    330  ETH  C2   CG3310   -0.270000       12.0110           0
    2635 A    330  ETH  H1   HGA30    0.090000        1.0080           0
    2636 A    330  ETH  H2   HGA30    0.090000        1.0080           0
    2637 A    330  ETH  H3   HGA30    0.090000        1.0080           0
    2638 A    330  ETH  H4   HGA30    0.090000        1.0080           0
    2639 A    330  ETH  H5   HGA30    0.090000        1.0080           0
    2640 A    330  ETH  H6   HGA30    0.090000        1.0080           0
    2641 A    331  ETH  C1   CG3310   -0.270000       12.0110           0
    2642 A    331  ETH  C2   CG3310   -0.270000       12.0110           0
    2643 A    331  ETH  H1   HGA30    0.090000        1.0080           0
    2644 A    331  ETH  H2   HGA30    0.090000        1.0080           0
    2645 A    331  ETH  H3   HGA30    0.090000        1.0080           0
    2646 A    331  ETH  H4   HGA30    0.090000        1.0080           0
    2647 A    331  ETH  H5   HGA30    0.090000        1.0080           0
    2648 A    331  ETH  H6   HGA30    0.090000        1.0080           0
    2649 A    332  ETH  C1   CG3310   -0.270000       12.0110           0
    2650 A    332  ETH  C2   CG3310   -0.270000       12.0110           0
    2651 A    332  ETH  H1   HGA30    0.090000        1.0080           0
    2652 A    332  ETH  H2   HGA30    0.090000        1.0080           0
    2653 A    332  ETH  H3   HGA30    0.090000        1.0080           0
    2654 A    332  ETH  H4   HGA30    0.090000        1.0080           0
    2655 A    332  ETH  H5   HGA30    0.090000        1.0080           0
    2656 A    332  ETH  H6   HGA30    0.090000        1.0080           0
    2657 A    333  ETH  C1   CG3310   -0.270000       12.0110           0
    2658 A    333  ETH  C2   CG3310   -0.270000       12.0110           0
    2659 A    333  ETH  H1   HGA30    0.090000        1.0080           0
    2660 A    333  ETH  H2   HGA30    0.090000        1.0080           0
    2661 A    333  ETH  H3   HGA30    0.090000        1.0080           0
    2662 A    333  ETH  H4   HGA30    0.090000        1.0080           0
    2663 A    333  ETH  H5   HGA30    0.090000        1.0080           0
    2664 A    333  ETH  H6   HGA30    0.090000        1.0080           0
    2665 A    334  ETH  C1   CG3310   -0.270000       12.0110           0
    2666 A    334  ETH  C2   CG3310   -0.270000       12.0110           0
    2667 A    334  ETH  H1   HGA30    0.090000        1.0080           0
    2668 A    334  ETH  H2   HGA30    0.090000        1.0080           0
    2669 A    334  ETH  H3   HGA30    0.090000        1.0080           0
    2670 A    334  ETH  H4   HGA30    0.090000        1.0080           0
    2671 A    334  ETH  H5   HGA30    0.090000        1.0080           0
    2672 A    334  ETH  H6   HGA30    0.090000        1.0080           0
    2673 A    335  ETH  C1   CG3310   -0.270000       12.0110           0
    2674 A    335  ETH  C2   CG3310   -0.270000       12.0110           0
    2675 A    335  ETH  H1   HGA30    0.090000        1.0080           0
    2676 A    335  ETH  H2   HGA30    0.090000        1.0080           0
    2677 A    335  ETH  H3   HGA30    0.090000        1.0080           0
    2678 A    335  ETH  H4   HGA30    0.090000        1.0080           0
    2679 A    335  ETH  H5   HGA30    0.090000        1.0080           0
    2680 A    335  ETH  H6   HGA30    0.090000        1.0080           0
    2681 A    336  ETH  C1   CG3310   -0.270000       12.0110           0
    2682 A    336  ETH  C2   CG3310   -0.270000       12.0110           0
    2683 A    336  ETH  H1   HGA30    0.090000        1.0080           0
    2684 A    336  ETH  H2   HGA30    0.090000        1.0080           0
    2685 A    336  ETH  H3   HGA30    0.090000        1.0080           0
    2686 A    336  ETH  H4   HGA30    0.090000        1.0080           0
    2687 A    336  ETH  H5   HGA30    0.090000        1.0080           0
    2688 A    336  ETH  H6   HGA30    0.090000        1.0080           0
    2689 A    337  ETH  C1   CG3310   -0.270000       12.0110           0
    2690 A    337  ETH  C2   CG3310   -0.270000       12.0110           0
    2691 A    337  ETH  H1   HGA30    0.090000        1.0080           0
    2692 A    337  ETH  H2   HGA30    0.090000        1.0080           0
    2693 A    337  ETH  H3   HGA30    0.090000        1.0080           0
    2694 A    337  ETH  H4   HGA30    0.090000        1.0080           0
    2695 A    337  ETH  H5   HGA30    0.090000        1.0080           0
    2696 A    337  ETH  H6   HGA30    0.090000        1.0080           0
    2697 A    338  ETH  C1   CG3310   -0.270000       12.0110           0
    2698 A    338  ETH  C2   CG3310   -0.270000       12.0110           0
    2699 A    338  ETH  H1   HGA30    0.090000        1.0080           0
    2700 A    338  ETH  H2   HGA30    0.090000        1.0080           0
    2701 A    338  ETH  H3   HGA30    0.090000        1.0080           0
    2702 A    338  ETH  H4   HGA30    0.090000        1.0080           0
    2703 A    338  ETH  H5   HGA30    0.090000        1.0080           0
    2704 A    338  ETH  H6   HGA30    0.090000        1.0080           0
    2705 A    339  ETH  C1   CG3310   -0.270000       12.0110           0
    2706 A    339  ETH  C2   CG3310   -0.270000       12.0110           0
    2707 A    339  ETH  H1   HGA30    0.090000        1.0080           0
    2708 A    339  ETH  H2   HGA30    0.090000        1.0080           0
    2709 A    339  ETH  H3   HGA30    0.090000        1.0080           0
    2710 A    339  ETH  H4   HGA30    0.090000        1.0080           0
    2711 A    339  ETH  H5   HGA30    0.090000        1.0080           0
    2712 A    339  ETH  H6   HGA30    0.090000        1.0080           0
    2713 A    340  ETH  C1   CG3310   -0.270000       12.0110           0
    2714 A    340  ETH  C2   CG3310   -0.270000       12.0110           0
    2715 A    340  ETH  H1   HGA30    0.090000        1.0080           0
    2716 A    340  ETH  H2   HGA30    0.090000        1.0080           0
    2717 A    340  ETH  H3   HGA30    0.090000        1.0080           0
    2718 A    340  ETH  H4   HGA30    0.090000        1.0080           0
    2719 A    340  ETH  H5   HGA30    0.090000        1.0080           0
    2720 A    340  ETH  H6   HGA30    0.090000        1.0080           0
    2721 A    341  ETH  C1   CG3310   -0.270000       12.0110           0
    2722 A    341  ETH  C2   CG3310   -0.270000       12.0110           0
    2723 A    341  ETH  H1   HGA30    0.090000        1.0080           0
    2724 A    341  ETH  H2   HGA30    0.090000        1.0080           0
    2725 A    341  ETH  H3   HGA30    0.090000        1.0080           0
    2726 A    341  ETH  H4   HGA30    0.090000        1.0080           0
    2727 A    341  ETH  H5   HGA30    0.090000        1.0080           0
    2728 A    341  ETH  H6   HGA30    0.090000        1.0080           0
    2729 A    342  ETH  C1   CG3310   -0.270000       12.0110           0
    2730 A    342  ETH  C2   CG3310   -0.270000       12.0110           0
    2731 A    342  ETH  H1   HGA30    0.090000        1.0080           0
    2732 A    342  ETH  H2   HGA30    0.090000        1.0080           0
    2733 A    342  ETH  H3   HGA30    0.090000        1.0080           0
    2734 A    342  ETH  H4   HGA30    0.090000        1.0080           0
    2735 A    342  ETH  H5   HGA30    0.090000        1.0080           0
    2736 A    342  ETH  H6   HGA30    0.090000        1.0080           0
    2737 A    343  ETH  C1   CG3310   -0.270000       12.0110           0
    2738 A    343  ETH  C2   CG3310   -0.270000       12.0110           0
    2739 A    343  ETH  H1   HGA30    0.090000        1.0080           0
    2740 A    343  ETH  H2   HGA30    0.090000        1.0080           0
    2741 A    343  ETH  H3   HGA30    0.090000        1.0080           0
    2742 A    343  ETH  H4   HGA30    0.090000        1.0080           0
    2743 A    343  ETH  H5   HGA30    0.090000        1.0080           0
    2744 A    343  ETH  H6   HGA30    0.090000        1.0080           0
    2745 A    344  ETH  C1   CG3310   -0.270000       12.0110           0
    2746 A    344  ETH  C2   CG3310   -0.270000       12.0110           0
    2747 A    344  ETH  H1   HGA30    0.090000        1.0080           0
    2748 A    344  ETH  H2   HGA30    0.090000        1.0080           0
    2749 A    344  ETH  H3   HGA30    0.090000        1.0080           0
    2750 A    344  ETH  H4   HGA30    0.090000        1.0080           0
    2751 A    344  ETH  H5   HGA30    0.090000        1.0080           0
    2752 A    344  ETH  H6   HGA30    0.090000        1.0080           0
    2753 A    345  ETH  C1   CG3310   -0.270000       12.0110           0
    2754 A    345  ETH  C2   CG3310   -0.270000       12.0110           0
    2755 A    345  ETH  H1   HGA30    0.090000        1.0080           0
    2756 A    345  ETH  H2   HGA30    0.090000        1.0080           0
    2757 A    345  ETH  H3   HGA30    0.090000        1.0080           0
    2758 A    345  ETH  H4   HGA30    0.090000        1.0080           0
    2759 A    345  ETH  H5   HGA30    0.090000        1.0080           0
    2760 A    345  ETH  H6   HGA30    0.090000        1.0080           0
    2761 A    346  ETH  C1   CG3310   -0.270000       12.0110           0
    2762 A    346  ETH  C2   CG3310   -0.270000       12.0110           0
    2763 A    346  ETH  H1   HGA30    0.090000        1.0080           0
    2764 A    346  ETH  H2   HGA30    0.090000        1.0080           0
    2765 A    346  ETH  H3   HGA30    0.090000        1.0080           0
    2766 A    346  ETH  H4   HGA30    0.090000        1.0080           0
    2767 A    346  ETH  H5   HGA30    0.090000        1.0080           0
    2768 A    346  ETH  H6   HGA30    0.090000        1.0080           0
    2769 A    347  ETH  C1   CG3310   -0.270000       12.0110           0
    2770 A    347  ETH  C2   CG3310   -0.270000       12.0110           0
    2771 A    347  ETH  H1   HGA30    0.090000        1.0080           0
    2772 A    347  ETH  H2   HGA30    0.090000        1.0080           0
    2773 A    347  ETH  H3   HGA30    0.090000        1.0080           0
    2774 A    347  ETH  H4   HGA30    0.090000        1.0080           0
    2775 A    347  ETH  H5   HGA30    0.090000        1.0080           0
    2776 A    347  ETH  H6   HGA30    0.090000        1.0080           0
    2777 A    348  ETH  C1   CG3310   -0.270000       12.0110           0
    2778 A    348  ETH  C2   CG3310   -0.270000       12.0110           0
    2779 A    348  ETH  H1   HGA30    0.090000        1.0080           0
    2780 A    348  ETH  H2   HGA30    0.090000        1.0080           0
    2781 A    348  ETH  H3   HGA30    0.090000        1.0080           0
    2782 A    348  ETH  H4   HGA30    0.090000        1.0080           0
    2783 A    348  ETH  H5   HGA30    0.090000        1.0080           0
    2784 A    348  ETH  H6   HGA30    0.090000        1.0080           0
    2785 A    349  ETH  C1   CG3310   -0.270000       12.0110           0
    2786 A    349  ETH  C2   CG3310   -0.270000       12.0110           0
    2787 A    349  ETH  H1   HGA30    0.090000        1.0080           0
    2788 A    349  ETH  H2   HGA30    0.090000        1.0080           0
    2789 A    349  ETH  H3   HGA30    0.090000        1.0080           0
    2790 A    349  ETH  H4   HGA30    0.090000        1.0080           0
    2791 A    349  ETH  H5   HGA30    0.090000        1.0080           0
    2792 A    349  ETH  H6   HGA30    0.090000        1.0080           0
    2793 A    350  ETH  C1   CG3310   -0.270000       12.0110           0
    2794 A    350  ETH  C2   CG3310   -0.270000       12.0110           0
    2795 A    350  ETH  H1   HGA30    0.090000        1.0080           0
    2796 A    350  ETH  H2   HGA30    0.090000        1.0080           0
    2797 A    350  ETH  H3   HGA30    0.090000        1.0080           0
    2798 A    350  ETH  H4   HGA30    0.090000        1.0080           0
    2799 A    350  ETH  H5   HGA30    0.090000        1.0080           0
    2800 A    350  ETH  H6   HGA30    0.090000        1.0080           0
    2801 A    351  ETH  C1   CG3310   -0.270000       12.0110           0
    2802 A    351  ETH  C2   CG3310   -0.270000       12.0110           0
    2803 A    351  ETH  H1   HGA30    0.090000        1.0080           0
    2804 A    351  ETH  H2   HGA30    0.090000        1.0080           0
    2805 A    351  ETH  H3   HGA30    0.090000        1.0080           0
    2806 A    351  ETH  H4   HGA30    0.090000        1.0080           0
    2807 A    351  ETH  H5   HGA30    0.090000        1.0080           0
    2808 A    351  ETH  H6   HGA30    0.090000        1.0080           0
    2809 A    352  ETH  C1   CG3310   -0.270000       12.0110           0
    2810 A    352  ETH  C2   CG3310   -0.270000       12.0110           0
    2811 A    352  ETH  H1   HGA30    0.090000        1.0080           0
    2812 A    352  ETH  H2   HGA30    0.090000        1.0080           0
    2813 A    352  ETH  H3   HGA30    0.090000        1.0080           0
    2814 A    352  ETH  H4   HGA30    0.090000        1.0080           0
    2815 A    352  ETH  H5   HGA30    0.090000        1.0080           0
    2816 A    352  ETH  H6   HGA30    0.090000        1.0080           0
    2817 A    353  ETH  C1   CG3310   -0.270000       12.0110           0
    2818 A    353  ETH  C2   CG3310   -0.270000       12.0110           0
    2819 A    353  ETH  H1   HGA30    0.090000        1.0080           0
    2820 A    353  ETH  H2   HGA30    0.090000        1.0080           0
    2821 A    353  ETH  H3   HGA30    0.090000        1.0080           0
    2822 A    353  ETH  H4   HGA30    0.090000        1.0080           0
    2823 A    353  ETH  H5   HGA30    0.090000        1.0080           0
    2824 A    353  ETH  H6   HGA30    0.090000        1.0080           0
    2825 A    354  ETH  C1   CG3310   -0.270000       12.0110           0
    2826 A    354  ETH  C2   CG3310   -0.270000       12.0110           0
    2827 A    354  ETH  H1   HGA30    0.090000        1.0080           0
    2828 A    354  ETH  H2   HGA30    0.090000        1.0080           0
    2829 A    354  ETH  H3   HGA30    0.090000        1.0080           0
    2830 A    354  ETH  H4   HGA30    0.090000        1.0080           0
    2831 A    354  ETH  H5   HGA30    0.090000        1.0080           0
    2832 A    354  ETH  H6   HGA30    0.090000        1.0080           0
    2833 A    355  ETH  C1   CG3310   -0.270000       12.0110           0
    2834 A    355  ETH  C2   CG3310   -0.270000       12.0110           0
    2835 A    355  ETH  H1   HGA30    0.090000        1.0080           0
    2836 A    355  ETH  H2   HGA30    0.090000        1.0080           0
    2837 A    355  ETH  H3   HGA30    0.090000        1.0080           0
    2838 A    355  ETH  H4   HGA30    0.090000        1.0080           0
    2839 A    355  ETH  H5   HGA30    0.090000        1.0080           0
    2840 A    355  ETH  H6   HGA30    0.090000        1.0080           0
    2841 A    356  ETH  C1   CG3310   -0.270000       12.0110           0
    2842 A    356  ETH  C2   CG3310   -0.270000       12.0110           0
    2843 A    356  ETH  H1   HGA30    0.090000        1.0080           0
    2844 A    356  ETH  H2   HGA30    0.090000        1.0080           0
    2845 A    356  ETH  H3   HGA30    0.090000        1.0080           0
    2846 A    356  ETH  H4   HGA30    0.090000        1.0080           0
    2847 A    356  ETH  H5   HGA30    0.090000        1.0080           0
    2848 A    356  ETH  H6   HGA30    0.090000        1.0080           0
    2849 A    357  ETH  C1   CG3310   -0.270000       12.0110           0
    2850 A    357  ETH  C2   CG3310   -0.270000       12.0110           0
    2851 A    357  ETH  H1   HGA30    0.090000        1.0080           0
    2852 A    357  ETH  H2   HGA30    0.090000        1.0080           0
    2853 A    357  ETH  H3   HGA30    0.090000        1.0080           0
    2854 A    357  ETH  H4   HGA30    0.090000        1.0080           0
    2855 A    357  ETH  H5   HGA30    0.090000        1.0080           0
    2856 A    357  ETH  H6   HGA30    0.090000        1.0080           0
    2857 A    358  ETH  C1   CG3310   -0.270000       12.0110           0
    2858 A    358  ETH  C2   CG3310   -0.270000       12.0110           0
    2859 A    358  ETH  H1   HGA30    0.090000        1.0080           0
    2860 A    358  ETH  H2   HGA30    0.090000        1.0080           0
    2861 A    358  ETH  H3   HGA30    0.090000        1.0080           0
    2862 A    358  ETH  H4   HGA30    0.090000        1.0080           0
    2863 A    358  ETH  H5   HGA30    0.090000        1.0080           0
    2864 A    358  ETH  H6   HGA30    0.090000        1.0080           0
    2865 A    359  ETH  C1   CG3310   -0.270000       12.0110           0
    2866 A    359  ETH  C2   CG3310   -0.270000       12.0110           0
    2867 A    359  ETH  H1   HGA30    0.090000        1.0080           0
    2868 A    359  ETH  H2   HGA30    0.090000        1.0080           0
    2869 A    359  ETH  H3   HGA30    0.090000        1.0080           0
    2870 A    359  ETH  H4   HGA30    0.090000        1.0080           0
    2871 A    359  ETH  H5   HGA30    0.090000        1.0080           0
    2872 A    359  ETH  H6   HGA30    0.090000        1.0080           0
    2873 A    360  ETH  C1   CG3310   -0.270000       12.0110           0
    2874 A    360  ETH  C2   CG3310   -0.270000       12.0110           0
    2875 A    360  ETH  H1   HGA30    0.090000        1.0080           0
    2876 A    360  ETH  H2   HGA30    0.090000        1.0080           0
    2877 A    360  ETH  H3   HGA30    0.090000        1.0080           0
    2878 A    360  ETH  H4   HGA30    0.090000        1.0080           0
    2879 A    360  ETH  H5   HGA30    0.090000        1.0080           0
    2880 A    360  ETH  H6   HGA30    0.090000        1.0080           0
    2881 A    361  ETH  C1   CG3310   -0.270000       12.0110           0
    2882 A    361  ETH  C2   CG3310   -0.270000       12.0110           0
    2883 A    361  ETH  H1   HGA30    0.090000        1.0080           0
    2884 A    361  ETH  H2   HGA30    0.090000        1.0080           0
    2885 A    361  ETH  H3   HGA30    0.090000        1.0080           0
    2886 A    361  ETH  H4   HGA30    0.090000        1.0080           0
    2887 A    361  ETH  H5   HGA30    0.090000        1.0080           0
    2888 A    361  ETH  H6   HGA30    0.090000        1.0080           0
    2889 A    362  ETH  C1   CG3310   -0.270000       12.0110           0
    2890 A    362  ETH  C2   CG3310   -0.270000       12.0110           0
    2891 A    362  ETH  H1   HGA30    0.090000        1.0080           0
    2892 A    362  ETH  H2   HGA30    0.090000        1.0080           0
    2893 A    362  ETH  H3   HGA30    0.090000        1.0080           0
    2894 A    362  ETH  H4   HGA30    0.090000        1.0080           0
    2895 A    362  ETH  H5   HGA30    0.090000        1.0080           0
    2896 A    362  ETH  H6   HGA30    0.090000        1.0080           0
    2897 A    363  ETH  C1   CG3310   -0.270000       12.0110           0
    2898 A    363  ETH  C2   CG3310   -0.270000       12.0110           0
    2899 A    363  ETH  H1   HGA30    0.090000        1.0080           0
    2900 A    363  ETH  H2   HGA30    0.090000        1.0080           0
    2901 A    363  ETH  H3   HGA30    0.090000        1.0080           0
    2902 A    363  ETH  H4   HGA30    0.090000        1.0080           0
    2903 A    363  ETH  H5   HGA30    0.090000        1.0080           0
    2904 A    363  ETH  H6   HGA30    0.090000        1.0080           0
    2905 A    364  ETH  C1   CG3310   -0.270000       12.0110           0
    2906 A    364  ETH  C2   CG3310   -0.270000       12.0110           0
    2907 A    364  ETH  H1   HGA30    0.090000        1.0080           0
    2908 A    364  ETH  H2   HGA30    0.090000        1.0080           0
    2909 A    364  ETH  H3   HGA30    0.090000        1.0080           0
    2910 A    364  ETH  H4   HGA30    0.090000        1.0080           0
    2911 A    364  ETH  H5   HGA30    0.090000        1.0080           0
    2912 A    364  ETH  H6   HGA30    0.090000        1.0080           0
    2913 A    365  ETH  C1   CG3310   -0.270000       12.0110           0
    2914 A    365  ETH  C2   CG3310   -0.270000       12.0110           0
    2915 A    365  ETH  H1   HGA30    0.090000        1.0080           0
    2916 A    365  ETH  H2   HGA30    0.090000        1.0080           0
    2917 A    365  ETH  H3   HGA30    0.090000        1.0080           0
    2918 A    365  ETH  H4   HGA30    0.090000        1.0080           0
    2919 A    365  ETH  H5   HGA30    0.090000        1.0080           0
    2920 A    365  ETH  H6   HGA30    0.090000        1.0080           0
    2921 A    366  ETH  C1   CG3310   -0.270000       12.0110           0
    2922 A    366  ETH  C2   CG3310   -0.270000       12.0110           0
    2923 A    366  ETH  H1   HGA30    0.090000        1.0080           0
    2924 A    366  ETH  H2   HGA30    0.090000        1.0080           0
    2925 A    366  ETH  H3   HGA30    0.090000        1.0080           0
    2926 A    366  ETH  H4   HGA30    0.090000        1.0080           0
    2927 A    366  ETH  H5   HGA30    0.090000        1.0080           0
    2928 A    366  ETH  H6   HGA30    0.090000        1.0080           0
    2929 A    367  ETH  C1   CG3310   -0.270000       12.0110           0
    2930 A    367  ETH  C2   CG3310   -0.270000       12.0110           0
    2931 A    367  ETH  H1   HGA30    0.090000        1.0080           0
    2932 A    367  ETH  H2   HGA30    0.090000        1.0080           0
    2933 A    367  ETH  H3   HGA30    0.090000        1.0080           0
    2934 A    367  ETH  H4   HGA30    0.090000        1.0080           0
    2935 A    367  ETH  H5   HGA30    0.090000        1.0080           0
    2936 A    367  ETH  H6   HGA30    0.090000        1.0080           0
    2937 A    368  ETH  C1   CG3310   -0.270000       12.0110           0
    2938 A    368  ETH  C2   CG3310   -0.270000       12.0110           0
    2939 A    368  ETH  H1   HGA30    0.090000        1.0080           0
    2940 A    368  ETH  H2   HGA30    0.090000        1.0080           0
    2941 A    368  ETH  H3   HGA30    0.090000        1.0080           0
    2942 A    368  ETH  H4   HGA30    0.090000        1.0080           0
    2943 A    368  ETH  H5   HGA30    0.090000        1.0080           0
    2944 A    368  ETH  H6   HGA30    0.090000        1.0080           0
    2945 A    369  ETH  C1   CG3310   -0.270000       12.0110           0
    2946 A    369  ETH  C2   CG3310   -0.270000       12.0110           0
    2947 A    369  ETH  H1   HGA30    0.090000        1.0080           0
    2948 A    369  ETH  H2   HGA30    0.090000        1.0080           0
    2949 A    369  ETH  H3   HGA30    0.090000        1.0080           0
    2950 A    369  ETH  H4   HGA30    0.090000        1.0080           0
    2951 A    369  ETH  H5   HGA30    0.090000        1.0080           0
    2952 A    369  ETH  H6   HGA30    0.090000        1.0080           0
    2953 A    370  ETH  C1   CG3310   -0.270000       12.0110           0
    2954 A    370  ETH  C2   CG3310   -0.270000       12.0110           0
    2955 A    370  ETH  H1   HGA30    0.090000        1.0080           0
    2956 A    370  ETH  H2   HGA30    0.090000        1.0080           0
    2957 A    370  ETH  H3   HGA30    0.090000        1.0080           0
    2958 A    370  ETH  H4   HGA30    0.090000        1.0080           0
    2959 A    370  ETH  H5   HGA30    0.090000        1.0080           0
    2960 A    370  ETH  H6   HGA30    0.090000        1.0080           0
    2961 A    371  ETH  C1   CG3310   -0.270000       12.0110           0
    2962 A    371  ETH  C2   CG3310   -0.270000       12.0110           0
    2963 A    371  ETH  H1   HGA30    0.090000        1.0080           0
    2964 A    371  ETH  H2   HGA30    0.090000        1.0080           0
    2965 A    371  ETH  H3   HGA30    0.090000        1.0080           0
    2966 A    371  ETH  H4   HGA30    0.090000        1.0080           0
    2967 A    371  ETH  H5   HGA30    0.090000        1.0080           0
    2968 A    371  ETH  H6   HGA30    0.090000        1.0080           0
    2969 A    372  ETH  C1   CG3310   -0.270000       12.0110           0
    2970 A    372  ETH  C2   CG3310   -0.270000       12.0110           0
    2971 A    372  ETH  H1   HGA30    0.090000        1.0080           0
    2972 A    372  ETH  H2   HGA30    0.090000        1.0080           0
    2973 A    372  ETH  H3   HGA30    0.090000        1.0080           0
    2974 A    372  ETH  H4   HGA30    0.090000        1.0080           0
    2975 A    372  ETH  H5   HGA30    0.090000        1.0080           0
    2976 A    372  ETH  H6   HGA30    0.090000        1.0080           0
    2977 A    373  ETH  C1   CG3310   -0.270000       12.0110           0
    2978 A    373  ETH  C2   CG3310   -0.270000       12.0110           0
    2979 A    373  ETH  H1   HGA30    0.090000        1.0080           0
    2980 A    373  ETH  H2   HGA30    0.090000        1.0080           0
    2981 A    373  ETH  H3   HGA30    0.090000        1.0080           0
    2982 A    373  ETH  H4   HGA30    0.090000        1.0080           0
    2983 A    373  ETH  H5   HGA30    0.090000        1.0080           0
    2984 A    373  ETH  H6   HGA30    0.090000        1.0080           0
    2985 A    374  ETH  C1   CG3310   -0.270000       12.0110           0
    2986 A    374  ETH  C2   CG3310   -0.270000       12.0110           0
    2987 A    374  ETH  H1   HGA30    0.090000        1.0080           0
    2988 A    374  ETH  H2   HGA30    0.090000        1.0080           0
    2989 A    374  ETH  H3   HGA30    0.090000        1.0080           0
    2990 A    374  ETH  H4   HGA30    0.090000        1.0080           0
    2991 A    374  ETH  H5   HGA30    0.090000        1.0080           0
    2992 A    374  ETH  H6   HGA30    0.090000        1.0080           0
    2993 A    375  ETH  C1   CG3310   -0.270000       12.0110           0
    2994 A    375  ETH  C2   CG3310   -0.270000       12.0110           0
    2995 A    375  ETH  H1   HGA30    0.090000        1.0080           0
    2996 A    375  ETH  H2   HGA30    0.090000        1.0080           0
    2997 A    375  ETH  H3   HGA30    0.090000        1.0080           0
    2998 A    375  ETH  H4   HGA30    0.090000        1.0080           0
    2999 A    375  ETH  H5   HGA30    0.090000        1.0080           0
    3000 A    375  ETH  H6   HGA30    0.090000        1.0080           0
    3001 A    376  ETH  C1   CG3310   -0.270000       12.0110           0
    3002 A    376  ETH  C2   CG3310   -0.270000       12.0110           0
    3003 A    376  ETH  H1   HGA30    0.090000        1.0080           0
    3004 A    376  ETH  H2   HGA30    0.090000        1.0080           0
    3005 A    376  ETH  H3   HGA30    0.090000        1.0080           0
    3006 A    376  ETH  H4   HGA30    0.090000        1.0080           0
    3007 A    376  ETH  H5   HGA30    0.090000        1.0080           0
    3008 A    376  ETH  H6   HGA30    0.090000        1.0080           0
    3009 A    377  ETH  C1   CG3310   -0.270000       12.0110           0
    3010 A    377  ETH  C2   CG3310   -0.270000       12.0110           0
    3011 A    377  ETH  H1   HGA30    0.090000        1.0080           0
    3012 A    377  ETH  H2   HGA30    0.090000        1.0080           0
    3013 A    377  ETH  H3   HGA30    0.090000        1.0080           0
    3014 A    377  ETH  H4   HGA30    0.090000        1.0080           0
    3015 A    377  ETH  H5   HGA30    0.090000        1.0080           0
    3016 A    377  ETH  H6   HGA30    0.090000        1.0080           0
    3017 A    378  ETH  C1   CG3310   -0.270000       12.0110           0
    3018 A    378  ETH  C2   CG3310   -0.270000       12.0110           0
    3019 A    378  ETH  H1   HGA30    0.090000        1.0080           0
    3020 A    378  ETH  H2   HGA30    0.090000        1.0080           0
    3021 A    378  ETH  H3   HGA30    0.090000        1.0080           0
    3022 A    378  ETH  H4   HGA30    0.090000        1.0080           0
    3023 A    378  ETH  H5   HGA30    0.090000        1.0080           0
    3024 A    378  ETH  H6   HGA30    0.090000        1.0080           0
    3025 A    379  ETH  C1   CG3310   -0.270000       12.0110           0
    3026 A    379  ETH  C2   CG3310   -0.270000       12.0110           0
    3027 A    379  ETH  H1   HGA30    0.090000        1.0080           0
    3028 A    379  ETH  H2   HGA30    0.090000        1.0080           0
    3029 A    379  ETH  H3   HGA30    0.090000        1.0080           0
    3030 A    379  ETH  H4   HGA30    0.090000        1.0080           0
    3031 A    379  ETH  H5   HGA30    0.090000        1.0080           0
    3032 A    379  ETH  H6   HGA30    0.090000        1.0080           0
    3033 A    380  ETH  C1   CG3310   -0.270000       12.0110           0
    3034 A    380  ETH  C2   CG3310   -0.270000       12.0110           0
    3035 A    380  ETH  H1   HGA30    0.090000        1.0080           0
    3036 A    380  ETH  H2   HGA30    0.090000        1.0080           0
    3037 A    380  ETH  H3   HGA30    0.090000        1.0080           0
    3038 A    380  ETH  H4   HGA30    0.090000        1.0080           0
    3039 A    380  ETH  H5   HGA30    0.090000        1.0080           0
    3040 A    380  ETH  H6   HGA30    0.090000        1.0080           0
    3041 A    381  ETH  C1   CG3310   -0.270000       12.0110           0
    3042 A    381  ETH  C2   CG3310   -0.270000       12.0110           0
    3043 A    381  ETH  H1   HGA30    0.090000        1.0080           0
    3044 A    381  ETH  H2   HGA30    0.090000        1.0080           0
    3045 A    381  ETH  H3   HGA30    0.090000        1.0080           0
    3046 A    381  ETH  H4   HGA30    0.090000        1.0080           0
    3047 A    381  ETH  H5   HGA30    0.090000        1.0080           0
    3048 A    381  ETH  H6   HGA30    0.090000        1.0080           0
    3049 A    382  ETH  C1   CG3310   -0.270000       12.0110           0
    3050 A    382  ETH  C2   CG3310   -0.270000       12.0110           0
    3051 A    382  ETH  H1   HGA30    0.090000        1.0080           0
    3052 A    382  ETH  H2   HGA30    0.090000        1.0080           0
    3053 A    382  ETH  H3   HGA30    0.090000        1.0080           0
    3054 A    382  ETH  H4   HGA30    0.090000        1.0080           0
    3055 A    382  ETH  H5   HGA30    0.090000        1.0080           0
    3056 A    382  ETH  H6   HGA30    0.090000        1.0080           0
    3057 A    383  ETH  C1   CG3310   -0.270000       12.0110           0
    3058 A    383  ETH  C2   CG3310   -0.270000       12.0110           0
    3059 A    383  ETH  H1   HGA30    0.090000        1.0080           0
    3060 A    383  ETH  H2   HGA30    0.090000        1.0080           0
    3061 A    383  ETH  H3   HGA30    0.090000        1.0080           0
    3062 A    383  ETH  H4   HGA30    0.090000        1.0080           0
    3063 A    383  ETH  H5   HGA30    0.090000        1.0080           0
    3064 A    383  ETH  H6   HGA30    0.090000        1.0080           0
    3065 A    384  ETH  C1   CG3310   -0.270000       12.0110           0
    3066 A    384  ETH  C2   CG3310   -0.270000       12.0110           0
    3067 A    384  ETH  H1   HGA30    0.090000        1.0080           0
    3068 A    384  ETH  H2   HGA30    0.090000        1.0080           0
    3069 A    384  ETH  H3   HGA30    0.090000        1.0080           0
    3070 A    384  ETH  H4   HGA30    0.090000        1.0080           0
    3071 A    384  ETH  H5   HGA30    0.090000        1.0080           0
    3072 A    384  ETH  H6   HGA30    0.090000        1.0080           0
    3073 A    385  ETH  C1   CG3310   -0.270000       12.0110           0
    3074 A    385  ETH  C2   CG3310   -0.270000       12.0110           0
    3075 A    385  ETH  H1   HGA30    0.090000        1.0080           0
    3076 A    385  ETH  H2   HGA30    0.090000        1.0080           0
    3077 A    385  ETH  H3   HGA30    0.090000        1.0080           0
    3078 A    385  ETH  H4   HGA30    0.090000        1.0080           0
    3079 A    385  ETH  H5   HGA30    0.090000        1.0080           0
    3080 A    385  ETH  H6   HGA30    0.090000        1.0080           0
    3081 A    386  ETH  C1   CG3310   -0.270000       12.0110           0
    3082 A    386  ETH  C2   CG3310   -0.270000       12.0110           0
    3083 A    386  ETH  H1   HGA30    0.090000        1.0080           0
    3084 A    386  ETH  H2   HGA30    0.090000        1.0080           0
    3085 A    386  ETH  H3   HGA30    0.090000        1.0080           0
    3086 A    386  ETH  H4   HGA30    0.090000        1.0080           0
    3087 A    386  ETH  H5   HGA30    0.090000        1.0080           0
    3088 A    386  ETH  H6   HGA30    0.090000        1.0080           0
    3089 A    387  ETH  C1   CG3310   -0.270000       12.0110           0
    3090 A    387  ETH  C2   CG3310   -0.270000       12.0110           0
    3091 A    387  ETH  H1   HGA30    0.090000        1.0080           0
    3092 A    387  ETH  H2   HGA30    0.090000        1.0080           0
    3093 A    387  ETH  H3   HGA30    0.090000        1.0080           0
    3094 A    387  ETH  H4   HGA30    0.090000        1.0080           0
    3095 A    387  ETH  H5   HGA30    0.090000        1.0080           0
    3096 A    387  ETH  H6   HGA30    0.090000        1.0080           0
    3097 A    388  ETH  C1   CG3310   -0.270000       12.0110           0
    3098 A    388  ETH  C2   CG3310   -0.270000       12.0110           0
    3099 A    388  ETH  H1   HGA30    0.090000        1.0080           0
    3100 A    388  ETH  H2   HGA30    0.090000        1.0080           0
    3101 A    388  ETH  H3   HGA30    0.090000        1.0080           0
    3102 A    388  ETH  H4   HGA30    0.090000        1.0080           0
    3103 A    388  ETH  H5   HGA30    0.090000        1.0080           0
    3104 A    388  ETH  H6   HGA30    0.090000        1.0080           0
    3105 A    389  ETH  C1   CG3310   -0.270000       12.0110           0
    3106 A    389  ETH  C2   CG3310   -0.270000       12.0110           0
    3107 A    389  ETH  H1   HGA30    0.090000        1.0080           0
    3108 A    389  ETH  H2   HGA30    0.090000        1.0080           0
    3109 A    389  ETH  H3   HGA30    0.090000        1.0080           0
    3110 A    389  ETH  H4   HGA30    0.090000        1.0080           0
    3111 A    389  ETH  H5   HGA30    0.090000        1.0080           0
    3112 A    389  ETH  H6   HGA30    0.090000        1.0080           0
    3113 A    390  ETH  C1   CG3310   -0.270000       12.0110           0
    3114 A    390  ETH  C2   CG3310   -0.270000       12.0110           0
    3115 A    390  ETH  H1   HGA30    0.090000        1.0080           0
    3116 A    390  ETH  H2   HGA30    0.090000        1.0080           0
    3117 A    390  ETH  H3   HGA30    0.090000        1.0080           0
    3118 A    390  ETH  H4   HGA30    0.090000        1.0080           0
    3119 A    390  ETH  H5   HGA30    0.090000        1.0080           0
    3120 A    390  ETH  H6   HGA30    0.090000        1.0080           0
    3121 A    391  ETH  C1   CG3310   -0.270000       12.0110           0
    3122 A    391  ETH  C2   CG3310   -0.270000       12.0110           0
    3123 A    391  ETH  H1   HGA30    0.090000        1.0080           0
    3124 A    391  ETH  H2   HGA30    0.090000        1.0080           0
    3125 A    391  ETH  H3   HGA30    0.090000        1.0080           0
    3126 A    391  ETH  H4   HGA30    0.090000        1.0080           0
    3127 A    391  ETH  H5   HGA30    0.090000        1.0080           0
    3128 A    391  ETH  H6   HGA30    0.090000        1.0080           0
    3129 A    392  ETH  C1   CG3310   -0.270000       12.0110           0
    3130 A    392  ETH  C2   CG3310   -0.270000       12.0110           0
    3131 A    392  ETH  H1   HGA30    0.090000        1.0080           0
    3132 A    392  ETH  H2   HGA30    0.090000        1.0080           0
    3133 A    392  ETH  H3   HGA30    0.090000        1.0080           0
    3134 A    392  ETH  H4   HGA30    0.090000        1.0080           0
    3135 A    392  ETH  H5   HGA30    0.090000        1.0080           0
    3136 A    392  ETH  H6   HGA30    0.090000        1.0080           0
    3137 A    393  ETH  C1   CG3310   -0.270000       12.0110           0
    3138 A    393  ETH  C2   CG3310   -0.270000       12.0110           0
    3139 A    393  ETH  H1   HGA30    0.090000        1.0080           0
    3140 A    393  ETH  H2   HGA30    0.090000        1.0080           0
    3141 A    393  ETH  H3   HGA30    0.090000        1.0080           0
    3142 A    393  ETH  H4   HGA30    0.090000        1.0080           0
    3143 A    393  ETH  H5   HGA30    0.090000        1.0080           0
    3144 A    393  ETH  H6   HGA30    0.090000        1.0080           0
    3145 A    394  ETH  C1   CG3310   -0.270000       12.0110           0
    3146 A    394  ETH  C2   CG3310   -0.270000       12.0110           0
    3147 A    394  ETH  H1   HGA30    0.090000        1.0080           0
    3148 A    394  ETH  H2   HGA30    0.090000        1.0080           0
    3149 A    394  ETH  H3   HGA30    0.090000        1.0080           0
    3150 A    394  ETH  H4   HGA30    0.090000        1.0080           0
    3151 A    394  ETH  H5   HGA30    0.090000        1.0080           0
    3152 A    394  ETH  H6   HGA30    0.090000        1.0080           0
    3153 A    395  ETH  C1   CG3310   -0.270000       12.0110           0
    3154 A    395  ETH  C2   CG3310   -0.270000       12.0110           0
    3155 A    395  ETH  H1   HGA30    0.090000        1.0080           0
    3156 A    395  ETH  H2   HGA30    0.090000        1.0080           0
    3157 A    395  ETH  H3   HGA30    0.090000        1.0080           0
    3158 A    395  ETH  H4   HGA30    0.090000        1.0080           0
    3159 A    395  ETH  H5   HGA30    0.090000        1.0080           0
    3160 A    395  ETH  H6   HGA30    0.090000        1.0080           0
    3161 A    396  ETH  C1   CG3310   -0.270000       12.0110           0
    3162 A    396  ETH  C2   CG3310   -0.270000       12.0110           0
    3163 A    396  ETH  H1   HGA30    0.090000        1.0080           0
    3164 A    396  ETH  H2   HGA30    0.090000        1.0080           0
    3165 A    396  ETH  H3   HGA30    0.090000        1.0080           0
    3166 A    396  ETH  H4   HGA30    0.090000        1.0080           0
    3167 A    396  ETH  H5   HGA30    0.090000        1.0080           0
    3168 A    396  ETH  H6   HGA30    0.090000        1.0080           0
    3169 A    397  ETH  C1   CG3310   -0.270000       12.0110           0
    3170 A    397  ETH  C2   CG3310   -0.270000       12.0110           0
    3171 A    397  ETH  H1   HGA30    0.090000        1.0080           0
    3172 A    397  ETH  H2   HGA30    0.090000        1.0080           0
    3173 A    397  ETH  H3   HGA30    0.090000        1.0080           0
    3174 A    397  ETH  H4   HGA30    0.090000        1.0080           0
    3175 A    397  ETH  H5   HGA30    0.090000        1.0080           0
    3176 A    397  ETH  H6   HGA30    0.090000        1.0080           0
    3177 A    398  ETH  C1   CG3310   -0.270000       12.0110           0
    3178 A    398  ETH  C2   CG3310   -0.270000       12.0110           0
    3179 A    398  ETH  H1   HGA30    0.090000        1.0080           0
    3180 A    398  ETH  H2   HGA30    0.090000        1.0080           0
    3181 A    398  ETH  H3   HGA30    0.090000        1.0080           0
    3182 A    398  ETH  H4   HGA30    0.090000        1.0080           0
    3183 A    398  ETH  H5   HGA30    0.090000        1.0080           0
    3184 A    398  ETH  H6   HGA30    0.090000        1.0080           0
    3185 A    399  ETH  C1   CG3310   -0.270000       12.0110           0
    3186 A    399  ETH  C2   CG3310   -0.270000       12.0110           0
    3187 A    399  ETH  H1   HGA30    0.090000        1.0080           0
    3188 A    399  ETH  H2   HGA30    0.090000        1.0080           0
    3189 A    399  ETH  H3   HGA30    0.090000        1.0080           0
    3190 A    399  ETH  H4   HGA30    0.090000        1.0080           0
    3191 A    399  ETH  H5   HGA30    0.090000        1.0080           0
    3192 A    399  ETH  H6   HGA30    0.090000        1.0080           0
    3193 A    400  ETH  C1   CG3310   -0.270000       12.0110           0
    3194 A    400  ETH  C2   CG3310   -0.270000       12.0110           0
    3195 A    400  ETH  H1   HGA30    0.090000        1.0080           0
    3196 A    400  ETH  H2   HGA30    0.090000        1.0080           0
    3197 A    400  ETH  H3   HGA30    0.090000        1.0080           0
    3198 A    400  ETH  H4   HGA30    0.090000        1.0080           0
    3199 A    400  ETH  H5   HGA30    0.090000        1.0080           0
    3200 A    400  ETH  H6   HGA30    0.090000        1.0080           0
    3201 A    401  ETH  C1   CG3310   -0.270000       12.0110           0
    3202 A    401  ETH  C2   CG3310   -0.270000       12.0110           0
    3203 A    401  ETH  H1   HGA30    0.090000        1.0080           0
    3204 A    401  ETH  H2   HGA30    0.090000        1.0080           0
    3205 A    401  ETH  H3   HGA30    0.090000        1.0080           0
    3206 A    401  ETH  H4   HGA30    0.090000        1.0080           0
    3207 A    401  ETH  H5   HGA30    0.090000        1.0080           0
    3208 A    401  ETH  H6   HGA30    0.090000        1.0080           0
    3209 A    402  ETH  C1   CG3310   -0.270000       12.0110           0
    3210 A    402  ETH  C2   CG3310   -0.270000       12.0110           0
    3211 A    402  ETH  H1   HGA30    0.090000        1.0080           0
    3212 A    402  ETH  H2   HGA30    0.090000        1.0080           0
    3213 A    402  ETH  H3   HGA30    0.090000        1.0080           0
    3214 A    402  ETH  H4   HGA30    0.090000        1.0080           0
    3215 A    402  ETH  H5   HGA30    0.090000        1.0080           0
    3216 A    402  ETH  H6   HGA30    0.090000        1.0080           0
    3217 A    403  ETH  C1   CG3310   -0.270000       12.0110           0
    3218 A    403  ETH  C2   CG3310   -0.270000       12.0110           0
    3219 A    403  ETH  H1   HGA30    0.090000        1.0080           0
    3220 A    403  ETH  H2   HGA30    0.090000        1.0080           0
    3221 A    403  ETH  H3   HGA30    0.090000        1.0080           0
    3222 A    403  ETH  H4   HGA30    0.090000        1.0080           0
    3223 A    403  ETH  H5   HGA30    0.090000        1.0080           0
    3224 A    403  ETH  H6   HGA30    0.090000        1.0080           0
    3225 A    404  ETH  C1   CG3310   -0.270000       12.0110           0
    3226 A    404  ETH  C2   CG3310   -0.270000       12.0110           0
    3227 A    404  ETH  H1   HGA30    0.090000        1.0080           0
    3228 A    404  ETH  H2   HGA30    0.090000        1.0080           0
    3229 A    404  ETH  H3   HGA30    0.090000        1.0080           0
    3230 A    404  ETH  H4   HGA30    0.090000        1.0080           0
    3231 A    404  ETH  H5   HGA30    0.090000        1.0080           0
    3232 A    404  ETH  H6   HGA30    0.090000        1.0080           0
    3233 A    405  ETH  C1   CG3310   -0.270000       12.0110           0
    3234 A    405  ETH  C2   CG3310   -0.270000       12.0110           0
    3235 A    405  ETH  H1   HGA30    0.090000        1.0080           0
    3236 A    405  ETH  H2   HGA30    0.090000        1.0080           0
    3237 A    405  ETH  H3   HGA30    0.090000        1.0080           0
    3238 A    405  ETH  H4   HGA30    0.090000        1.0080           0
    3239 A    405  ETH  H5   HGA30    0.090000        1.0080           0
    3240 A    405  ETH  H6   HGA30    0.090000        1.0080           0
    3241 A    406  ETH  C1   CG3310   -0.270000       12.0110           0
    3242 A    406  ETH  C2   CG3310   -0.270000       12.0110           0
    3243 A    406  ETH  H1   HGA30    0.090000        1.0080           0
    3244 A    406  ETH  H2   HGA30    0.090000        1.0080           0
    3245 A    406  ETH  H3   HGA30    0.090000        1.0080           0
    3246 A    406  ETH  H4   HGA30    0.090000        1.0080           0
    3247 A    406  ETH  H5   HGA30    0.090000        1.0080           0
    3248 A    406  ETH  H6   HGA30    0.090000        1.0080           0
    3249 A    407  ETH  C1   CG3310   -0.270000       12.0110           0
    3250 A    407  ETH  C2   CG3310   -0.270000       12.0110           0
    3251 A    407  ETH  H1   HGA30    0.090000        1.0080           0
    3252 A    407  ETH  H2   HGA30    0.090000        1.0080           0
    3253 A    407  ETH  H3   HGA30    0.090000        1.0080           0
    3254 A    407  ETH  H4   HGA30    0.090000        1.0080           0
    3255 A    407  ETH  H5   HGA30    0.090000        1.0080           0
    3256 A    407  ETH  H6   HGA30    0.090000        1.0080           0
    3257 A    408  ETH  C1   CG3310   -0.270000       12.0110           0
    3258 A    408  ETH  C2   CG3310   -0.270000       12.0110           0
    3259 A    408  ETH  H1   HGA30    0.090000        1.0080           0
    3260 A    408  ETH  H2   HGA30    0.090000        1.0080           0
    3261 A    408  ETH  H3   HGA30    0.090000        1.0080           0
    3262 A    408  ETH  H4   HGA30    0.090000        1.0080           0
    3263 A    408  ETH  H5   HGA30    0.090000        1.0080           0
    3264 A    408  ETH  H6   HGA30    0.090000        1.0080           0
    3265 A    409  ETH  C1   CG3310   -0.270000       12.0110           0
    3266 A    409  ETH  C2   CG3310   -0.270000       12.0110           0
    3267 A    409  ETH  H1   HGA30    0.090000        1.0080           0
    3268 A    409  ETH  H2   HGA30    0.090000        1.0080           0
    3269 A    409  ETH  H3   HGA30    0.090000        1.0080           0
    3270 A    409  ETH  H4   HGA30    0.090000        1.0080           0
    3271 A    409  ETH  H5   HGA30    0.090000        1.0080           0
    3272 A    409  ETH  H6   HGA30    0.090000        1.0080           0
    3273 A    410  ETH  C1   CG3310   -0.270000       12.0110           0
    3274 A    410  ETH  C2   CG3310   -0.270000       12.0110           0
    3275 A    410  ETH  H1   HGA30    0.090000        1.0080           0
    3276 A    410  ETH  H2   HGA30    0.090000        1.0080           0
    3277 A    410  ETH  H3   HGA30    0.090000        1.0080           0
    3278 A    410  ETH  H4   HGA30    0.090000        1.0080           0
    3279 A    410  ETH  H5   HGA30    0.090000        1.0080           0
    3280 A    410  ETH  H6   HGA30    0.090000        1.0080           0
    3281 A    411  ETH  C1   CG3310   -0.270000       12.0110           0
    3282 A    411  ETH  C2   CG3310   -0.270000       12.0110           0
    3283 A    411  ETH  H1   HGA30    0.090000        1.0080           0
    3284 A    411  ETH  H2   HGA30    0.090000        1.0080           0
    3285 A    411  ETH  H3   HGA30    0.090000        1.0080           0
    3286 A    411  ETH  H4   HGA30    0.090000        1.0080           0
    3287 A    411  ETH  H5   HGA30    0.090000        1.0080           0
    3288 A    411  ETH  H6   HGA30    0.090000        1.0080           0
    3289 A    412  ETH  C1   CG3310   -0.270000       12.0110           0
    3290 A    412  ETH  C2   CG3310   -0.270000       12.0110           0
    3291 A    412  ETH  H1   HGA30    0.090000        1.0080           0
    3292 A    412  ETH  H2   HGA30    0.090000        1.0080           0
    3293 A    412  ETH  H3   HGA30    0.090000        1.0080           0
    3294 A    412  ETH  H4   HGA30    0.090000        1.0080           0
    3295 A    412  ETH  H5   HGA30    0.090000        1.0080           0
    3296 A    412  ETH  H6   HGA30    0.090000        1.0080           0
    3297 A    413  ETH  C1   CG3310   -0.270000       12.0110           0
    3298 A    413  ETH  C2   CG3310   -0.270000       12.0110           0
    3299 A    413  ETH  H1   HGA30    0.090000        1.0080           0
    3300 A    413  ETH  H2   HGA30    0.090000        1.0080           0
    3301 A    413  ETH  H3   HGA30    0.090000        1.0080           0
    3302 A    413  ETH  H4   HGA30    0.090000        1.0080           0
    3303 A    413  ETH  H5   HGA30    0.090000        1.0080           0
    3304 A    413  ETH  H6   HGA30    0.090000        1.0080           0
    3305 A    414  ETH  C1   CG3310   -0.270000       12.0110           0
    3306 A    414  ETH  C2   CG3310   -0.270000       12.0110           0
    3307 A    414  ETH  H1   HGA30    0.090000        1.0080           0
    3308 A    414  ETH  H2   HGA30    0.090000        1.0080           0
    3309 A    414  ETH  H3   HGA30    0.090000        1.0080           0
    3310 A    414  ETH  H4   HGA30    0.090000        1.0080           0
    3311 A    414  ETH  H5   HGA30    0.090000        1.0080           0
    3312 A    414  ETH  H6   HGA30    0.090000        1.0080           0
    3313 A    415  ETH  C1   CG3310   -0.270000       12.0110           0
    3314 A    415  ETH  C2   CG3310   -0.270000       12.0110           0
    3315 A    415  ETH  H1   HGA30    0.090000        1.0080           0
    3316 A    415  ETH  H2   HGA30    0.090000        1.0080           0
    3317 A    415  ETH  H3   HGA30    0.090000        1.0080           0
    3318 A    415  ETH  H4   HGA30    0.090000        1.0080           0
    3319 A    415  ETH  H5   HGA30    0.090000        1.0080           0
    3320 A    415  ETH  H6   HGA30    0.090000        1.0080           0
    3321 A    416  ETH  C1   CG3310   -0.270000       12.0110           0
    3322 A    416  ETH  C2   CG3310   -0.270000       12.0110           0
    3323 A    416  ETH  H1   HGA30    0.090000        1.0080           0
    3324 A    416  ETH  H2   HGA30    0.090000        1.0080           0
    3325 A    416  ETH  H3   HGA30    0.090000        1.0080           0
    3326 A    416  ETH  H4   HGA30    0.090000        1.0080           0
    3327 A    416  ETH  H5   HGA30    0.090000        1.0080           0
    3328 A    416  ETH  H6   HGA30    0.090000        1.0080           0
    3329 A    417  ETH  C1   CG3310   -0.270000       12.0110           0
    3330 A    417  ETH  C2   CG3310   -0.270000       12.0110           0
    3331 A    417  ETH  H1   HGA30    0.090000        1.0080           0
    3332 A    417  ETH  H2   HGA30    0.090000        1.0080           0
    3333 A    417  ETH  H3   HGA30    0.090000        1.0080           0
    3334 A    417  ETH  H4   HGA30    0.090000        1.0080           0
    3335 A    417  ETH  H5   HGA30    0.090000        1.0080           0
    3336 A    417  ETH  H6   HGA30    0.090000        1.0080           0
    3337 A    418  ETH  C1   CG3310   -0.270000       12.0110           0
    3338 A    418  ETH  C2   CG3310   -0.270000       12.0110           0
    3339 A    418  ETH  H1   HGA30    0.090000        1.0080           0
    3340 A    418  ETH  H2   HGA30    0.090000        1.0080           0
    3341 A    418  ETH  H3   HGA30    0.090000        1.0080           0
    3342 A    418  ETH  H4   HGA30    0.090000        1.0080           0
    3343 A    418  ETH  H5   HGA30    0.090000        1.0080           0
    3344 A    418  ETH  H6   HGA30    0.090000        1.0080           0
    3345 A    419  ETH  C1   CG3310   -0.270000       12.0110           0
    3346 A    419  ETH  C2   CG3310   -0.270000       12.0110           0
    3347 A    419  ETH  H1   HGA30    0.090000        1.0080           0
    3348 A    419  ETH  H2   HGA30    0.090000        1.0080           0
    3349 A    419  ETH  H3   HGA30    0.090000        1.0080           0
    3350 A    419  ETH  H4   HGA30    0.090000        1.0080           0
    3351 A    419  ETH  H5   HGA30    0.090000        1.0080           0
    3352 A    419  ETH  H6   HGA30    0.090000        1.0080           0
    3353 A    420  ETH  C1   CG3310   -0.270000       12.0110           0
    3354 A    420  ETH  C2   CG3310   -0.270000       12.0110           0
    3355 A    420  ETH  H1   HGA30    0.090000        1.0080           0
    3356 A    420  ETH  H2   HGA30    0.090000        1.0080           0
    3357 A    420  ETH  H3   HGA30    0.090000        1.0080           0
    3358 A    420  ETH  H4   HGA30    0.090000        1.0080           0
    3359 A    420  ETH  H5   HGA30    0.090000        1.0080           0
    3360 A    420  ETH  H6   HGA30    0.090000        1.0080           0
    3361 A    421  ETH  C1   CG3310   -0.270000       12.0110           0
    3362 A    421  ETH  C2   CG3310   -0.270000       12.0110           0
    3363 A    421  ETH  H1   HGA30    0.090000        1.0080           0
    3364 A    421  ETH  H2   HGA30    0.090000        1.0080           0
    3365 A    421  ETH  H3   HGA30    0.090000        1.0080           0
    3366 A    421  ETH  H4   HGA30    0.090000        1.0080           0
    3367 A    421  ETH  H5   HGA30    0.090000        1.0080           0
    3368 A    421  ETH  H6   HGA30    0.090000        1.0080           0
    3369 A    422  ETH  C1   CG3310   -0.270000       12.0110           0
    3370 A    422  ETH  C2   CG3310   -0.270000       12.0110           0
    3371 A    422  ETH  H1   HGA30    0.090000        1.0080           0
    3372 A    422  ETH  H2   HGA30    0.090000        1.0080           0
    3373 A    422  ETH  H3   HGA30    0.090000        1.0080           0
    3374 A    422  ETH  H4   HGA30    0.090000        1.0080           0
    3375 A    422  ETH  H5   HGA30    0.090000        1.0080           0
    3376 A    422  ETH  H6   HGA30    0.090000        1.0080           0
    3377 A    423  ETH  C1   CG3310   -0.270000       12.0110           0
    3378 A    423  ETH  C2   CG3310   -0.270000       12.0110           0
    3379 A    423  ETH  H1   HGA30    0.090000        1.0080           0
    3380 A    423  ETH  H2   HGA30    0.090000        1.0080           0
    3381 A    423  ETH  H3   HGA30    0.090000        1.0080           0
    3382 A    423  ETH  H4   HGA30    0.090000        1.0080           0
    3383 A    423  ETH  H5   HGA30    0.090000        1.0080           0
    3384 A    423  ETH  H6   HGA30    0.090000        1.0080           0
    3385 A    424  ETH  C1   CG3310   -0.270000       12.0110           0
    3386 A    424  ETH  C2   CG3310   -0.270000       12.0110           0
    3387 A    424  ETH  H1   HGA30    0.090000        1.0080           0
    3388 A    424  ETH  H2   HGA30    0.090000        1.0080           0
    3389 A    424  ETH  H3   HGA30    0.090000        1.0080           0
    3390 A    424  ETH  H4   HGA30    0.090000        1.0080           0
    3391 A    424  ETH  H5   HGA30    0.090000        1.0080           0
    3392 A    424  ETH  H6   HGA30    0.090000        1.0080           0
    3393 A    425  ETH  C1   CG3310   -0.270000       12.0110           0
    3394 A    425  ETH  C2   CG3310   -0.270000       12.0110           0
    3395 A    425  ETH  H1   HGA30    0.090000        1.0080           0
    3396 A    425  ETH  H2   HGA30    0.090000        1.0080           0
    3397 A    425  ETH  H3   HGA30    0.090000        1.0080           0
    3398 A    425  ETH  H4   HGA30    0.090000        1.0080           0
    3399 A    425  ETH  H5   HGA30    0.090000        1.0080           0
    3400 A    425  ETH  H6   HGA30    0.090000        1.0080           0
    3401 A    426  ETH  C1   CG3310   -0.270000       12.0110           0
    3402 A    426  ETH  C2   CG3310   -0.270000       12.0110           0
    3403 A    426  ETH  H1   HGA30    0.090000        1.0080           0
    3404 A    426  ETH  H2   HGA30    0.090000        1.0080           0
    3405 A    426  ETH  H3   HGA30    0.090000        1.0080           0
    3406 A    426  ETH  H4   HGA30    0.090000        1.0080           0
    3407 A    426  ETH  H5   HGA30    0.090000        1.0080           0
    3408 A    426  ETH  H6   HGA30    0.090000        1.0080           0
    3409 A    427  ETH  C1   CG3310   -0.270000       12.0110           0
    3410 A    427  ETH  C2   CG3310   -0.270000       12.0110           0
    3411 A    427  ETH  H1   HGA30    0.090000        1.0080           0
    3412 A    427  ETH  H2   HGA30    0.090000        1.0080           0
    3413 A    427  ETH  H3   HGA30    0.090000        1.0080           0
    3414 A    427  ETH  H4   HGA30    0.090000        1.0080           0
    3415 A    427  ETH  H5   HGA30    0.090000        1.0080           0
    3416 A    427  ETH  H6   HGA30    0.090000        1.0080           0
    3417 A    428  ETH  C1   CG3310   -0.270000       12.0110           0
    3418 A    428  ETH  C2   CG3310   -0.270000       12.0110           0
    3419 A    428  ETH  H1   HGA30    0.090000        1.0080           0
    3420 A    428  ETH  H2   HGA30    0.090000        1.0080           0
    3421 A    428  ETH  H3   HGA30    0.090000        1.0080           0
    3422 A    428  ETH  H4   HGA30    0.090000        1.0080           0
    3423 A    428  ETH  H5   HGA30    0.090000        1.0080           0
    3424 A    428  ETH  H6   HGA30    0.090000        1.0080           0
    3425 A    429  ETH  C1   CG3310   -0.270000       12.0110           0
    3426 A    429  ETH  C2   CG3310   -0.270000       12.0110           0
    3427 A    429  ETH  H1   HGA30    0.090000        1.0080           0
    3428 A    429  ETH  H2   HGA30    0.090000        1.0080           0
    3429 A    429  ETH  H3   HGA30    0.090000        1.0080           0
    3430 A    429  ETH  H4   HGA30    0.090000        1.0080           0
    3431 A    429  ETH  H5   HGA30    0.090000        1.0080           0
    3432 A    429  ETH  H6   HGA30    0.090000        1.0080           0
    3433 A    430  ETH  C1   CG3310   -0.270000       12.0110           0
    3434 A    430  ETH  C2   CG3310   -0.270000       12.0110           0
    3435 A    430  ETH  H1   HGA30    0.090000        1.0080           0
    3436 A    430  ETH  H2   HGA30    0.090000        1.0080           0
    3437 A    430  ETH  H3   HGA30    0.090000        1.0080           0
    3438 A    430  ETH  H4   HGA30    0.090000        1.0080           0
    3439 A    430  ETH  H5   HGA30    0.090000        1.0080           0
    3440 A    430  ETH  H6   HGA30    0.090000        1.0080           0
    3441 A    431  ETH  C1   CG3310   -0.270000       12.0110           0
    3442 A    431  ETH  C2   CG3310   -0.270000       12.0110           0
    3443 A    431  ETH  H1   HGA30    0.090000        1.0080           0
    3444 A    431  ETH  H2   HGA30    0.090000        1.0080           0
    3445 A    431  ETH  H3   HGA30    0.090000        1.0080           0
    3446 A    431  ETH  H4   HGA30    0.090000        1.0080           0
    3447 A    431  ETH  H5   HGA30    0.090000        1.0080           0
    3448 A    431  ETH  H6   HGA30    0.090000        1.0080           0
    3449 A    432  ETH  C1   CG3310   -0.270000       12.0110           0
    3450 A    432  ETH  C2   CG3310   -0.270000       12.0110           0
    3451 A    432  ETH  H1   HGA30    0.090000        1.0080           0
    3452 A    432  ETH  H2   HGA30    0.090000        1.0080           0
    3453 A    432  ETH  H3   HGA30    0.090000        1.0080           0
    3454 A    432  ETH  H4   HGA30    0.090000        1.0080           0
    3455 A    432  ETH  H5   HGA30    0.090000        1.0080           0
    3456 A    432  ETH  H6   HGA30    0.090000        1.0080           0
    3457 A    433  ETH  C1   CG3310   -0.270000       12.0110           0
    3458 A    433  ETH  C2   CG3310   -0.270000       12.0110           0
    3459 A    433  ETH  H1   HGA30    0.090000        1.0080           0
    3460 A    433  ETH  H2   HGA30    0.090000        1.0080           0
    3461 A    433  ETH  H3   HGA30    0.090000        1.0080           0
    3462 A    433  ETH  H4   HGA30    0.090000        1.0080           0
    3463 A    433  ETH  H5   HGA30    0.090000        1.0080           0
    3464 A    433  ETH  H6   HGA30    0.090000        1.0080           0
    3465 A    434  ETH  C1   CG3310   -0.270000       12.0110           0
    3466 A    434  ETH  C2   CG3310   -0.270000       12.0110           0
    3467 A    434  ETH  H1   HGA30    0.090000        1.0080           0
    3468 A    434  ETH  H2   HGA30    0.090000        1.0080           0
    3469 A    434  ETH  H3   HGA30    0.090000        1.0080           0
    3470 A    434  ETH  H4   HGA30    0.090000        1.0080           0
    3471 A    434  ETH  H5   HGA30    0.090000        1.0080           0
    3472 A    434  ETH  H6   HGA30    0.090000        1.0080           0
    3473 A    435  ETH  C1   CG3310   -0.270000       12.0110           0
    3474 A    435  ETH  C2   CG3310   -0.270000       12.0110           0
    3475 A    435  ETH  H1   HGA30    0.090000        1.0080           0
    3476 A    435  ETH  H2   HGA30    0.090000        1.0080           0
    3477 A    435  ETH  H3   HGA30    0.090000        1.0080           0
    3478 A    435  ETH  H4   HGA30    0.090000        1.0080           0
    3479 A    435  ETH  H5   HGA30    0.090000        1.0080           0
    3480 A    435  ETH  H6   HGA30    0.090000        1.0080           0
    3481 A    436  ETH  C1   CG3310   -0.270000       12.0110           0
    3482 A    436  ETH  C2   CG3310   -0.270000       12.0110           0
    3483 A    436  ETH  H1   HGA30    0.090000        1.0080           0
    3484 A    436  ETH  H2   HGA30    0.090000        1.0080           0
    3485 A    436  ETH  H3   HGA30    0.090000        1.0080           0
    3486 A    436  ETH  H4   HGA30    0.090000        1.0080           0
    3487 A    436  ETH  H5   HGA30    0.090000        1.0080           0
    3488 A    436  ETH  H6   HGA30    0.090000        1.0080           0
    3489 A    437  ETH  C1   CG3310   -0.270000       12.0110           0
    3490 A    437  ETH  C2   CG3310   -0.270000       12.0110           0
    3491 A    437  ETH  H1   HGA30    0.090000        1.0080           0
    3492 A    437  ETH  H2   HGA30    0.090000        1.0080           0
    3493 A    437  ETH  H3   HGA30    0.090000        1.0080           0
    3494 A    437  ETH  H4   HGA30    0.090000        1.0080           0
    3495 A    437  ETH  H5   HGA30    0.090000        1.0080           0
    3496 A    437  ETH  H6   HGA30    0.090000        1.0080           0
    3497 A    438  ETH  C1   CG3310   -0.270000       12.0110           0
    3498 A    438  ETH  C2   CG3310   -0.270000       12.0110           0
    3499 A    438  ETH  H1   HGA30    0.090000        1.0080           0
    3500 A    438  ETH  H2   HGA30    0.090000        1.0080           0
    3501 A    438  ETH  H3   HGA30    0.090000        1.0080           0
    3502 A    438  ETH  H4   HGA30    0.090000        1.0080           0
    3503 A    438  ETH  H5   HGA30    0.090000        1.0080           0
    3504 A    438  ETH  H6   HGA30    0.090000        1.0080           0
    3505 A    439  ETH  C1   CG3310   -0.270000       12.0110           0
    3506 A    439  ETH  C2   CG3310   -0.270000       12.0110           0
    3507 A    439  ETH  H1   HGA30    0.090000        1.0080           0
    3508 A    439  ETH  H2   HGA30    0.090000        1.0080           0
    3509 A    439  ETH  H3   HGA30    0.090000        1.0080           0
    3510 A    439  ETH  H4   HGA30    0.090000        1.0080           0
    3511 A    439  ETH  H5   HGA30    0.090000        1.0080           0
    3512 A    439  ETH  H6   HGA30    0.090000        1.0080           0
    3513 A    440  ETH  C1   CG3310   -0.270000       12.0110           0
    3514 A    440  ETH  C2   CG3310   -0.270000       12.0110           0
    3515 A    440  ETH  H1   HGA30    0.090000        1.0080           0
    3516 A    440  ETH  H2   HGA30    0.090000        1.0080           0
    3517 A    440  ETH  H3   HGA30    0.090000        1.0080           0
    3518 A    440  ETH  H4   HGA30    0.090000        1.0080           0
    3519 A    440  ETH  H5   HGA30    0.090000        1.0080           0
    3520 A    440  ETH  H6   HGA30    0.090000        1.0080           0
    3521 A    441  ETH  C1   CG3310   -0.270000       12.0110           0
    3522 A    441  ETH  C2   CG3310   -0.270000       12.0110           0
    3523 A    441  ETH  H1   HGA30    0.090000        1.0080           0
    3524 A    441  ETH  H2   HGA30    0.090000        1.0080           0
    3525 A    441  ETH  H3   HGA30    0.090000        1.0080           0
    3526 A    441  ETH  H4   HGA30    0.090000        1.0080           0
    3527 A    441  ETH  H5   HGA30    0.090000        1.0080           0
    3528 A    441  ETH  H6   HGA30    0.090000        1.0080           0
    3529 A    442  ETH  C1   CG3310   -0.270000       12.0110           0
    3530 A    442  ETH  C2   CG3310   -0.270000       12.0110           0
    3531 A    442  ETH  H1   HGA30    0.090000        1.0080           0
    3532 A    442  ETH  H2   HGA30    0.090000        1.0080           0
    3533 A    442  ETH  H3   HGA30    0.090000        1.0080           0
    3534 A    442  ETH  H4   HGA30    0.090000        1.0080           0
    3535 A    442  ETH  H5   HGA30    0.090000        1.0080           0
    3536 A    442  ETH  H6   HGA30    0.090000        1.0080           0
    3537 A    443  ETH  C1   CG3310   -0.270000       12.0110           0
    3538 A    443  ETH  C2   CG3310   -0.270000       12.0110           0
    3539 A    443  ETH  H1   HGA30    0.090000        1.0080           0
    3540 A    443  ETH  H2   HGA30    0.090000        1.0080           0
    3541 A    443  ETH  H3   HGA30    0.090000        1.0080           0
    3542 A    443  ETH  H4   HGA30    0.090000        1.0080           0
    3543 A    443  ETH  H5   HGA30    0.090000        1.0080           0
    3544 A    443  ETH  H6   HGA30    0.090000        1.0080           0
    3545 A    444  ETH  C1   CG3310   -0.270000       12.0110           0
    3546 A    444  ETH  C2   CG3310   -0.270000       12.0110           0
    3547 A    444  ETH  H1   HGA30    0.090000        1.0080           0
    3548 A    444  ETH  H2   HGA30    0.090000        1.0080           0
    3549 A    444  ETH  H3   HGA30    0.090000        1.0080           0
    3550 A    444  ETH  H4   HGA30    0.090000        1.0080           0
    3551 A    444  ETH  H5   HGA30    0.090000        1.0080           0
    3552 A    444  ETH  H6   HGA30    0.090000        1.0080           0
    3553 A    445  ETH  C1   CG3310   -0.270000       12.0110           0
    3554 A    445  ETH  C2   CG3310   -0.270000       12.0110           0
    3555 A    445  ETH  H1   HGA30    0.090000        1.0080           0
    3556 A    445  ETH  H2   HGA30    0.090000        1.0080           0
    3557 A    445  ETH  H3   HGA30    0.090000        1.0080           0
    3558 A    445  ETH  H4   HGA30    0.090000        1.0080           0
    3559 A    445  ETH  H5   HGA30    0.090000        1.0080           0
    3560 A    445  ETH  H6   HGA30    0.090000        1.0080           0
    3561 A    446  ETH  C1   CG3310   -0.270000       12.0110           0
    3562 A    446  ETH  C2   CG3310   -0.270000       12.0110           0
    3563 A    446  ETH  H1   HGA30    0.090000        1.0080           0
    3564 A    446  ETH  H2   HGA30    0.090000        1.0080           0
    3565 A    446  ETH  H3   HGA30    0.090000        1.0080           0
    3566 A    446  ETH  H4   HGA30    0.090000        1.0080           0
    3567 A    446  ETH  H5   HGA30    0.090000        1.0080           0
    3568 A    446  ETH  H6   HGA30    0.090000        1.0080           0
    3569 A    447  ETH  C1   CG3310   -0.270000       12.0110           0
    3570 A    447  ETH  C2   CG3310   -0.270000       12.0110           0
    3571 A    447  ETH  H1   HGA30    0.090000        1.0080           0
    3572 A    447  ETH  H2   HGA30    0.090000        1.0080           0
    3573 A    447  ETH  H3   HGA30    0.090000        1.0080           0
    3574 A    447  ETH  H4   HGA30    0.090000        1.0080           0
    3575 A    447  ETH  H5   HGA30    0.090000        1.0080           0
    3576 A    447  ETH  H6   HGA30    0.090000        1.0080           0
    3577 A    448  ETH  C1   CG3310   -0.270000       12.0110           0
    3578 A    448  ETH  C2   CG3310   -0.270000       12.0110           0
    3579 A    448  ETH  H1   HGA30    0.090000        1.0080           0
    3580 A    448  ETH  H2   HGA30    0.090000        1.0080           0
    3581 A    448  ETH  H3   HGA30    0.090000        1.0080           0
    3582 A    448  ETH  H4   HGA30    0.090000        1.0080           0
    3583 A    448  ETH  H5   HGA30    0.090000        1.0080           0
    3584 A    448  ETH  H6   HGA30    0.090000        1.0080           0
    3585 A    449  ETH  C1   CG3310   -0.270000       12.0110           0
    3586 A    449  ETH  C2   CG3310   -0.270000       12.0110           0
    3587 A    449  ETH  H1   HGA30    0.090000        1.0080           0
    3588 A    449  ETH  H2   HGA30    0.090000        1.0080           0
    3589 A    449  ETH  H3   HGA30    0.090000        1.0080           0
    3590 A    449  ETH  H4   HGA30    0.090000        1.0080           0
    3591 A    449  ETH  H5   HGA30    0.090000        1.0080           0
    3592 A    449  ETH  H6   HGA30    0.090000        1.0080           0
    3593 A    450  ETH  C1   CG3310   -0.270000       12.0110           0
    3594 A    450  ETH  C2   CG3310   -0.270000       12.0110           0
    3595 A    450  ETH  H1   HGA30    0.090000        1.0080           0
    3596 A    450  ETH  H2   HGA30    0.090000        1.0080           0
    3597 A    450  ETH  H3   HGA30    0.090000        1.0080           0
    3598 A    450  ETH  H4   HGA30    0.090000        1.0080           0
    3599 A    450  ETH  H5   HGA30    0.090000        1.0080           0
    3600 A    450  ETH  H6   HGA30    0.090000        1.0080           0
    3601 A    451  ETH  C1   CG3310   -0.270000       12.0110           0
    3602 A    451  ETH  C2   CG3310   -0.270000       12.0110           0
    3603 A    451  ETH  H1   HGA30    0.090000        1.0080           0
    3604 A    451  ETH  H2   HGA30    0.090000        1.0080           0
    3605 A    451  ETH  H3   HGA30    0.090000        1.0080           0
    3606 A    451  ETH  H4   HGA30    0.090000        1.0080           0
    3607 A    451  ETH  H5   HGA30    0.090000        1.0080           0
    3608 A    451  ETH  H6   HGA30    0.090000        1.0080           0
    3609 A    452  ETH  C1   CG3310   -0.270000       12.0110           0
    3610 A    452  ETH  C2   CG3310   -0.270000       12.0110           0
    3611 A    452  ETH  H1   HGA30    0.090000        1.0080           0
    3612 A    452  ETH  H2   HGA30    0.090000        1.0080           0
    3613 A    452  ETH  H3   HGA30    0.090000        1.0080           0
    3614 A    452  ETH  H4   HGA30    0.090000        1.0080           0
    3615 A    452  ETH  H5   HGA30    0.090000        1.0080           0
    3616 A    452  ETH  H6   HGA30    0.090000        1.0080           0
    3617 A    453  ETH  C1   CG3310   -0.270000       12.0110           0
    3618 A    453  ETH  C2   CG3310   -0.270000       12.0110           0
    3619 A    453  ETH  H1   HGA30    0.090000        1.0080           0
    3620 A    453  ETH  H2   HGA30    0.090000        1.0080           0
    3621 A    453  ETH  H3   HGA30    0.090000        1.0080           0
    3622 A    453  ETH  H4   HGA30    0.090000        1.0080           0
    3623 A    453  ETH  H5   HGA30    0.090000        1.0080           0
    3624 A    453  ETH  H6   HGA30    0.090000        1.0080           0
    3625 A    454  ETH  C1   CG3310   -0.270000       12.0110           0
    3626 A    454  ETH  C2   CG3310   -0.270000       12.0110           0
    3627 A    454  ETH  H1   HGA30    0.090000        1.0080           0
    3628 A    454  ETH  H2   HGA30    0.090000        1.0080           0
    3629 A    454  ETH  H3   HGA30    0.090000        1.0080           0
    3630 A    454  ETH  H4   HGA30    0.090000        1.0080           0
    3631 A    454  ETH  H5   HGA30    0.090000        1.0080           0
    3632 A    454  ETH  H6   HGA30    0.090000        1.0080           0
    3633 A    455  ETH  C1   CG3310   -0.270000       12.0110           0
    3634 A    455  ETH  C2   CG3310   -0.270000       12.0110           0
    3635 A    455  ETH  H1   HGA30    0.090000        1.0080           0
    3636 A    455  ETH  H2   HGA30    0.090000        1.0080           0
    3637 A    455  ETH  H3   HGA30    0.090000        1.0080           0
    3638 A    455  ETH  H4   HGA30    0.090000        1.0080           0
    3639 A    455  ETH  H5   HGA30    0.090000        1.0080           0
    3640 A    455  ETH  H6   HGA30    0.090000        1.0080           0
    3641 A    456  ETH  C1   CG3310   -0.270000       12.0110           0
    3642 A    456  ETH  C2   CG3310   -0.270000       12.0110           0
    3643 A    456  ETH  H1   HGA30    0.090000        1.0080           0
    3644 A    456  ETH  H2   HGA30    0.090000        1.0080           0
    3645 A    456  ETH  H3   HGA30    0.090000        1.0080           0
    3646 A    456  ETH  H4   HGA30    0.090000        1.0080           0
    3647 A    456  ETH  H5   HGA30    0.090000        1.0080           0
    3648 A    456  ETH  H6   HGA30    0.090000        1.0080           0
    3649 A    457  ETH  C1   CG3310   -0.270000       12.0110           0
    3650 A    457  ETH  C2   CG3310   -0.270000       12.0110           0
    3651 A    457  ETH  H1   HGA30    0.090000        1.0080           0
    3652 A    457  ETH  H2   HGA30    0.090000        1.0080           0
    3653 A    457  ETH  H3   HGA30    0.090000        1.0080           0
    3654 A    457  ETH  H4   HGA30    0.090000        1.0080           0
    3655 A    457  ETH  H5   HGA30    0.090000        1.0080           0
    3656 A    457  ETH  H6   HGA30    0.090000        1.0080           0
    3657 A    458  ETH  C1   CG3310   -0.270000       12.0110           0
    3658 A    458  ETH  C2   CG3310   -0.270000       12.0110           0
    3659 A    458  ETH  H1   HGA30    0.090000        1.0080           0
    3660 A    458  ETH  H2   HGA30    0.090000        1.0080           0
    3661 A    458  ETH  H3   HGA30    0.090000        1.0080           0
    3662 A    458  ETH  H4   HGA30    0.090000        1.0080           0
    3663 A    458  ETH  H5   HGA30    0.090000        1.0080           0
    3664 A    458  ETH  H6   HGA30    0.090000        1.0080           0
    3665 A    459  ETH  C1   CG3310   -0.270000       12.0110           0
    3666 A    459  ETH  C2   CG3310   -0.270000       12.0110           0
    3667 A    459  ETH  H1   HGA30    0.090000        1.0080           0
    3668 A    459  ETH  H2   HGA30    0.090000        1.0080           0
    3669 A    459  ETH  H3   HGA30    0.090000        1.0080           0
    3670 A    459  ETH  H4   HGA30    0.090000        1.0080           0
    3671 A    459  ETH  H5   HGA30    0.090000        1.0080           0
    3672 A    459  ETH  H6   HGA30    0.090000        1.0080           0
    3673 A    460  ETH  C1   CG3310   -0.270000       12.0110           0
    3674 A    460  ETH  C2   CG3310   -0.270000       12.0110           0
    3675 A    460  ETH  H1   HGA30    0.090000        1.0080           0
    3676 A    460  ETH  H2   HGA30    0.090000        1.0080           0
    3677 A    460  ETH  H3   HGA30    0.090000        1.0080           0
    3678 A    460  ETH  H4   HGA30    0.090000        1.0080           0
    3679 A    460  ETH  H5   HGA30    0.090000        1.0080           0
    3680 A    460  ETH  H6   HGA30    0.090000        1.0080           0
    3681 A    461  ETH  C1   CG3310   -0.270000       12.0110           0
    3682 A    461  ETH  C2   CG3310   -0.270000       12.0110           0
    3683 A    461  ETH  H1   HGA30    0.090000        1.0080           0
    3684 A    461  ETH  H2   HGA30    0.090000        1.0080           0
    3685 A    461  ETH  H3   HGA30    0.090000        1.0080           0
    3686 A    461  ETH  H4   HGA30    0.090000        1.0080           0
    3687 A    461  ETH  H5   HGA30    0.090000        1.0080           0
    3688 A    461  ETH  H6   HGA30    0.090000        1.0080           0
    3689 A    462  ETH  C1   CG3310   -0.270000       12.0110           0
    3690 A    462  ETH  C2   CG3310   -0.270000       12.0110           0
    3691 A    462  ETH  H1   HGA30    0.090000        1.0080           0
    3692 A    462  ETH  H2   HGA30    0.090000        1.0080           0
    3693 A    462  ETH  H3   HGA30    0.090000        1.0080           0
    3694 A    462  ETH  H4   HGA30    0.090000        1.0080           0
    3695 A    462  ETH  H5   HGA30    0.090000        1.0080           0
    3696 A    462  ETH  H6   HGA30    0.090000        1.0080           0
    3697 A    463  ETH  C1   CG3310   -0.270000       12.0110           0
    3698 A    463  ETH  C2   CG3310   -0.270000       12.0110           0
    3699 A    463  ETH  H1   HGA30    0.090000        1.0080           0
    3700 A    463  ETH  H2   HGA30    0.090000        1.0080           0
    3701 A    463  ETH  H3   HGA30    0.090000        1.0080           0
    3702 A    463  ETH  H4   HGA30    0.090000        1.0080           0
    3703 A    463  ETH  H5   HGA30    0.090000        1.0080           0
    3704 A    463  ETH  H6   HGA30    0.090000        1.0080           0
    3705 A    464  ETH  C1   CG3310   -0.270000       12.0110           0
    3706 A    464  ETH  C2   CG3310   -0.270000       12.0110           0
    3707 A    464  ETH  H1   HGA30    0.090000        1.0080           0
    3708 A    464  ETH  H2   HGA30    0.090000        1.0080           0
    3709 A    464  ETH  H3   HGA30    0.090000        1.0080           0
    3710 A    464  ETH  H4   HGA30    0.090000        1.0080           0
    3711 A    464  ETH  H5   HGA30    0.090000        1.0080           0
    3712 A    464  ETH  H6   HGA30    0.090000        1.0080           0
    3713 A    465  ETH  C1   CG3310   -0.270000       12.0110           0
    3714 A    465  ETH  C2   CG3310   -0.270000       12.0110           0
    3715 A    465  ETH  H1   HGA30    0.090000        1.0080           0
    3716 A    465  ETH  H2   HGA30    0.090000        1.0080           0
    3717 A    465  ETH  H3   HGA30    0.090000        1.0080           0
    3718 A    465  ETH  H4   HGA30    0.090000        1.0080           0
    3719 A    465  ETH  H5   HGA30    0.090000        1.0080           0
    3720 A    465  ETH  H6   HGA30    0.090000        1.0080           0
    3721 A    466  ETH  C1   CG3310   -0.270000       12.0110           0
    3722 A    466  ETH  C2   CG3310   -0.270000       12.0110           0
    3723 A    466  ETH  H1   HGA30    0.090000        1.0080           0
    3724 A    466  ETH  H2   HGA30    0.090000        1.0080           0
    3725 A    466  ETH  H3   HGA30    0.090000        1.0080           0
    3726 A    466  ETH  H4   HGA30    0.090000        1.0080           0
    3727 A    466  ETH  H5   HGA30    0.090000        1.0080           0
    3728 A    466  ETH  H6   HGA30    0.090000        1.0080           0
    3729 A    467  ETH  C1   CG3310   -0.270000       12.0110           0
    3730 A    467  ETH  C2   CG3310   -0.270000       12.0110           0
    3731 A    467  ETH  H1   HGA30    0.090000        1.0080           0
    3732 A    467  ETH  H2   HGA30    0.090000        1.0080           0
    3733 A    467  ETH  H3   HGA30    0.090000        1.0080           0
    3734 A    467  ETH  H4   HGA30    0.090000        1.0080           0
    3735 A    467  ETH  H5   HGA30    0.090000        1.0080           0
    3736 A    467  ETH  H6   HGA30    0.090000        1.0080           0
    3737 A    468  ETH  C1   CG3310   -0.270000       12.0110           0
    3738 A    468  ETH  C2   CG3310   -0.270000       12.0110           0
    3739 A    468  ETH  H1   HGA30    0.090000        1.0080           0
    3740 A    468  ETH  H2   HGA30    0.090000        1.0080           0
    3741 A    468  ETH  H3   HGA30    0.090000        1.0080           0
    3742 A    468  ETH  H4   HGA30    0.090000        1.0080           0
    3743 A    468  ETH  H5   HGA30    0.090000        1.0080           0
    3744 A    468  ETH  H6   HGA30    0.090000        1.0080           0
    3745 A    469  ETH  C1   CG3310   -0.270000       12.0110           0
    3746 A    469  ETH  C2   CG3310   -0.270000       12.0110           0
    3747 A    469  ETH  H1   HGA30    0.090000        1.0080           0
    3748 A    469  ETH  H2   HGA30    0.090000        1.0080           0
    3749 A    469  ETH  H3   HGA30    0.090000        1.0080           0
    3750 A    469  ETH  H4   HGA30    0.090000        1.0080           0
    3751 A    469  ETH  H5   HGA30    0.090000        1.0080           0
    3752 A    469  ETH  H6   HGA30    0.090000        1.0080           0
    3753 A    470  ETH  C1   CG3310   -0.270000       12.0110           0
    3754 A    470  ETH  C2   CG3310   -0.270000       12.0110           0
    3755 A    470  ETH  H1   HGA30    0.090000        1.0080           0
    3756 A    470  ETH  H2   HGA30    0.090000        1.0080           0
    3757 A    470  ETH  H3   HGA30    0.090000        1.0080           0
    3758 A    470  ETH  H4   HGA30    0.090000        1.0080           0
    3759 A    470  ETH  H5   HGA30    0.090000        1.0080           0
    3760 A    470  ETH  H6   HGA30    0.090000        1.0080           0
    3761 A    471  ETH  C1   CG3310   -0.270000       12.0110           0
    3762 A    471  ETH  C2   CG3310   -0.270000       12.0110           0
    3763 A    471  ETH  H1   HGA30    0.090000        1.0080           0
    3764 A    471  ETH  H2   HGA30    0.090000        1.0080           0
    3765 A    471  ETH  H3   HGA30    0.090000        1.0080           0
    3766 A    471  ETH  H4   HGA30    0.090000        1.0080           0
    3767 A    471  ETH  H5   HGA30    0.090000        1.0080           0
    3768 A    471  ETH  H6   HGA30    0.090000        1.0080           0
    3769 A    472  ETH  C1   CG3310   -0.270000       12.0110           0
    3770 A    472  ETH  C2   CG3310   -0.270000       12.0110           0
    3771 A    472  ETH  H1   HGA30    0.090000        1.0080           0
    3772 A    472  ETH  H2   HGA30    0.090000        1.0080           0
    3773 A    472  ETH  H3   HGA30    0.090000        1.0080           0
    3774 A    472  ETH  H4   HGA30    0.090000        1.0080           0
    3775 A    472  ETH  H5   HGA30    0.090000        1.0080           0
    3776 A    472  ETH  H6   HGA30    0.090000        1.0080           0
    3777 A    473  ETH  C1   CG3310   -0.270000       12.0110           0
    3778 A    473  ETH  C2   CG3310   -0.270000       12.0110           0
    3779 A    473  ETH  H1   HGA30    0.090000        1.0080           0
    3780 A    473  ETH  H2   HGA30    0.090000        1.0080           0
    3781 A    473  ETH  H3   HGA30    0.090000        1.0080           0
    3782 A    473  ETH  H4   HGA30    0.090000        1.0080           0
    3783 A    473  ETH  H5   HGA30    0.090000        1.0080           0
    3784 A    473  ETH  H6   HGA30    0.090000        1.0080           0
    3785 A    474  ETH  C1   CG3310   -0.270000       12.0110           0
    3786 A    474  ETH  C2   CG3310   -0.270000       12.0110           0
    3787 A    474  ETH  H1   HGA30    0.090000        1.0080           0
    3788 A    474  ETH  H2   HGA30    0.090000        1.0080           0
    3789 A    474  ETH  H3   HGA30    0.090000        1.0080           0
    3790 A    474  ETH  H4   HGA30    0.090000        1.0080           0
    3791 A    474  ETH  H5   HGA30    0.090000        1.0080           0
    3792 A    474  ETH  H6   HGA30    0.090000        1.0080           0
    3793 A    475  ETH  C1   CG3310   -0.270000       12.0110           0
    3794 A    475  ETH  C2   CG3310   -0.270000       12.0110           0
    3795 A    475  ETH  H1   HGA30    0.090000        1.0080           0
    3796 A    475  ETH  H2   HGA30    0.090000        1.0080           0
    3797 A    475  ETH  H3   HGA30    0.090000        1.0080           0
    3798 A    475  ETH  H4   HGA30    0.090000        1.0080           0
    3799 A    475  ETH  H5   HGA30    0.090000        1.0080           0
    3800 A    475  ETH  H6   HGA30    0.090000        1.0080           0
    3801 A    476  ETH  C1   CG3310   -0.270000       12.0110           0
    3802 A    476  ETH  C2   CG3310   -0.270000       12.0110           0
    3803 A    476  ETH  H1   HGA30    0.090000        1.0080           0
    3804 A    476  ETH  H2   HGA30    0.090000        1.0080           0
    3805 A    476  ETH  H3   HGA30    0.090000        1.0080           0
    3806 A    476  ETH  H4   HGA30    0.090000        1.0080           0
    3807 A    476  ETH  H5   HGA30    0.090000        1.0080           0
    3808 A    476  ETH  H6   HGA30    0.090000        1.0080           0
    3809 A    477  ETH  C1   CG3310   -0.270000       12.0110           0
    3810 A    477  ETH  C2   CG3310   -0.270000       12.0110           0
    3811 A    477  ETH  H1   HGA30    0.090000        1.0080           0
    3812 A    477  ETH  H2   HGA30    0.090000        1.0080           0
    3813 A    477  ETH  H3   HGA30    0.090000        1.0080           0
    3814 A    477  ETH  H4   HGA30    0.090000        1.0080           0
    3815 A    477  ETH  H5   HGA30    0.090000        1.0080           0
    3816 A    477  ETH  H6   HGA30    0.090000        1.0080           0
    3817 A    478  ETH  C1   CG3310   -0.270000       12.0110           0
    3818 A    478  ETH  C2   CG3310   -0.270000       12.0110           0
    3819 A    478  ETH  H1   HGA30    0.090000        1.0080           0
    3820 A    478  ETH  H2   HGA30    0.090000        1.0080           0
    3821 A    478  ETH  H3   HGA30    0.090000        1.0080           0
    3822 A    478  ETH  H4   HGA30    0.090000        1.0080           0
    3823 A    478  ETH  H5   HGA30    0.090000        1.0080           0
    3824 A    478  ETH  H6   HGA30    0.090000        1.0080           0
    3825 A    479  ETH  C1   CG3310   -0.270000       12.0110           0
    3826 A    479  ETH  C2   CG3310   -0.270000       12.0110           0
    3827 A    479  ETH  H1   HGA30    0.090000        1.0080           0
    3828 A    479  ETH  H2   HGA30    0.090000        1.0080           0
    3829 A    479  ETH  H3   HGA30    0.090000        1.0080           0
    3830 A    479  ETH  H4   HGA30    0.090000        1.0080           0
    3831 A    479  ETH  H5   HGA30    0.090000        1.0080           0
    3832 A    479  ETH  H6   HGA30    0.090000        1.0080           0
    3833 A    480  ETH  C1   CG3310   -0.270000       12.0110           0
    3834 A    480  ETH  C2   CG3310   -0.270000       12.0110           0
    3835 A    480  ETH  H1   HGA30    0.090000        1.0080           0
    3836 A    480  ETH  H2   HGA30    0.090000        1.0080           0
    3837 A    480  ETH  H3   HGA30    0.090000        1.0080           0
    3838 A    480  ETH  H4   HGA30    0.090000        1.0080           0
    3839 A    480  ETH  H5   HGA30    0.090000        1.0080           0
    3840 A    480  ETH  H6   HGA30    0.090000        1.0080           0
    3841 A    481  ETH  C1   CG3310   -0.270000       12.0110           0
    3842 A    481  ETH  C2   CG3310   -0.270000       12.0110           0
    3843 A    481  ETH  H1   HGA30    0.090000        1.0080           0
    3844 A    481  ETH  H2   HGA30    0.090000        1.0080           0
    3845 A    481  ETH  H3   HGA30    0.090000        1.0080           0
    3846 A    481  ETH  H4   HGA30    0.090000        1.0080           0
    3847 A    481  ETH  H5   HGA30    0.090000        1.0080           0
    3848 A    481  ETH  H6   HGA30    0.090000        1.0080           0
    3849 A    482  ETH  C1   CG3310   -0.270000       12.0110           0
    3850 A    482  ETH  C2   CG3310   -0.270000       12.0110           0
    3851 A    482  ETH  H1   HGA30    0.090000        1.0080           0
    3852 A    482  ETH  H2   HGA30    0.090000        1.0080           0
    3853 A    482  ETH  H3   HGA30    0.090000        1.0080           0
    3854 A    482  ETH  H4   HGA30    0.090000        1.0080           0
    3855 A    482  ETH  H5   HGA30    0.090000        1.0080           0
    3856 A    482  ETH  H6   HGA30    0.090000        1.0080           0
    3857 A    483  ETH  C1   CG3310   -0.270000       12.0110           0
    3858 A    483  ETH  C2   CG3310   -0.270000       12.0110           0
    3859 A    483  ETH  H1   HGA30    0.090000        1.0080           0
    3860 A    483  ETH  H2   HGA30    0.090000        1.0080           0
    3861 A    483  ETH  H3   HGA30    0.090000        1.0080           0
    3862 A    483  ETH  H4   HGA30    0.090000        1.0080           0
    3863 A    483  ETH  H5   HGA30    0.090000        1.0080           0
    3864 A    483  ETH  H6   HGA30    0.090000        1.0080           0
    3865 A    484  ETH  C1   CG3310   -0.270000       12.0110           0
    3866 A    484  ETH  C2   CG3310   -0.270000       12.0110           0
    3867 A    484  ETH  H1   HGA30    0.090000        1.0080           0
    3868 A    484  ETH  H2   HGA30    0.090000        1.0080           0
    3869 A    484  ETH  H3   HGA30    0.090000        1.0080           0
    3870 A    484  ETH  H4   HGA30    0.090000        1.0080           0
    3871 A    484  ETH  H5   HGA30    0.090000        1.0080           0
    3872 A    484  ETH  H6   HGA30    0.090000        1.0080           0
    3873 A    485  ETH  C1   CG3310   -0.270000       12.0110           0
    3874 A    485  ETH  C2   CG3310   -0.270000       12.0110           0
    3875 A    485  ETH  H1   HGA30    0.090000        1.0080           0
    3876 A    485  ETH  H2   HGA30    0.090000        1.0080           0
    3877 A    485  ETH  H3   HGA30    0.090000        1.0080           0
    3878 A    485  ETH  H4   HGA30    0.090000        1.0080           0
    3879 A    485  ETH  H5   HGA30    0.090000        1.0080           0
    3880 A    485  ETH  H6   HGA30    0.090000        1.0080           0
    3881 A    486  ETH  C1   CG3310   -0.270000       12.0110           0
    3882 A    486  ETH  C2   CG3310   -0.270000       12.0110           0
    3883 A    486  ETH  H1   HGA30    0.090000        1.0080           0
    3884 A    486  ETH  H2   HGA30    0.090000        1.0080           0
    3885 A    486  ETH  H3   HGA30    0.090000        1.0080           0
    3886 A    486  ETH  H4   HGA30    0.090000        1.0080           0
    3887 A    486  ETH  H5   HGA30    0.090000        1.0080           0
    3888 A    486  ETH  H6   HGA30    0.090000        1.0080           0
    3889 A    487  ETH  C1   CG3310   -0.270000       12.0110           0
    3890 A    487  ETH  C2   CG3310   -0.270000       12.0110           0
    3891 A    487  ETH  H1   HGA30    0.090000        1.0080           0
    3892 A    487  ETH  H2   HGA30    0.090000        1.0080           0
    3893 A    487  ETH  H3   HGA30    0.090000        1.0080           0
    3894 A    487  ETH  H4   HGA30    0.090000        1.0080           0
    3895 A    487  ETH  H5   HGA30    0.090000        1.0080           0
    3896 A    487  ETH  H6   HGA30    0.090000        1.0080           0
    3897 A    488  ETH  C1   CG3310   -0.270000       12.0110           0
    3898 A    488  ETH  C2   CG3310   -0.270000       12.0110           0
    3899 A    488  ETH  H1   HGA30    0.090000        1.0080           0
    3900 A    488  ETH  H2   HGA30    0.090000        1.0080           0
    3901 A    488  ETH  H3   HGA30    0.090000        1.0080           0
    3902 A    488  ETH  H4   HGA30    0.090000        1.0080           0
    3903 A    488  ETH  H5   HGA30    0.090000        1.0080           0
    3904 A    488  ETH  H6   HGA30    0.090000        1.0080           0
    3905 A    489  ETH  C1   CG3310   -0.270000       12.0110           0
    3906 A    489  ETH  C2   CG3310   -0.270000       12.0110           0
    3907 A    489  ETH  H1   HGA30    0.090000        1.0080           0
    3908 A    489  ETH  H2   HGA30    0.090000        1.0080           0
    3909 A    489  ETH  H3   HGA30    0.090000        1.0080           0
    3910 A    489  ETH  H4   HGA30    0.090000        1.0080           0
    3911 A    489  ETH  H5   HGA30    0.090000        1.0080           0
    3912 A    489  ETH  H6   HGA30    0.090000        1.0080           0
    3913 A    490  ETH  C1   CG3310   -0.270000       12.0110           0
    3914 A    490  ETH  C2   CG3310   -0.270000       12.0110           0
    3915 A    490  ETH  H1   HGA30    0.090000        1.0080           0
    3916 A    490  ETH  H2   HGA30    0.090000        1.0080           0
    3917 A    490  ETH  H3   HGA30    0.090000        1.0080           0
    3918 A    490  ETH  H4   HGA30    0.090000        1.0080           0
    3919 A    490  ETH  H5   HGA30    0.090000        1.0080           0
    3920 A    490  ETH  H6   HGA30    0.090000        1.0080           0
    3921 A    491  ETH  C1   CG3310   -0.270000       12.0110           0
    3922 A    491  ETH  C2   CG3310   -0.270000       12.0110           0
    3923 A    491  ETH  H1   HGA30    0.090000        1.0080           0
    3924 A    491  ETH  H2   HGA30    0.090000        1.0080           0
    3925 A    491  ETH  H3   HGA30    0.090000        1.0080           0
    3926 A    491  ETH  H4   HGA30    0.090000        1.0080           0
    3927 A    491  ETH  H5   HGA30    0.090000        1.0080           0
    3928 A    491  ETH  H6   HGA30    0.090000        1.0080           0
    3929 A    492  ETH  C1   CG3310   -0.270000       12.0110           0
    3930 A    492  ETH  C2   CG3310   -0.270000       12.0110           0
    3931 A    492  ETH  H1   HGA30    0.090000        1.0080           0
    3932 A    492  ETH  H2   HGA30    0.090000        1.0080           0
    3933 A    492  ETH  H3   HGA30    0.090000        1.0080           0
    3934 A    492  ETH  H4   HGA30    0.090000        1.0080           0
    3935 A    492  ETH  H5   HGA30    0.090000        1.0080           0
    3936 A    492  ETH  H6   HGA30    0.090000        1.0080           0
    3937 A    493  ETH  C1   CG3310   -0.270000       12.0110           0
    3938 A    493  ETH  C2   CG3310   -0.270000       12.0110           0
    3939 A    493  ETH  H1   HGA30    0.090000        1.0080           0
    3940 A    493  ETH  H2   HGA30    0.090000        1.0080           0
    3941 A    493  ETH  H3   HGA30    0.090000        1.0080           0
    3942 A    493  ETH  H4   HGA30    0.090000        1.0080           0
    3943 A    493  ETH  H5   HGA30    0.090000        1.0080           0
    3944 A    493  ETH  H6   HGA30    0.090000        1.0080           0
    3945 A    494  ETH  C1   CG3310   -0.270000       12.0110           0
    3946 A    494  ETH  C2   CG3310   -0.270000       12.0110           0
    3947 A    494  ETH  H1   HGA30    0.090000        1.0080           0
    3948 A    494  ETH  H2   HGA30    0.090000        1.0080           0
    3949 A    494  ETH  H3   HGA30    0.090000        1.0080           0
    3950 A    494  ETH  H4   HGA30    0.090000        1.0080           0
    3951 A    494  ETH  H5   HGA30    0.090000        1.0080           0
    3952 A    494  ETH  H6   HGA30    0.090000        1.0080           0
    3953 A    495  ETH  C1   CG3310   -0.270000       12.0110           0
    3954 A    495  ETH  C2   CG3310   -0.270000       12.0110           0
    3955 A    495  ETH  H1   HGA30    0.090000        1.0080           0
    3956 A    495  ETH  H2   HGA30    0.090000        1.0080           0
    3957 A    495  ETH  H3   HGA30    0.090000        1.0080           0
    3958 A    495  ETH  H4   HGA30    0.090000        1.0080           0
    3959 A    495  ETH  H5   HGA30    0.090000        1.0080           0
    3960 A    495  ETH  H6   HGA30    0.090000        1.0080           0
    3961 A    496  ETH  C1   CG3310   -0.270000       12.0110           0
    3962 A    496  ETH  C2   CG3310   -0.270000       12.0110           0
    3963 A    496  ETH  H1   HGA30    0.090000        1.0080           0
    3964 A    496  ETH  H2   HGA30    0.090000        1.0080           0
    3965 A    496  ETH  H3   HGA30    0.090000        1.0080           0
    3966 A    496  ETH  H4   HGA30    0.090000        1.0080           0
    3967 A    496  ETH  H5   HGA30    0.090000        1.0080           0
    3968 A    496  ETH  H6   HGA30    0.090000        1.0080           0
    3969 A    497  ETH  C1   CG3310   -0.270000       12.0110           0
    3970 A    497  ETH  C2   CG3310   -0.270000       12.0110           0
    3971 A    497  ETH  H1   HGA30    0.090000        1.0080           0
    3972 A    497  ETH  H2   HGA30    0.090000        1.0080           0
    3973 A    497  ETH  H3   HGA30    0.090000        1.0080           0
    3974 A    497  ETH  H4   HGA30    0.090000        1.0080           0
    3975 A    497  ETH  H5   HGA30    0.090000        1.0080           0
    3976 A    497  ETH  H6   HGA30    0.090000        1.0080           0
    3977 A    498  ETH  C1   CG3310   -0.270000       12.0110           0
    3978 A    498  ETH  C2   CG3310   -0.270000       12.0110           0
    3979 A    498  ETH  H1   HGA30    0.090000        1.0080           0
    3980 A    498  ETH  H2   HGA30    0.090000        1.0080           0
    3981 A    498  ETH  H3   HGA30    0.090000        1.0080           0
    3982 A    498  ETH  H4   HGA30    0.090000        1.0080           0
    3983 A    498  ETH  H5   HGA30    0.090000        1.0080           0
    3984 A    498  ETH  H6   HGA30    0.090000        1.0080           0
    3985 A    499  ETH  C1   CG3310   -0.270000       12.0110           0
    3986 A    499  ETH  C2   CG3310   -0.270000       12.0110           0
    3987 A    499  ETH  H1   HGA30    0.090000        1.0080           0
    3988 A    499  ETH  H2   HGA30    0.090000        1.0080           0
    3989 A    499  ETH  H3   HGA30    0.090000        1.0080           0
    3990 A    499  ETH  H4   HGA30    0.090000        1.0080           0
    3991 A    499  ETH  H5   HGA30    0.090000        1.0080           0
    3992 A    499  ETH  H6   HGA30    0.090000        1.0080           0
    3993 A    500  ETH  C1   CG3310   -0.270000       12.0110           0
    3994 A    500  ETH  C2   CG3310   -0.270000       12.0110           0
    3995 A    500  ETH  H1   HGA30    0.090000        1.0080           0
    3996 A    500  ETH  H2   HGA30    0.090000        1.0080           0
    3997 A    500  ETH  H3   HGA30    0.090000        1.0080           0
    3998 A    500  ETH  H4   HGA30    0.090000        1.0080           0
    3999 A    500  ETH  H5   HGA30    0.090000        1.0080           0
    4000 A    500  ETH  H6   HGA30    0.090000        1.0080           0
    4001 A    501  ETH  C1   CG3310   -0.270000       12.0110           0
    4002 A    501  ETH  C2   CG3310   -0.270000       12.0110           0
    4003 A    501  ETH  H1   HGA30    0.090000        1.0080           0
    4004 A    501  ETH  H2   HGA30    0.090000        1.0080           0
    4005 A    501  ETH  H3   HGA30    0.090000        1.0080           0
    4006 A    501  ETH  H4   HGA30    0.090000        1.0080           0
    4007 A    501  ETH  H5   HGA30    0.090000        1.0080           0
    4008 A    501  ETH  H6   HGA30    0.090000        1.0080           0
    4009 A    502  ETH  C1   CG3310   -0.270000       12.0110           0
    4010 A    502  ETH  C2   CG3310   -0.270000       12.0110           0
    4011 A    502  ETH  H1   HGA30    0.090000        1.0080           0
    4012 A    502  ETH  H2   HGA30    0.090000        1.0080           0
    4013 A    502  ETH  H3   HGA30    0.090000        1.0080           0
    4014 A    502  ETH  H4   HGA30    0.090000        1.0080           0
    4015 A    502  ETH  H5   HGA30    0.090000        1.0080           0
    4016 A    502  ETH  H6   HGA30    0.090000        1.0080           0
    4017 A    503  ETH  C1   CG3310   -0.270000       12.0110           0
    4018 A    503  ETH  C2   CG3310   -0.270000       12.0110           0
    4019 A    503  ETH  H1   HGA30    0.090000        1.0080           0
    4020 A    503  ETH  H2   HGA30    0.090000        1.0080           0
    4021 A    503  ETH  H3   HGA30    0.090000        1.0080           0
    4022 A    503  ETH  H4   HGA30    0.090000        1.0080           0
    4023 A    503  ETH  H5   HGA30    0.090000        1.0080           0
    4024 A    503  ETH  H6   HGA30    0.090000        1.0080           0
    4025 A    504  ETH  C1   CG3310   -0.270000       12.0110           0
    4026 A    504  ETH  C2   CG3310   -0.270000       12.0110           0
    4027 A    504  ETH  H1   HGA30    0.090000        1.0080           0
    4028 A    504  ETH  H2   HGA30    0.090000        1.0080           0
    4029 A    504  ETH  H3   HGA30    0.090000        1.0080           0
    4030 A    504  ETH  H4   HGA30    0.090000        1.0080           0
    4031 A    504  ETH  H5   HGA30    0.090000        1.0080           0
    4032 A    504  ETH  H6   HGA30    0.090000        1.0080           0
    4033 A    505  ETH  C1   CG3310   -0.270000       12.0110           0
    4034 A    505  ETH  C2   CG3310   -0.270000       12.0110           0
    4035 A    505  ETH  H1   HGA30    0.090000        1.0080           0
    4036 A    505  ETH  H2   HGA30    0.090000        1.0080           0
    4037 A    505  ETH  H3   HGA30    0.090000        1.0080           0
    4038 A    505  ETH  H4   HGA30    0.090000        1.0080           0
    4039 A    505  ETH  H5   HGA30    0.090000        1.0080           0
    4040 A    505  ETH  H6   HGA30    0.090000        1.0080           0
    4041 A    506  ETH  C1   CG3310   -0.270000       12.0110           0
    4042 A    506  ETH  C2   CG3310   -0.270000       12.0110           0
    4043 A    506  ETH  H1   HGA30    0.090000        1.0080           0
    4044 A    506  ETH  H2   HGA30    0.090000        1.0080           0
    4045 A    506  ETH  H3   HGA30    0.090000        1.0080           0
    4046 A    506  ETH  H4   HGA30    0.090000        1.0080           0
    4047 A    506  ETH  H5   HGA30    0.090000        1.0080           0
    4048 A    506  ETH  H6   HGA30    0.090000        1.0080           0
    4049 A    507  ETH  C1   CG3310   -0.270000       12.0110           0
    4050 A    507  ETH  C2   CG3310   -0.270000       12.0110           0
    4051 A    507  ETH  H1   HGA30    0.090000        1.0080           0
    4052 A    507  ETH  H2   HGA30    0.090000        1.0080           0
    4053 A    507  ETH  H3   HGA30    0.090000        1.0080           0
    4054 A    507  ETH  H4   HGA30    0.090000        1.0080           0
    4055 A    507  ETH  H5   HGA30    0.090000        1.0080           0
    4056 A    507  ETH  H6   HGA30    0.090000        1.0080           0
    4057 A    508  ETH  C1   CG3310   -0.270000       12.0110           0
    4058 A    508  ETH  C2   CG3310   -0.270000       12.0110           0
    4059 A    508  ETH  H1   HGA30    0.090000        1.0080           0
    4060 A    508  ETH  H2   HGA30    0.090000        1.0080           0
    4061 A    508  ETH  H3   HGA30    0.090000        1.0080           0
    4062 A    508  ETH  H4   HGA30    0.090000        1.0080           0
    4063 A    508  ETH  H5   HGA30    0.090000        1.0080           0
    4064 A    508  ETH  H6   HGA30    0.090000        1.0080           0
    4065 A    509  ETH  C1   CG3310   -0.270000       12.0110           0
    4066 A    509  ETH  C2   CG3310   -0.270000       12.0110           0
    4067 A    509  ETH  H1   HGA30    0.090000        1.0080           0
    4068 A    509  ETH  H2   HGA30    0.090000        1.0080           0
    4069 A    509  ETH  H3   HGA30    0.090000        1.0080           0
    4070 A    509  ETH  H4   HGA30    0.090000        1.0080           0
    4071 A    509  ETH  H5   HGA30    0.090000        1.0080           0
    4072 A    509  ETH  H6   HGA30    0.090000        1.0080           0
    4073 A    510  ETH  C1   CG3310   -0.270000       12.0110           0
    4074 A    510  ETH  C2   CG3310   -0.270000       12.0110           0
    4075 A    510  ETH  H1   HGA30    0.090000        1.0080           0
    4076 A    510  ETH  H2   HGA30    0.090000        1.0080           0
    4077 A    510  ETH  H3   HGA30    0.090000        1.0080           0
    4078 A    510  ETH  H4   HGA30    0.090000        1.0080           0
    4079 A    510  ETH  H5   HGA30    0.090000        1.0080           0
    4080 A    510  ETH  H6   HGA30    0.090000        1.0080           0
    4081 A    511  ETH  C1   CG3310   -0.270000       12.0110           0
    4082 A    511  ETH  C2   CG3310   -0.270000       12.0110           0
    4083 A    511  ETH  H1   HGA30    0.090000        1.0080           0
    4084 A    511  ETH  H2   HGA30    0.090000        1.0080           0
    4085 A    511  ETH  H3   HGA30    0.090000        1.0080           0
    4086 A    511  ETH  H4   HGA30    0.090000        1.0080           0
    4087 A    511  ETH  H5   HGA30    0.090000        1.0080           0
    4088 A    511  ETH  H6   HGA30    0.090000        1.0080           0
    4089 A    512  ETH  C1   CG3310   -0.270000       12.0110           0
    4090 A    512  ETH  C2   CG3310   -0.270000       12.0110           0
    4091 A    512  ETH  H1   HGA30    0.090000        1.0080           0
    4092 A    512  ETH  H2   HGA30    0.090000        1.0080           0
    4093 A    512  ETH  H3   HGA30    0.090000        1.0080           0
    4094 A    512  ETH  H4   HGA30    0.090000        1.0080           0
    4095 A    512  ETH  H5   HGA30    0.090000        1.0080           0
    4096 A    512  ETH  H6   HGA30    0.090000        1.0080           0
    4097 A    513  ETH  C1   CG3310   -0.270000       12.0110           0
    4098 A    513  ETH  C2   CG3310   -0.270000       12.0110           0
    4099 A    513  ETH  H1   HGA30    0.090000        1.0080           0
    4100 A    513  ETH  H2   HGA30    0.090000        1.0080           0
    4101 A    513  ETH  H3   HGA30    0.090000        1.0080           0
    4102 A    513  ETH  H4   HGA30    0.090000        1.0080           0
    4103 A    513  ETH  H5   HGA30    0.090000        1.0080           0
    4104 A    513  ETH  H6   HGA30    0.090000        1.0080           0
    4105 A    514  ETH  C1   CG3310   -0.270000       12.0110           0
    4106 A    514  ETH  C2   CG3310   -0.270000       12.0110           0
    4107 A    514  ETH  H1   HGA30    0.090000        1.0080           0
    4108 A    514  ETH  H2   HGA30    0.090000        1.0080           0
    4109 A    514  ETH  H3   HGA30    0.090000        1.0080           0
    4110 A    514  ETH  H4   HGA30    0.090000        1.0080           0
    4111 A    514  ETH  H5   HGA30    0.090000        1.0080           0
    4112 A    514  ETH  H6   HGA30    0.090000        1.0080           0
    4113 A    515  ETH  C1   CG3310   -0.270000       12.0110           0
    4114 A    515  ETH  C2   CG3310   -0.270000       12.0110           0
    4115 A    515  ETH  H1   HGA30    0.090000        1.0080           0
    4116 A    515  ETH  H2   HGA30    0.090000        1.0080           0
    4117 A    515  ETH  H3   HGA30    0.090000        1.0080           0
    4118 A    515  ETH  H4   HGA30    0.090000        1.0080           0
    4119 A    515  ETH  H5   HGA30    0.090000        1.0080           0
    4120 A    515  ETH  H6   HGA30    0.090000        1.0080           0
    4121 A    516  ETH  C1   CG3310   -0.270000       12.0110           0
    4122 A    516  ETH  C2   CG3310   -0.270000       12.0110           0
    4123 A    516  ETH  H1   HGA30    0.090000        1.0080           0
    4124 A    516  ETH  H2   HGA30    0.090000        1.0080           0
    4125 A    516  ETH  H3   HGA30    0.090000        1.0080           0
    4126 A    516  ETH  H4   HGA30    0.090000        1.0080           0
    4127 A    516  ETH  H5   HGA30    0.090000        1.0080           0
    4128 A    516  ETH  H6   HGA30    0.090000        1.0080           0
    4129 A    517  ETH  C1   CG3310   -0.270000       12.0110           0
    4130 A    517  ETH  C2   CG3310   -0.270000       12.0110           0
    4131 A    517  ETH  H1   HGA30    0.090000        1.0080           0
    4132 A    517  ETH  H2   HGA30    0.090000        1.0080           0
    4133 A    517  ETH  H3   HGA30    0.090000        1.0080           0
    4134 A    517  ETH  H4   HGA30    0.090000        1.0080           0
    4135 A    517  ETH  H5   HGA30    0.090000        1.0080           0
    4136 A    517  ETH  H6   HGA30    0.090000        1.0080           0
    4137 A    518  ETH  C1   CG3310   -0.270000       12.0110           0
    4138 A    518  ETH  C2   CG3310   -0.270000       12.0110           0
    4139 A    518  ETH  H1   HGA30    0.090000        1.0080           0
    4140 A    518  ETH  H2   HGA30    0.090000        1.0080           0
    4141 A    518  ETH  H3   HGA30    0.090000        1.0080           0
    4142 A    518  ETH  H4   HGA30    0.090000        1.0080           0
    4143 A    518  ETH  H5   HGA30    0.090000        1.0080           0
    4144 A    518  ETH  H6   HGA30    0.090000        1.0080           0
    4145 A    519  ETH  C1   CG3310   -0.270000       12.0110           0
    4146 A    519  ETH  C2   CG3310   -0.270000       12.0110           0
    4147 A    519  ETH  H1   HGA30    0.090000        1.0080           0
    4148 A    519  ETH  H2   HGA30    0.090000        1.0080           0
    4149 A    519  ETH  H3   HGA30    0.090000        1.0080           0
    4150 A    519  ETH  H4   HGA30    0.090000        1.0080           0
    4151 A    519  ETH  H5   HGA30    0.090000        1.0080           0
    4152 A    519  ETH  H6   HGA30    0.090000        1.0080           0
    4153 A    520  ETH  C1   CG3310   -0.270000       12.0110           0
    4154 A    520  ETH  C2   CG3310   -0.270000       12.0110           0
    4155 A    520  ETH  H1   HGA30    0.090000        1.0080           0
    4156 A    520  ETH  H2   HGA30    0.090000        1.0080           0
    4157 A    520  ETH  H3   HGA30    0.090000        1.0080           0
    4158 A    520  ETH  H4   HGA30    0.090000        1.0080           0
    4159 A    520  ETH  H5   HGA30    0.090000        1.0080           0
    4160 A    520  ETH  H6   HGA30    0.090000        1.0080           0
    4161 A    521  ETH  C1   CG3310   -0.270000       12.0110           0
    4162 A    521  ETH  C2   CG3310   -0.270000       12.0110           0
    4163 A    521  ETH  H1   HGA30    0.090000        1.0080           0
    4164 A    521  ETH  H2   HGA30    0.090000        1.0080           0
    4165 A    521  ETH  H3   HGA30    0.090000        1.0080           0
    4166 A    521  ETH  H4   HGA30    0.090000        1.0080           0
    4167 A    521  ETH  H5   HGA30    0.090000        1.0080           0
    4168 A    521  ETH  H6   HGA30    0.090000        1.0080           0
    4169 A    522  ETH  C1   CG3310   -0.270000       12.0110           0
    4170 A    522  ETH  C2   CG3310   -0.270000       12.0110           0
    4171 A    522  ETH  H1   HGA30    0.090000        1.0080           0
    4172 A    522  ETH  H2   HGA30    0.090000        1.0080           0
    4173 A    522  ETH  H3   HGA30    0.090000        1.0080           0
    4174 A    522  ETH  H4   HGA30    0.090000        1.0080           0
    4175 A    522  ETH  H5   HGA30    0.090000        1.0080           0
    4176 A    522  ETH  H6   HGA30    0.090000        1.0080           0
    4177 A    523  ETH  C1   CG3310   -0.270000       12.0110           0
    4178 A    523  ETH  C2   CG3310   -0.270000       12.0110           0
    4179 A    523  ETH  H1   HGA30    0.090000        1.0080           0
    4180 A    523  ETH  H2   HGA30    0.090000        1.0080           0
    4181 A    523  ETH  H3   HGA30    0.090000        1.0080           0
    4182 A    523  ETH  H4   HGA30    0.090000        1.0080           0
    4183 A    523  ETH  H5   HGA30    0.090000        1.0080           0
    4184 A    523  ETH  H6   HGA30    0.090000        1.0080           0
    4185 A    524  ETH  C1   CG3310   -0.270000       12.0110           0
    4186 A    524  ETH  C2   CG3310   -0.270000       12.0110           0
    4187 A    524  ETH  H1   HGA30    0.090000        1.0080           0
    4188 A    524  ETH  H2   HGA30    0.090000        1.0080           0
    4189 A    524  ETH  H3   HGA30    0.090000        1.0080           0
    4190 A    524  ETH  H4   HGA30    0.090000        1.0080           0
    4191 A    524  ETH  H5   HGA30    0.090000        1.0080           0
    4192 A    524  ETH  H6   HGA30    0.090000        1.0080           0
    4193 A    525  ETH  C1   CG3310   -0.270000       12.0110           0
    4194 A    525  ETH  C2   CG3310   -0.270000       12.0110           0
    4195 A    525  ETH  H1   HGA30    0.090000        1.0080           0
    4196 A    525  ETH  H2   HGA30    0.090000        1.0080           0
    4197 A    525  ETH  H3   HGA30    0.090000        1.0080           0
    4198 A    525  ETH  H4   HGA30    0.090000        1.0080           0
    4199 A    525  ETH  H5   HGA30    0.090000        1.0080           0
    4200 A    525  ETH  H6   HGA30    0.090000        1.0080           0
    4201 A    526  ETH  C1   CG3310   -0.270000       12.0110           0
    4202 A    526  ETH  C2   CG3310   -0.270000       12.0110           0
    4203 A    526  ETH  H1   HGA30    0.090000        1.0080           0
    4204 A    526  ETH  H2   HGA30    0.090000        1.0080           0
    4205 A    526  ETH  H3   HGA30    0.090000        1.0080           0
    4206 A    526  ETH  H4   HGA30    0.090000        1.0080           0
    4207 A    526  ETH  H5   HGA30    0.090000        1.0080           0
    4208 A    526  ETH  H6   HGA30    0.090000        1.0080           0
    4209 A    527  ETH  C1   CG3310   -0.270000       12.0110           0
    4210 A    527  ETH  C2   CG3310   -0.270000       12.0110           0
    4211 A    527  ETH  H1   HGA30    0.090000        1.0080           0
    4212 A    527  ETH  H2   HGA30    0.090000        1.0080           0
    4213 A    527  ETH  H3   HGA30    0.090000        1.0080           0
    4214 A    527  ETH  H4   HGA30    0.090000        1.0080           0
    4215 A    527  ETH  H5   HGA30    0.090000        1.0080           0
    4216 A    527  ETH  H6   HGA30    0.090000        1.0080           0
    4217 A    528  ETH  C1   CG3310   -0.270000       12.0110           0
    4218 A    528  ETH  C2   CG3310   -0.270000       12.0110           0
    4219 A    528  ETH  H1   HGA30    0.090000        1.0080           0
    4220 A    528  ETH  H2   HGA30    0.090000        1.0080           0
    4221 A    528  ETH  H3   HGA30    0.090000        1.0080           0
    4222 A    528  ETH  H4   HGA30    0.090000        1.0080           0
    4223 A    528  ETH  H5   HGA30    0.090000        1.0080           0
    4224 A    528  ETH  H6   HGA30    0.090000        1.0080           0
    4225 A    529  ETH  C1   CG3310   -0.270000       12.0110           0
    4226 A    529  ETH  C2   CG3310   -0.270000       12.0110           0
    4227 A    529  ETH  H1   HGA30    0.090000        1.0080           0
    4228 A    529  ETH  H2   HGA30    0.090000        1.0080           0
    4229 A    529  ETH  H3   HGA30    0.090000        1.0080           0
    4230 A    529  ETH  H4   HGA30    0.090000        1.0080           0
    4231 A    529  ETH  H5   HGA30    0.090000        1.0080           0
    4232 A    529  ETH  H6   HGA30    0.090000        1.0080           0
    4233 A    530  ETH  C1   CG3310   -0.270000       12.0110           0
    4234 A    530  ETH  C2   CG3310   -0.270000       12.0110           0
    4235 A    530  ETH  H1   HGA30    0.090000        1.0080           0
    4236 A    530  ETH  H2   HGA30    0.090000        1.0080           0
    4237 A    530  ETH  H3   HGA30    0.090000        1.0080           0
    4238 A    530  ETH  H4   HGA30    0.090000        1.0080           0
    4239 A    530  ETH  H5   HGA30    0.090000        1.0080           0
    4240 A    530  ETH  H6   HGA30    0.090000        1.0080           0
    4241 A    531  ETH  C1   CG3310   -0.270000       12.0110           0
    4242 A    531  ETH  C2   CG3310   -0.270000       12.0110           0
    4243 A    531  ETH  H1   HGA30    0.090000        1.0080           0
    4244 A    531  ETH  H2   HGA30    0.090000        1.0080           0
    4245 A    531  ETH  H3   HGA30    0.090000        1.0080           0
    4246 A    531  ETH  H4   HGA30    0.090000        1.0080           0
    4247 A    531  ETH  H5   HGA30    0.090000        1.0080           0
    4248 A    531  ETH  H6   HGA30    0.090000        1.0080           0
    4249 A    532  ETH  C1   CG3310   -0.270000       12.0110           0
    4250 A    532  ETH  C2   CG3310   -0.270000       12.0110           0
    4251 A    532  ETH  H1   HGA30    0.090000        1.0080           0
    4252 A    532  ETH  H2   HGA30    0.090000        1.0080           0
    4253 A    532  ETH  H3   HGA30    0.090000        1.0080           0
    4254 A    532  ETH  H4   HGA30    0.090000        1.0080           0
    4255 A    532  ETH  H5   HGA30    0.090000        1.0080           0
    4256 A    532  ETH  H6   HGA30    0.090000        1.0080           0
    4257 A    533  ETH  C1   CG3310   -0.270000       12.0110           0
    4258 A    533  ETH  C2   CG3310   -0.270000       12.0110           0
    4259 A    533  ETH  H1   HGA30    0.090000        1.0080           0
    4260 A    533  ETH  H2   HGA30    0.090000        1.0080           0
    4261 A    533  ETH  H3   HGA30    0.090000        1.0080           0
    4262 A    533  ETH  H4   HGA30    0.090000        1.0080           0
    4263 A    533  ETH  H5   HGA30    0.090000        1.0080           0
    4264 A    533  ETH  H6   HGA30    0.090000        1.0080           0
    4265 A    534  ETH  C1   CG3310   -0.270000       12.0110           0
    4266 A    534  ETH  C2   CG3310   -0.270000       12.0110           0
    4267 A    534  ETH  H1   HGA30    0.090000        1.0080           0
    4268 A    534  ETH  H2   HGA30    0.090000        1.0080           0
    4269 A    534  ETH  H3   HGA30    0.090000        1.0080           0
    4270 A    534  ETH  H4   HGA30    0.090000        1.0080           0
    4271 A    534  ETH  H5   HGA30    0.090000        1.0080           0
    4272 A    534  ETH  H6   HGA30    0.090000        1.0080           0
    4273 A    535  ETH  C1   CG3310   -0.270000       12.0110           0
    4274 A    535  ETH  C2   CG3310   -0.270000       12.0110           0
    4275 A    535  ETH  H1   HGA30    0.090000        1.0080           0
    4276 A    535  ETH  H2   HGA30    0.090000        1.0080           0
    4277 A    535  ETH  H3   HGA30    0.090000        1.0080           0
    4278 A    535  ETH  H4   HGA30    0.090000        1.0080           0
    4279 A    535  ETH  H5   HGA30    0.090000        1.0080           0
    4280 A    535  ETH  H6   HGA30    0.090000        1.0080           0
    4281 A    536  ETH  C1   CG3310   -0.270000       12.0110           0
    4282 A    536  ETH  C2   CG3310   -0.270000       12.0110           0
    4283 A    536  ETH  H1   HGA30    0.090000        1.0080           0
    4284 A    536  ETH  H2   HGA30    0.090000        1.0080           0
    4285 A    536  ETH  H3   HGA30    0.090000        1.0080           0
    4286 A    536  ETH  H4   HGA30    0.090000        1.0080           0
    4287 A    536  ETH  H5   HGA30    0.090000        1.0080           0
    4288 A    536  ETH  H6   HGA30    0.090000        1.0080           0
    4289 A    537  ETH  C1   CG3310   -0.270000       12.0110           0
    4290 A    537  ETH  C2   CG3310   -0.270000       12.0110           0
    4291 A    537  ETH  H1   HGA30    0.090000        1.0080           0
    4292 A    537  ETH  H2   HGA30    0.090000        1.0080           0
    4293 A    537  ETH  H3   HGA30    0.090000        1.0080           0
    4294 A    537  ETH  H4   HGA30    0.090000        1.0080           0
    4295 A    537  ETH  H5   HGA30    0.090000        1.0080           0
    4296 A    537  ETH  H6   HGA30    0.090000        1.0080           0
    4297 A    538  ETH  C1   CG3310   -0.270000       12.0110           0
    4298 A    538  ETH  C2   CG3310   -0.270000       12.0110           0
    4299 A    538  ETH  H1   HGA30    0.090000        1.0080           0
    4300 A    538  ETH  H2   HGA30    0.090000        1.0080           0
    4301 A    538  ETH  H3   HGA30    0.090000        1.0080           0
    4302 A    538  ETH  H4   HGA30    0.090000        1.0080           0
    4303 A    538  ETH  H5   HGA30    0.090000        1.0080           0
    4304 A    538  ETH  H6   HGA30    0.090000        1.0080           0
    4305 A    539  ETH  C1   CG3310   -0.270000       12.0110           0
    4306 A    539  ETH  C2   CG3310   -0.270000       12.0110           0
    4307 A    539  ETH  H1   HGA30    0.090000        1.0080           0
    4308 A    539  ETH  H2   HGA30    0.090000        1.0080           0
    4309 A    539  ETH  H3   HGA30    0.090000        1.0080           0
    4310 A    539  ETH  H4   HGA30    0.090000        1.0080           0
    4311 A    539  ETH  H5   HGA30    0.090000        1.0080           0
    4312 A    539  ETH  H6   HGA30    0.090000        1.0080           0
    4313 A    540  ETH  C1   CG3310   -0.270000       12.0110           0
    4314 A    540  ETH  C2   CG3310   -0.270000       12.0110           0
    4315 A    540  ETH  H1   HGA30    0.090000        1.0080           0
    4316 A    540  ETH  H2   HGA30    0.090000        1.0080           0
    4317 A    540  ETH  H3   HGA30    0.090000        1.0080           0
    4318 A    540  ETH  H4   HGA30    0.090000        1.0080           0
    4319 A    540  ETH  H5   HGA30    0.090000        1.0080           0
    4320 A    540  ETH  H6   HGA30    0.090000        1.0080           0
    4321 A    541  ETH  C1   CG3310   -0.270000       12.0110           0
    4322 A    541  ETH  C2   CG3310   -0.270000       12.0110           0
    4323 A    541  ETH  H1   HGA30    0.090000        1.0080           0
    4324 A    541  ETH  H2   HGA30    0.090000        1.0080           0
    4325 A    541  ETH  H3   HGA30    0.090000        1.0080           0
    4326 A    541  ETH  H4   HGA30    0.090000        1.0080           0
    4327 A    541  ETH  H5   HGA30    0.090000        1.0080           0
    4328 A    541  ETH  H6   HGA30    0.090000        1.0080           0
    4329 A    542  ETH  C1   CG3310   -0.270000       12.0110           0
    4330 A    542  ETH  C2   CG3310   -0.270000       12.0110           0
    4331 A    542  ETH  H1   HGA30    0.090000        1.0080           0
    4332 A    542  ETH  H2   HGA30    0.090000        1.0080           0
    4333 A    542  ETH  H3   HGA30    0.090000        1.0080           0
    4334 A    542  ETH  H4   HGA30    0.090000        1.0080           0
    4335 A    542  ETH  H5   HGA30    0.090000        1.0080           0
    4336 A    542  ETH  H6   HGA30    0.090000        1.0080           0
    4337 A    543  ETH  C1   CG3310   -0.270000       12.0110           0
    4338 A    543  ETH  C2   CG3310   -0.270000       12.0110           0
    4339 A    543  ETH  H1   HGA30    0.090000        1.0080           0
    4340 A    543  ETH  H2   HGA30    0.090000        1.0080           0
    4341 A    543  ETH  H3   HGA30    0.090000        1.0080           0
    4342 A    543  ETH  H4   HGA30    0.090000        1.0080           0
    4343 A    543  ETH  H5   HGA30    0.090000        1.0080           0
    4344 A    543  ETH  H6   HGA30    0.090000        1.0080           0
    4345 A    544  ETH  C1   CG3310   -0.270000       12.0110           0
    4346 A    544  ETH  C2   CG3310   -0.270000       12.0110           0
    4347 A    544  ETH  H1   HGA30    0.090000        1.0080           0
    4348 A    544  ETH  H2   HGA30    0.090000        1.0080           0
    4349 A    544  ETH  H3   HGA30    0.090000        1.0080           0
    4350 A    544  ETH  H4   HGA30    0.090000        1.0080           0
    4351 A    544  ETH  H5   HGA30    0.090000        1.0080           0
    4352 A    544  ETH  H6   HGA30    0.090000        1.0080           0
    4353 A    545  ETH  C1   CG3310   -0.270000       12.0110           0
    4354 A    545  ETH  C2   CG3310   -0.270000       12.0110           0
    4355 A    545  ETH  H1   HGA30    0.090000        1.0080           0
    4356 A    545  ETH  H2   HGA30    0.090000        1.0080           0
    4357 A    545  ETH  H3   HGA30    0.090000        1.0080           0
    4358 A    545  ETH  H4   HGA30    0.090000        1.0080           0
    4359 A    545  ETH  H5   HGA30    0.090000        1.0080           0
    4360 A    545  ETH  H6   HGA30    0.090000        1.0080           0
    4361 A    546  ETH  C1   CG3310   -0.270000       12.0110           0
    4362 A    546  ETH  C2   CG3310   -0.270000       12.0110           0
    4363 A    546  ETH  H1   HGA30    0.090000        1.0080           0
    4364 A    546  ETH  H2   HGA30    0.090000        1.0080           0
    4365 A    546  ETH  H3   HGA30    0.090000        1.0080           0
    4366 A    546  ETH  H4   HGA30    0.090000        1.0080           0
    4367 A    546  ETH  H5   HGA30    0.090000        1.0080           0
    4368 A    546  ETH  H6   HGA30    0.090000        1.0080           0
    4369 A    547  ETH  C1   CG3310   -0.270000       12.0110           0
    4370 A    547  ETH  C2   CG3310   -0.270000       12.0110           0
    4371 A    547  ETH  H1   HGA30    0.090000        1.0080           0
    4372 A    547  ETH  H2   HGA30    0.090000        1.0080           0
    4373 A    547  ETH  H3   HGA30    0.090000        1.0080           0
    4374 A    547  ETH  H4   HGA30    0.090000        1.0080           0
    4375 A    547  ETH  H5   HGA30    0.090000        1.0080           0
    4376 A    547  ETH  H6   HGA30    0.090000        1.0080           0
    4377 A    548  ETH  C1   CG3310   -0.270000       12.0110           0
    4378 A    548  ETH  C2   CG3310   -0.270000       12.0110           0
    4379 A    548  ETH  H1   HGA30    0.090000        1.0080           0
    4380 A    548  ETH  H2   HGA30    0.090000        1.0080           0
    4381 A    548  ETH  H3   HGA30    0.090000        1.0080           0
    4382 A    548  ETH  H4   HGA30    0.090000        1.0080           0
    4383 A    548  ETH  H5   HGA30    0.090000        1.0080           0
    4384 A    548  ETH  H6   HGA30    0.090000        1.0080           0
    4385 A    549  ETH  C1   CG3310   -0.270000       12.0110           0
    4386 A    549  ETH  C2   CG3310   -0.270000       12.0110           0
    4387 A    549  ETH  H1   HGA30    0.090000        1.0080           0
    4388 A    549  ETH  H2   HGA30    0.090000        1.0080           0
    4389 A    549  ETH  H3   HGA30    0.090000        1.0080           0
    4390 A    549  ETH  H4   HGA30    0.090000        1.0080           0
    4391 A    549  ETH  H5   HGA30    0.090000        1.0080           0
    4392 A    549  ETH  H6   HGA30    0.090000        1.0080           0
    4393 A    550  ETH  C1   CG3310   -0.270000       12.0110           0
    4394 A    550  ETH  C2   CG3310   -0.270000       12.0110           0
    4395 A    550  ETH  H1   HGA30    0.090000        1.0080           0
    4396 A    550  ETH  H2   HGA30    0.090000        1.0080           0
    4397 A    550  ETH  H3   HGA30    0.090000        1.0080           0
    4398 A    550  ETH  H4   HGA30    0.090000        1.0080           0
    4399 A    550  ETH  H5   HGA30    0.090000        1.0080           0
    4400 A    550  ETH  H6   HGA30    0.090000        1.0080           0
    4401 A    551  ETH  C1   CG3310   -0.270000       12.0110           0
    4402 A    551  ETH  C2   CG3310   -0.270000       12.0110           0
    4403 A    551  ETH  H1   HGA30    0.090000        1.0080           0
    4404 A    551  ETH  H2   HGA30    0.090000        1.0080           0
    4405 A    551  ETH  H3   HGA30    0.090000        1.0080           0
    4406 A    551  ETH  H4   HGA30    0.090000        1.0080           0
    4407 A    551  ETH  H5   HGA30    0.090000        1.0080           0
    4408 A    551  ETH  H6   HGA30    0.090000        1.0080           0
    4409 A    552  ETH  C1   CG3310   -0.270000       12.0110           0
    4410 A    552  ETH  C2   CG3310   -0.270000       12.0110           0
    4411 A    552  ETH  H1   HGA30    0.090000        1.0080           0
    4412 A    552  ETH  H2   HGA30    0.090000        1.0080           0
    4413 A    552  ETH  H3   HGA30    0.090000        1.0080           0
    4414 A    552  ETH  H4   HGA30    0.090000        1.0080           0
    4415 A    552  ETH  H5   HGA30    0.090000        1.0080           0
    4416 A    552  ETH  H6   HGA30    0.090000        1.0080           0
    4417 A    553  ETH  C1   CG3310   -0.270000       12.0110           0
    4418 A    553  ETH  C2   CG3310   -0.270000       12.0110           0
    4419 A    553  ETH  H1   HGA30    0.090000        1.0080           0
    4420 A    553  ETH  H2   HGA30    0.090000        1.0080           0
    4421 A    553  ETH  H3   HGA30    0.090000        1.0080           0
    4422 A    553  ETH  H4   HGA30    0.090000        1.0080           0
    4423 A    553  ETH  H5   HGA30    0.090000        1.0080           0
    4424 A    553  ETH  H6   HGA30    0.090000        1.0080           0
    4425 A    554  ETH  C1   CG3310   -0.270000       12.0110           0
    4426 A    554  ETH  C2   CG3310   -0.270000       12.0110           0
    4427 A    554  ETH  H1   HGA30    0.090000        1.0080           0
    4428 A    554  ETH  H2   HGA30    0.090000        1.0080           0
    4429 A    554  ETH  H3   HGA30    0.090000        1.0080           0
    4430 A    554  ETH  H4   HGA30    0.090000        1.0080           0
    4431 A    554  ETH  H5   HGA30    0.090000        1.0080           0
    4432 A    554  ETH  H6   HGA30    0.090000        1.0080           0
    4433 A    555  ETH  C1   CG3310   -0.270000       12.0110           0
    4434 A    555  ETH  C2   CG3310   -0.270000       12.0110           0
    4435 A    555  ETH  H1   HGA30    0.090000        1.0080           0
    4436 A    555  ETH  H2   HGA30    0.090000        1.0080           0
    4437 A    555  ETH  H3   HGA30    0.090000        1.0080           0
    4438 A    555  ETH  H4   HGA30    0.090000        1.0080           0
    4439 A    555  ETH  H5   HGA30    0.090000        1.0080           0
    4440 A    555  ETH  H6   HGA30    0.090000        1.0080           0
    4441 A    556  ETH  C1   CG3310   -0.270000       12.0110           0
    4442 A    556  ETH  C2   CG3310   -0.270000       12.0110           0
    4443 A    556  ETH  H1   HGA30    0.090000        1.0080           0
    4444 A    556  ETH  H2   HGA30    0.090000        1.0080           0
    4445 A    556  ETH  H3   HGA30    0.090000        1.0080           0
    4446 A    556  ETH  H4   HGA30    0.090000        1.0080           0
    4447 A    556  ETH  H5   HGA30    0.090000        1.0080           0
    4448 A    556  ETH  H6   HGA30    0.090000        1.0080           0
    4449 A    557  ETH  C1   CG3310   -0.270000       12.0110           0
    4450 A    557  ETH  C2   CG3310   -0.270000       12.0110           0
    4451 A    557  ETH  H1   HGA30    0.090000        1.0080           0
    4452 A    557  ETH  H2   HGA30    0.090000        1.0080           0
    4453 A    557  ETH  H3   HGA30    0.090000        1.0080           0
    4454 A    557  ETH  H4   HGA30    0.090000        1.0080           0
    4455 A    557  ETH  H5   HGA30    0.090000        1.0080           0
    4456 A    557  ETH  H6   HGA30    0.090000        1.0080           0
    4457 A    558  ETH  C1   CG3310   -0.270000       12.0110           0
    4458 A    558  ETH  C2   CG3310   -0.270000       12.0110           0
    4459 A    558  ETH  H1   HGA30    0.090000        1.0080           0
    4460 A    558  ETH  H2   HGA30    0.090000        1.0080           0
    4461 A    558  ETH  H3   HGA30    0.090000        1.0080           0
    4462 A    558  ETH  H4   HGA30    0.090000        1.0080           0
    4463 A    558  ETH  H5   HGA30    0.090000        1.0080           0
    4464 A    558  ETH  H6   HGA30    0.090000        1.0080           0
    4465 A    559  ETH  C1   CG3310   -0.270000       12.0110           0
    4466 A    559  ETH  C2   CG3310   -0.270000       12.0110           0
    4467 A    559  ETH  H1   HGA30    0.090000        1.0080           0
    4468 A    559  ETH  H2   HGA30    0.090000        1.0080           0
    4469 A    559  ETH  H3   HGA30    0.090000        1.0080           0
    4470 A    559  ETH  H4   HGA30    0.090000        1.0080           0
    4471 A    559  ETH  H5   HGA30    0.090000        1.0080           0
    4472 A    559  ETH  H6   HGA30    0.090000        1.0080           0
    4473 A    560  ETH  C1   CG3310   -0.270000       12.0110           0
    4474 A    560  ETH  C2   CG3310   -0.270000       12.0110           0
    4475 A    560  ETH  H1   HGA30    0.090000        1.0080           0
    4476 A    560  ETH  H2   HGA30    0.090000        1.0080           0
    4477 A    560  ETH  H3   HGA30    0.090000        1.0080           0
    4478 A    560  ETH  H4   HGA30    0.090000        1.0080           0
    4479 A    560  ETH  H5   HGA30    0.090000        1.0080           0
    4480 A    560  ETH  H6   HGA30    0.090000        1.0080           0
    4481 A    561  ETH  C1   CG3310   -0.270000       12.0110           0
    4482 A    561  ETH  C2   CG3310   -0.270000       12.0110           0
    4483 A    561  ETH  H1   HGA30    0.090000        1.0080           0
    4484 A    561  ETH  H2   HGA30    0.090000        1.0080           0
    4485 A    561  ETH  H3   HGA30    0.090000        1.0080           0
    4486 A    561  ETH  H4   HGA30    0.090000        1.0080           0
    4487 A    561  ETH  H5   HGA30    0.090000        1.0080           0
    4488 A    561  ETH  H6   HGA30    0.090000        1.0080           0
    4489 A    562  ETH  C1   CG3310   -0.270000       12.0110           0
    4490 A    562  ETH  C2   CG3310   -0.270000       12.0110           0
    4491 A    562  ETH  H1   HGA30    0.090000        1.0080           0
    4492 A    562  ETH  H2   HGA30    0.090000        1.0080           0
    4493 A    562  ETH  H3   HGA30    0.090000        1.0080           0
    4494 A    562  ETH  H4   HGA30    0.090000        1.0080           0
    4495 A    562  ETH  H5   HGA30    0.090000        1.0080           0
    4496 A    562  ETH  H6   HGA30    0.090000        1.0080           0
    4497 A    563  ETH  C1   CG3310   -0.270000       12.0110           0
    4498 A    563  ETH  C2   CG3310   -0.270000       12.0110           0
    4499 A    563  ETH  H1   HGA30    0.090000        1.0080           0
    4500 A    563  ETH  H2   HGA30    0.090000        1.0080           0
    4501 A    563  ETH  H3   HGA30    0.090000        1.0080           0
    4502 A    563  ETH  H4   HGA30    0.090000        1.0080           0
    4503 A    563  ETH  H5   HGA30    0.090000        1.0080           0
    4504 A    563  ETH  H6   HGA30    0.090000        1.0080           0
    4505 A    564  ETH  C1   CG3310   -0.270000       12.0110           0
    4506 A    564  ETH  C2   CG3310   -0.270000       12.0110           0
    4507 A    564  ETH  H1   HGA30    0.090000        1.0080           0
    4508 A    564  ETH  H2   HGA30    0.090000        1.0080           0
    4509 A    564  ETH  H3   HGA30    0.090000        1.0080           0
    4510 A    564  ETH  H4   HGA30    0.090000        1.0080           0
    4511 A    564  ETH  H5   HGA30    0.090000        1.0080           0
    4512 A    564  ETH  H6   HGA30    0.090000        1.0080           0
    4513 A    565  ETH  C1   CG3310   -0.270000       12.0110           0
    4514 A    565  ETH  C2   CG3310   -0.270000       12.0110           0
    4515 A    565  ETH  H1   HGA30    0.090000        1.0080           0
    4516 A    565  ETH  H2   HGA30    0.090000        1.0080           0
    4517 A    565  ETH  H3   HGA30    0.090000        1.0080           0
    4518 A    565  ETH  H4   HGA30    0.090000        1.0080           0
    4519 A    565  ETH  H5   HGA30    0.090000        1.0080           0
    4520 A    565  ETH  H6   HGA30    0.090000        1.0080           0
    4521 A    566  ETH  C1   CG3310   -0.270000       12.0110           0
    4522 A    566  ETH  C2   CG3310   -0.270000       12.0110           0
    4523 A    566  ETH  H1   HGA30    0.090000        1.0080           0
    4524 A    566  ETH  H2   HGA30    0.090000        1.0080           0
    4525 A    566  ETH  H3   HGA30    0.090000        1.0080           0
    4526 A    566  ETH  H4   HGA30    0.090000        1.0080           0
    4527 A    566  ETH  H5   HGA30    0.090000        1.0080           0
    4528 A    566  ETH  H6   HGA30    0.090000        1.0080           0
    4529 A    567  ETH  C1   CG3310   -0.270000       12.0110           0
    4530 A    567  ETH  C2   CG3310   -0.270000       12.0110           0
    4531 A    567  ETH  H1   HGA30    0.090000        1.0080           0
    4532 A    567  ETH  H2   HGA30    0.090000        1.0080           0
    4533 A    567  ETH  H3   HGA30    0.090000        1.0080           0
    4534 A    567  ETH  H4   HGA30    0.090000        1.0080           0
    4535 A    567  ETH  H5   HGA30    0.090000        1.0080           0
    4536 A    567  ETH  H6   HGA30    0.090000        1.0080           0
    4537 A    568  ETH  C1   CG3310   -0.270000       12.0110           0
    4538 A    568  ETH  C2   CG3310   -0.270000       12.0110           0
    4539 A    568  ETH  H1   HGA30    0.090000        1.0080           0
    4540 A    568  ETH  H2   HGA30    0.090000        1.0080           0
    4541 A    568  ETH  H3   HGA30    0.090000        1.0080           0
    4542 A    568  ETH  H4   HGA30    0.090000        1.0080           0
    4543 A    568  ETH  H5   HGA30    0.090000        1.0080           0
    4544 A    568  ETH  H6   HGA30    0.090000        1.0080           0
    4545 A    569  ETH  C1   CG3310   -0.270000       12.0110           0
    4546 A    569  ETH  C2   CG3310   -0.270000       12.0110           0
    4547 A    569  ETH  H1   HGA30    0.090000        1.0080           0
    4548 A    569  ETH  H2   HGA30    0.090000        1.0080           0
    4549 A    569  ETH  H3   HGA30    0.090000        1.0080           0
    4550 A    569  ETH  H4   HGA30    0.090000        1.0080           0
    4551 A    569  ETH  H5   HGA30    0.090000        1.0080           0
    4552 A    569  ETH  H6   HGA30    0.090000        1.0080           0
    4553 A    570  ETH  C1   CG3310   -0.270000       12.0110           0
    4554 A    570  ETH  C2   CG3310   -0.270000       12.0110           0
    4555 A    570  ETH  H1   HGA30    0.090000        1.0080           0
    4556 A    570  ETH  H2   HGA30    0.090000        1.0080           0
    4557 A    570  ETH  H3   HGA30    0.090000        1.0080           0
    4558 A    570  ETH  H4   HGA30    0.090000        1.0080           0
    4559 A    570  ETH  H5   HGA30    0.090000        1.0080           0
    4560 A    570  ETH  H6   HGA30    0.090000        1.0080           0
    4561 A    571  ETH  C1   CG3310   -0.270000       12.0110           0
    4562 A    571  ETH  C2   CG3310   -0.270000       12.0110           0
    4563 A    571  ETH  H1   HGA30    0.090000        1.0080           0
    4564 A    571  ETH  H2   HGA30    0.090000        1.0080           0
    4565 A    571  ETH  H3   HGA30    0.090000        1.0080           0
    4566 A    571  ETH  H4   HGA30    0.090000        1.0080           0
    4567 A    571  ETH  H5   HGA30    0.090000        1.0080           0
    4568 A    571  ETH  H6   HGA30    0.090000        1.0080           0
    4569 A    572  ETH  C1   CG3310   -0.270000       12.0110           0
    4570 A    572  ETH  C2   CG3310   -0.270000       12.0110           0
    4571 A    572  ETH  H1   HGA30    0.090000        1.0080           0
    4572 A    572  ETH  H2   HGA30    0.090000        1.0080           0
    4573 A    572  ETH  H3   HGA30    0.090000        1.0080           0
    4574 A    572  ETH  H4   HGA30    0.090000        1.0080           0
    4575 A    572  ETH  H5   HGA30    0.090000        1.0080           0
    4576 A    572  ETH  H6   HGA30    0.090000        1.0080           0
    4577 A    573  ETH  C1   CG3310   -0.270000       12.0110           0
    4578 A    573  ETH  C2   CG3310   -0.270000       12.0110           0
    4579 A    573  ETH  H1   HGA30    0.090000        1.0080           0
    4580 A    573  ETH  H2   HGA30    0.090000        1.0080           0
    4581 A    573  ETH  H3   HGA30    0.090000        1.0080           0
    4582 A    573  ETH  H4   HGA30    0.090000        1.0080           0
    4583 A    573  ETH  H5   HGA30    0.090000        1.0080           0
    4584 A    573  ETH  H6   HGA30    0.090000        1.0080           0
    4585 A    574  ETH  C1   CG3310   -0.270000       12.0110           0
    4586 A    574  ETH  C2   CG3310   -0.270000       12.0110           0
    4587 A    574  ETH  H1   HGA30    0.090000        1.0080           0
    4588 A    574  ETH  H2   HGA30    0.090000        1.0080           0
    4589 A    574  ETH  H3   HGA30    0.090000        1.0080           0
    4590 A    574  ETH  H4   HGA30    0.090000        1.0080           0
    4591 A    574  ETH  H5   HGA30    0.090000        1.0080           0
    4592 A    574  ETH  H6   HGA30    0.090000        1.0080           0
    4593 A    575  ETH  C1   CG3310   -0.270000       12.0110           0
    4594 A    575  ETH  C2   CG3310   -0.270000       12.0110           0
    4595 A    575  ETH  H1   HGA30    0.090000        1.0080           0
    4596 A    575  ETH  H2   HGA30    0.090000        1.0080           0
    4597 A    575  ETH  H3   HGA30    0.090000        1.0080           0
    4598 A    575  ETH  H4   HGA30    0.090000        1.0080           0
    4599 A    575  ETH  H5   HGA30    0.090000        1.0080           0
    4600 A    575  ETH  H6   HGA30    0.090000        1.0080           0
    4601 A    576  ETH  C1   CG3310   -0.270000       12.0110           0
    4602 A    576  ETH  C2   CG3310   -0.270000       12.0110           0
    4603 A    576  ETH  H1   HGA30    0.090000        1.0080           0
    4604 A    576  ETH  H2   HGA30    0.090000        1.0080           0
    4605 A    576  ETH  H3   HGA30    0.090000        1.0080           0
    4606 A    576  ETH  H4   HGA30    0.090000        1.0080           0
    4607 A    576  ETH  H5   HGA30    0.090000        1.0080           0
    4608 A    576  ETH  H6   HGA30    0.090000        1.0080           0
    4609 A    577  ETH  C1   CG3310   -0.270000       12.0110           0
    4610 A    577  ETH  C2   CG3310   -0.270000       12.0110           0
    4611 A    577  ETH  H1   HGA30    0.090000        1.0080           0
    4612 A    577  ETH  H2   HGA30    0.090000        1.0080           0
    4613 A    577  ETH  H3   HGA30    0.090000        1.0080           0
    4614 A    577  ETH  H4   HGA30    0.090000        1.0080           0
    4615 A    577  ETH  H5   HGA30    0.090000        1.0080           0
    4616 A    577  ETH  H6   HGA30    0.090000        1.0080           0
    4617 A    578  ETH  C1   CG3310   -0.270000       12.0110           0
    4618 A    578  ETH  C2   CG3310   -0.270000       12.0110           0
    4619 A    578  ETH  H1   HGA30    0.090000        1.0080           0
    4620 A    578  ETH  H2   HGA30    0.090000        1.0080           0
    4621 A    578  ETH  H3   HGA30    0.090000        1.0080           0
    4622 A    578  ETH  H4   HGA30    0.090000        1.0080           0
    4623 A    578  ETH  H5   HGA30    0.090000        1.0080           0
    4624 A    578  ETH  H6   HGA30    0.090000        1.0080           0
    4625 A    579  ETH  C1   CG3310   -0.270000       12.0110           0
    4626 A    579  ETH  C2   CG3310   -0.270000       12.0110           0
    4627 A    579  ETH  H1   HGA30    0.090000        1.0080           0
    4628 A    579  ETH  H2   HGA30    0.090000        1.0080           0
    4629 A    579  ETH  H3   HGA30    0.090000        1.0080           0
    4630 A    579  ETH  H4   HGA30    0.090000        1.0080           0
    4631 A    579  ETH  H5   HGA30    0.090000        1.0080           0
    4632 A    579  ETH  H6   HGA30    0.090000        1.0080           0
    4633 A    580  ETH  C1   CG3310   -0.270000       12.0110           0
    4634 A    580  ETH  C2   CG3310   -0.270000       12.0110           0
    4635 A    580  ETH  H1   HGA30    0.090000        1.0080           0
    4636 A    580  ETH  H2   HGA30    0.090000        1.0080           0
    4637 A    580  ETH  H3   HGA30    0.090000        1.0080           0
    4638 A    580  ETH  H4   HGA30    0.090000        1.0080           0
    4639 A    580  ETH  H5   HGA30    0.090000        1.0080           0
    4640 A    580  ETH  H6   HGA30    0.090000        1.0080           0
    4641 A    581  ETH  C1   CG3310   -0.270000       12.0110           0
    4642 A    581  ETH  C2   CG3310   -0.270000       12.0110           0
    4643 A    581  ETH  H1   HGA30    0.090000        1.0080           0
    4644 A    581  ETH  H2   HGA30    0.090000        1.0080           0
    4645 A    581  ETH  H3   HGA30    0.090000        1.0080           0
    4646 A    581  ETH  H4   HGA30    0.090000        1.0080           0
    4647 A    581  ETH  H5   HGA30    0.090000        1.0080           0
    4648 A    581  ETH  H6   HGA30    0.090000        1.0080           0
    4649 A    582  ETH  C1   CG3310   -0.270000       12.0110           0
    4650 A    582  ETH  C2   CG3310   -0.270000       12.0110           0
    4651 A    582  ETH  H1   HGA30    0.090000        1.0080           0
    4652 A    582  ETH  H2   HGA30    0.090000        1.0080           0
    4653 A    582  ETH  H3   HGA30    0.090000        1.0080           0
    4654 A    582  ETH  H4   HGA30    0.090000        1.0080           0
    4655 A    582  ETH  H5   HGA30    0.090000        1.0080           0
    4656 A    582  ETH  H6   HGA30    0.090000        1.0080           0
    4657 A    583  ETH  C1   CG3310   -0.270000       12.0110           0
    4658 A    583  ETH  C2   CG3310   -0.270000       12.0110           0
    4659 A    583  ETH  H1   HGA30    0.090000        1.0080           0
    4660 A    583  ETH  H2   HGA30    0.090000        1.0080           0
    4661 A    583  ETH  H3   HGA30    0.090000        1.0080           0
    4662 A    583  ETH  H4   HGA30    0.090000        1.0080           0
    4663 A    583  ETH  H5   HGA30    0.090000        1.0080           0
    4664 A    583  ETH  H6   HGA30    0.090000        1.0080           0
    4665 A    584  ETH  C1   CG3310   -0.270000       12.0110           0
    4666 A    584  ETH  C2   CG3310   -0.270000       12.0110           0
    4667 A    584  ETH  H1   HGA30    0.090000        1.0080           0
    4668 A    584  ETH  H2   HGA30    0.090000        1.0080           0
    4669 A    584  ETH  H3   HGA30    0.090000        1.0080           0
    4670 A    584  ETH  H4   HGA30    0.090000        1.0080           0
    4671 A    584  ETH  H5   HGA30    0.090000        1.0080           0
    4672 A    584  ETH  H6   HGA30    0.090000        1.0080           0
    4673 A    585  ETH  C1   CG3310   -0.270000       12.0110           0
    4674 A    585  ETH  C2   CG3310   -0.270000       12.0110           0
    4675 A    585  ETH  H1   HGA30    0.090000        1.0080           0
    4676 A    585  ETH  H2   HGA30    0.090000        1.0080           0
    4677 A    585  ETH  H3   HGA30    0.090000        1.0080           0
    4678 A    585  ETH  H4   HGA30    0.090000        1.0080           0
    4679 A    585  ETH  H5   HGA30    0.090000        1.0080           0
    4680 A    585  ETH  H6   HGA30    0.090000        1.0080           0
    4681 A    586  ETH  C1   CG3310   -0.270000       12.0110           0
    4682 A    586  ETH  C2   CG3310   -0.270000       12.0110           0
    4683 A    586  ETH  H1   HGA30    0.090000        1.0080           0
    4684 A    586  ETH  H2   HGA30    0.090000        1.0080           0
    4685 A    586  ETH  H3   HGA30    0.090000        1.0080           0
    4686 A    586  ETH  H4   HGA30    0.090000        1.0080           0
    4687 A    586  ETH  H5   HGA30    0.090000        1.0080           0
    4688 A    586  ETH  H6   HGA30    0.090000        1.0080           0
    4689 A    587  ETH  C1   CG3310   -0.270000       12.0110           0
    4690 A    587  ETH  C2   CG3310   -0.270000       12.0110           0
    4691 A    587  ETH  H1   HGA30    0.090000        1.0080           0
    4692 A    587  ETH  H2   HGA30    0.090000        1.0080           0
    4693 A    587  ETH  H3   HGA30    0.090000        1.0080           0
    4694 A    587  ETH  H4   HGA30    0.090000        1.0080           0
    4695 A    587  ETH  H5   HGA30    0.090000        1.0080           0
    4696 A    587  ETH  H6   HGA30    0.090000        1.0080           0
    4697 A    588  ETH  C1   CG3310   -0.270000       12.0110           0
    4698 A    588  ETH  C2   CG3310   -0.270000       12.0110           0
    4699 A    588  ETH  H1   HGA30    0.090000        1.0080           0
    4700 A    588  ETH  H2   HGA30    0.090000        1.0080           0
    4701 A    588  ETH  H3   HGA30    0.090000        1.0080           0
    4702 A    588  ETH  H4   HGA30    0.090000        1.0080           0
    4703 A    588  ETH  H5   HGA30    0.090000        1.0080           0
    4704 A    588  ETH  H6   HGA30    0.090000        1.0080           0
    4705 A    589  ETH  C1   CG3310   -0.270000       12.0110           0
    4706 A    589  ETH  C2   CG3310   -0.270000       12.0110           0
    4707 A    589  ETH  H1   HGA30    0.090000        1.0080           0
    4708 A    589  ETH  H2   HGA30    0.090000        1.0080           0
    4709 A    589  ETH  H3   HGA30    0.090000        1.0080           0
    4710 A    589  ETH  H4   HGA30    0.090000        1.0080           0
    4711 A    589  ETH  H5   HGA30    0.090000        1.0080           0
    4712 A    589  ETH  H6   HGA30    0.090000        1.0080           0
    4713 A    590  ETH  C1   CG3310   -0.270000       12.0110           0
    4714 A    590  ETH  C2   CG3310   -0.270000       12.0110           0
    4715 A    590  ETH  H1   HGA30    0.090000        1.0080           0
    4716 A    590  ETH  H2   HGA30    0.090000        1.0080           0
    4717 A    590  ETH  H3   HGA30    0.090000        1.0080           0
    4718 A    590  ETH  H4   HGA30    0.090000        1.0080           0
    4719 A    590  ETH  H5   HGA30    0.090000        1.0080           0
    4720 A    590  ETH  H6   HGA30    0.090000        1.0080           0
    4721 A    591  ETH  C1   CG3310   -0.270000       12.0110           0
    4722 A    591  ETH  C2   CG3310   -0.270000       12.0110           0
    4723 A    591  ETH  H1   HGA30    0.090000        1.0080           0
    4724 A    591  ETH  H2   HGA30    0.090000        1.0080           0
    4725 A    591  ETH  H3   HGA30    0.090000        1.0080           0
    4726 A    591  ETH  H4   HGA30    0.090000        1.0080           0
    4727 A    591  ETH  H5   HGA30    0.090000        1.0080           0
    4728 A    591  ETH  H6   HGA30    0.090000        1.0080           0
    4729 A    592  ETH  C1   CG3310   -0.270000       12.0110           0
    4730 A    592  ETH  C2   CG3310   -0.270000       12.0110           0
    4731 A    592  ETH  H1   HGA30    0.090000        1.0080           0
    4732 A    592  ETH  H2   HGA30    0.090000        1.0080           0
    4733 A    592  ETH  H3   HGA30    0.090000        1.0080           0
    4734 A    592  ETH  H4   HGA30    0.090000        1.0080           0
    4735 A    592  ETH  H5   HGA30    0.090000        1.0080           0
    4736 A    592  ETH  H6   HGA30    0.090000        1.0080           0
    4737 A    593  ETH  C1   CG3310   -0.270000       12.0110           0
    4738 A    593  ETH  C2   CG3310   -0.270000       12.0110           0
    4739 A    593  ETH  H1   HGA30    0.090000        1.0080           0
    4740 A    593  ETH  H2   HGA30    0.090000        1.0080           0
    4741 A    593  ETH  H3   HGA30    0.090000        1.0080           0
    4742 A    593  ETH  H4   HGA30    0.090000        1.0080           0
    4743 A    593  ETH  H5   HGA30    0.090000        1.0080           0
    4744 A    593  ETH  H6   HGA30    0.090000        1.0080           0
    4745 A    594  ETH  C1   CG3310   -0.270000       12.0110           0
    4746 A    594  ETH  C2   CG3310   -0.270000       12.0110           0
    4747 A    594  ETH  H1   HGA30    0.090000        1.0080           0
    4748 A    594  ETH  H2   HGA30    0.090000        1.0080           0
    4749 A    594  ETH  H3   HGA30    0.090000        1.0080           0
    4750 A    594  ETH  H4   HGA30    0.090000        1.0080           0
    4751 A    594  ETH  H5   HGA30    0.090000        1.0080           0
    4752 A    594  ETH  H6   HGA30    0.090000        1.0080           0
    4753 A    595  ETH  C1   CG3310   -0.270000       12.0110           0
    4754 A    595  ETH  C2   CG3310   -0.270000       12.0110           0
    4755 A    595  ETH  H1   HGA30    0.090000        1.0080           0
    4756 A    595  ETH  H2   HGA30    0.090000        1.0080           0
    4757 A    595  ETH  H3   HGA30    0.090000        1.0080           0
    4758 A    595  ETH  H4   HGA30    0.090000        1.0080           0
    4759 A    595  ETH  H5   HGA30    0.090000        1.0080           0
    4760 A    595  ETH  H6   HGA30    0.090000        1.0080           0
    4761 A    596  ETH  C1   CG3310   -0.270000       12.0110           0
    4762 A    596  ETH  C2   CG3310   -0.270000       12.0110           0
    4763 A    596  ETH  H1   HGA30    0.090000        1.0080           0
    4764 A    596  ETH  H2   HGA30    0.090000        1.0080           0
    4765 A    596  ETH  H3   HGA30    0.090000        1.0080           0
    4766 A    596  ETH  H4   HGA30    0.090000        1.0080           0
    4767 A    596  ETH  H5   HGA30    0.090000        1.0080           0
    4768 A    596  ETH  H6   HGA30    0.090000        1.0080           0
    4769 A    597  ETH  C1   CG3310   -0.270000       12.0110           0
    4770 A    597  ETH  C2   CG3310   -0.270000       12.0110           0
    4771 A    597  ETH  H1   HGA30    0.090000        1.0080           0
    4772 A    597  ETH  H2   HGA30    0.090000        1.0080           0
    4773 A    597  ETH  H3   HGA30    0.090000        1.0080           0
    4774 A    597  ETH  H4   HGA30    0.090000        1.0080           0
    4775 A    597  ETH  H5   HGA30    0.090000        1.0080           0
    4776 A    597  ETH  H6   HGA30    0.090000        1.0080           0
    4777 A    598  ETH  C1   CG3310   -0.270000       12.0110           0
    4778 A    598  ETH  C2   CG3310   -0.270000       12.0110           0
    4779 A    598  ETH  H1   HGA30    0.090000        1.0080           0
    4780 A    598  ETH  H2   HGA30    0.090000        1.0080           0
    4781 A    598  ETH  H3   HGA30    0.090000        1.0080           0
    4782 A    598  ETH  H4   HGA30    0.090000        1.0080           0
    4783 A    598  ETH  H5   HGA30    0.090000        1.0080           0
    4784 A    598  ETH  H6   HGA30    0.090000        1.0080           0
    4785 A    599  ETH  C1   CG3310   -0.270000       12.0110           0
    4786 A    599  ETH  C2   CG3310   -0.270000       12.0110           0
    4787 A    599  ETH  H1   HGA30    0.090000        1.0080           0
    4788 A    599  ETH  H2   HGA30    0.090000        1.0080           0
    4789 A    599  ETH  H3   HGA30    0.090000        1.0080           0
    4790 A    599  ETH  H4   HGA30    0.090000        1.0080           0
    4791 A    599  ETH  H5   HGA30    0.090000        1.0080           0
    4792 A    599  ETH  H6   HGA30    0.090000        1.0080           0
    4793 A    600  ETH  C1   CG3310   -0.270000       12.0110           0
    4794 A    600  ETH  C2   CG3310   -0.270000       12.0110           0
    4795 A    600  ETH  H1   HGA30    0.090000        1.0080           0
    4796 A    600  ETH  H2   HGA30    0.090000        1.0080           0
    4797 A    600  ETH  H3   HGA30    0.090000        1.0080           0
    4798 A    600  ETH  H4   HGA30    0.090000        1.0080           0
    4799 A    600  ETH  H5   HGA30    0.090000        1.0080           0
    4800 A    600  ETH  H6   HGA30    0.090000        1.0080           0
    4801 A    601  ETH  C1   CG3310   -0.270000       12.0110           0
    4802 A    601  ETH  C2   CG3310   -0.270000       12.0110           0
    4803 A    601  ETH  H1   HGA30    0.090000        1.0080           0
    4804 A    601  ETH  H2   HGA30    0.090000        1.0080           0
    4805 A    601  ETH  H3   HGA30    0.090000        1.0080           0
    4806 A    601  ETH  H4   HGA30    0.090000        1.0080           0
    4807 A    601  ETH  H5   HGA30    0.090000        1.0080           0
    4808 A    601  ETH  H6   HGA30    0.090000        1.0080           0
    4809 A    602  ETH  C1   CG3310   -0.270000       12.0110           0
    4810 A    602  ETH  C2   CG3310   -0.270000       12.0110           0
    4811 A    602  ETH  H1   HGA30    0.090000        1.0080           0
    4812 A    602  ETH  H2   HGA30    0.090000        1.0080           0
    4813 A    602  ETH  H3   HGA30    0.090000        1.0080           0
    4814 A    602  ETH  H4   HGA30    0.090000        1.0080           0
    4815 A    602  ETH  H5   HGA30    0.090000        1.0080           0
    4816 A    602  ETH  H6   HGA30    0.090000        1.0080           0
    4817 A    603  ETH  C1   CG3310   -0.270000       12.0110           0
    4818 A    603  ETH  C2   CG3310   -0.270000       12.0110           0
    4819 A    603  ETH  H1   HGA30    0.090000        1.0080           0
    4820 A    603  ETH  H2   HGA30    0.090000        1.0080           0
    4821 A    603  ETH  H3   HGA30    0.090000        1.0080           0
    4822 A    603  ETH  H4   HGA30    0.090000        1.0080           0
    4823 A    603  ETH  H5   HGA30    0.090000        1.0080           0
    4824 A    603  ETH  H6   HGA30    0.090000        1.0080           0
    4825 A    604  ETH  C1   CG3310   -0.270000       12.0110           0
    4826 A    604  ETH  C2   CG3310   -0.270000       12.0110           0
    4827 A    604  ETH  H1   HGA30    0.090000        1.0080           0
    4828 A    604  ETH  H2   HGA30    0.090000        1.0080           0
    4829 A    604  ETH  H3   HGA30    0.090000        1.0080           0
    4830 A    604  ETH  H4   HGA30    0.090000        1.0080           0
    4831 A    604  ETH  H5   HGA30    0.090000        1.0080           0
    4832 A    604  ETH  H6   HGA30    0.090000        1.0080           0
    4833 A    605  ETH  C1   CG3310   -0.270000       12.0110           0
    4834 A    605  ETH  C2   CG3310   -0.270000       12.0110           0
    4835 A    605  ETH  H1   HGA30    0.090000        1.0080           0
    4836 A    605  ETH  H2   HGA30    0.090000        1.0080           0
    4837 A    605  ETH  H3   HGA30    0.090000        1.0080           0
    4838 A    605  ETH  H4   HGA30    0.090000        1.0080           0
    4839 A    605  ETH  H5   HGA30    0.090000        1.0080           0
    4840 A    605  ETH  H6   HGA30    0.090000        1.0080           0
    4841 A    606  ETH  C1   CG3310   -0.270000       12.0110           0
    4842 A    606  ETH  C2   CG3310   -0.270000       12.0110           0
    4843 A    606  ETH  H1   HGA30    0.090000        1.0080           0
    4844 A    606  ETH  H2   HGA30    0.090000        1.0080           0
    4845 A    606  ETH  H3   HGA30    0.090000        1.0080           0
    4846 A    606  ETH  H4   HGA30    0.090000        1.0080           0
    4847 A    606  ETH  H5   HGA30    0.090000        1.0080           0
    4848 A    606  ETH  H6   HGA30    0.090000        1.0080           0
    4849 A    607  ETH  C1   CG3310   -0.270000       12.0110           0
    4850 A    607  ETH  C2   CG3310   -0.270000       12.0110           0
    4851 A    607  ETH  H1   HGA30    0.090000        1.0080           0
    4852 A    607  ETH  H2   HGA30    0.090000        1.0080           0
    4853 A    607  ETH  H3   HGA30    0.090000        1.0080           0
    4854 A    607  ETH  H4   HGA30    0.090000        1.0080           0
    4855 A    607  ETH  H5   HGA30    0.090000        1.0080           0
    4856 A    607  ETH  H6   HGA30    0.090000        1.0080           0
    4857 A    608  ETH  C1   CG3310   -0.270000       12.0110           0
    4858 A    608  ETH  C2   CG3310   -0.270000       12.0110           0
    4859 A    608  ETH  H1   HGA30    0.090000        1.0080           0
    4860 A    608  ETH  H2   HGA30    0.090000        1.0080           0
    4861 A    608  ETH  H3   HGA30    0.090000        1.0080           0
    4862 A    608  ETH  H4   HGA30    0.090000        1.0080           0
    4863 A    608  ETH  H5   HGA30    0.090000        1.0080           0
    4864 A    608  ETH  H6   HGA30    0.090000        1.0080           0
    4865 A    609  ETH  C1   CG3310   -0.270000       12.0110           0
    4866 A    609  ETH  C2   CG3310   -0.270000       12.0110           0
    4867 A    609  ETH  H1   HGA30    0.090000        1.0080           0
    4868 A    609  ETH  H2   HGA30    0.090000        1.0080           0
    4869 A    609  ETH  H3   HGA30    0.090000        1.0080           0
    4870 A    609  ETH  H4   HGA30    0.090000        1.0080           0
    4871 A    609  ETH  H5   HGA30    0.090000        1.0080           0
    4872 A    609  ETH  H6   HGA30    0.090000        1.0080           0
    4873 A    610  ETH  C1   CG3310   -0.270000       12.0110           0
    4874 A    610  ETH  C2   CG3310   -0.270000       12.0110           0
    4875 A    610  ETH  H1   HGA30    0.090000        1.0080           0
    4876 A    610  ETH  H2   HGA30    0.090000        1.0080           0
    4877 A    610  ETH  H3   HGA30    0.090000        1.0080           0
    4878 A    610  ETH  H4   HGA30    0.090000        1.0080           0
    4879 A    610  ETH  H5   HGA30    0.090000        1.0080           0
    4880 A    610  ETH  H6   HGA30    0.090000        1.0080           0
    4881 A    611  ETH  C1   CG3310   -0.270000       12.0110           0
    4882 A    611  ETH  C2   CG3310   -0.270000       12.0110           0
    4883 A    611  ETH  H1   HGA30    0.090000        1.0080           0
    4884 A    611  ETH  H2   HGA30    0.090000        1.0080           0
    4885 A    611  ETH  H3   HGA30    0.090000        1.0080           0
    4886 A    611  ETH  H4   HGA30    0.090000        1.0080           0
    4887 A    611  ETH  H5   HGA30    0.090000        1.0080           0
    4888 A    611  ETH  H6   HGA30    0.090000        1.0080           0
    4889 A    612  ETH  C1   CG3310   -0.270000       12.0110           0
    4890 A    612  ETH  C2   CG3310   -0.270000       12.0110           0
    4891 A    612  ETH  H1   HGA30    0.090000        1.0080           0
    4892 A    612  ETH  H2   HGA30    0.090000        1.0080           0
    4893 A    612  ETH  H3   HGA30    0.090000        1.0080           0
    4894 A    612  ETH  H4   HGA30    0.090000        1.0080           0
    4895 A    612  ETH  H5   HGA30    0.090000        1.0080           0
    4896 A    612  ETH  H6   HGA30    0.090000        1.0080           0
    4897 A    613  ETH  C1   CG3310   -0.270000       12.0110           0
    4898 A    613  ETH  C2   CG3310   -0.270000       12.0110           0
    4899 A    613  ETH  H1   HGA30    0.090000        1.0080           0
    4900 A    613  ETH  H2   HGA30    0.090000        1.0080           0
    4901 A    613  ETH  H3   HGA30    0.090000        1.0080           0
    4902 A    613  ETH  H4   HGA30    0.090000        1.0080           0
    4903 A    613  ETH  H5   HGA30    0.090000        1.0080           0
    4904 A    613  ETH  H6   HGA30    0.090000        1.0080           0
    4905 A    614  ETH  C1   CG3310   -0.270000       12.0110           0
    4906 A    614  ETH  C2   CG3310   -0.270000       12.0110           0
    4907 A    614  ETH  H1   HGA30    0.090000        1.0080           0
    4908 A    614  ETH  H2   HGA30    0.090000        1.0080           0
    4909 A    614  ETH  H3   HGA30    0.090000        1.0080           0
    4910 A    614  ETH  H4   HGA30    0.090000        1.0080           0
    4911 A    614  ETH  H5   HGA30    0.090000        1.0080           0
    4912 A    614  ETH  H6   HGA30    0.090000        1.0080           0
    4913 A    615  ETH  C1   CG3310   -0.270000       12.0110           0
    4914 A    615  ETH  C2   CG3310   -0.270000       12.0110           0
    4915 A    615  ETH  H1   HGA30    0.090000        1.0080           0
    4916 A    615  ETH  H2   HGA30    0.090000        1.0080           0
    4917 A    615  ETH  H3   HGA30    0.090000        1.0080           0
    4918 A    615  ETH  H4   HGA30    0.090000        1.0080           0
    4919 A    615  ETH  H5   HGA30    0.090000        1.0080           0
    4920 A    615  ETH  H6   HGA30    0.090000        1.0080           0
    4921 A    616  ETH  C1   CG3310   -0.270000       12.0110           0
    4922 A    616  ETH  C2   CG3310   -0.270000       12.0110           0
    4923 A    616  ETH  H1   HGA30    0.090000        1.0080           0
    4924 A    616  ETH  H2   HGA30    0.090000        1.0080           0
    4925 A    616  ETH  H3   HGA30    0.090000        1.0080           0
    4926 A    616  ETH  H4   HGA30    0.090000        1.0080           0
    4927 A    616  ETH  H5   HGA30    0.090000        1.0080           0
    4928 A    616  ETH  H6   HGA30    0.090000        1.0080           0
    4929 A    617  ETH  C1   CG3310   -0.270000       12.0110           0
    4930 A    617  ETH  C2   CG3310   -0.270000       12.0110           0
    4931 A    617  ETH  H1   HGA30    0.090000        1.0080           0
    4932 A    617  ETH  H2   HGA30    0.090000        1.0080           0
    4933 A    617  ETH  H3   HGA30    0.090000        1.0080           0
    4934 A    617  ETH  H4   HGA30    0.090000        1.0080           0
    4935 A    617  ETH  H5   HGA30    0.090000        1.0080           0
    4936 A    617  ETH  H6   HGA30    0.090000        1.0080           0
    4937 A    618  ETH  C1   CG3310   -0.270000       12.0110           0
    4938 A    618  ETH  C2   CG3310   -0.270000       12.0110           0
    4939 A    618  ETH  H1   HGA30    0.090000        1.0080           0
    4940 A    618  ETH  H2   HGA30    0.090000        1.0080           0
    4941 A    618  ETH  H3   HGA30    0.090000        1.0080           0
    4942 A    618  ETH  H4   HGA30    0.090000        1.0080           0
    4943 A    618  ETH  H5   HGA30    0.090000        1.0080           0
    4944 A    618  ETH  H6   HGA30    0.090000        1.0080           0
    4945 A    619  ETH  C1   CG3310   -0.270000       12.0110           0
    4946 A    619  ETH  C2   CG3310   -0.270000       12.0110           0
    4947 A    619  ETH  H1   HGA30    0.090000        1.0080           0
    4948 A    619  ETH  H2   HGA30    0.090000        1.0080           0
    4949 A    619  ETH  H3   HGA30    0.090000        1.0080           0
    4950 A    619  ETH  H4   HGA30    0.090000        1.0080           0
    4951 A    619  ETH  H5   HGA30    0.090000        1.0080           0
    4952 A    619  ETH  H6   HGA30    0.090000        1.0080           0
    4953 A    620  ETH  C1   CG3310   -0.270000       12.0110           0
    4954 A    620  ETH  C2   CG3310   -0.270000       12.0110           0
    4955 A    620  ETH  H1   HGA30    0.090000        1.0080           0
    4956 A    620  ETH  H2   HGA30    0.090000        1.0080           0
    4957 A    620  ETH  H3   HGA30    0.090000        1.0080           0
    4958 A    620  ETH  H4   HGA30    0.090000        1.0080           0
    4959 A    620  ETH  H5   HGA30    0.090000        1.0080           0
    4960 A    620  ETH  H6   HGA30    0.090000        1.0080           0
    4961 A    621  ETH  C1   CG3310   -0.270000       12.0110           0
    4962 A    621  ETH  C2   CG3310   -0.270000       12.0110           0
    4963 A    621  ETH  H1   HGA30    0.090000        1.0080           0
    4964 A    621  ETH  H2   HGA30    0.090000        1.0080           0
    4965 A    621  ETH  H3   HGA30    0.090000        1.0080           0
    4966 A    621  ETH  H4   HGA30    0.090000        1.0080           0
    4967 A    621  ETH  H5   HGA30    0.090000        1.0080           0
    4968 A    621  ETH  H6   HGA30    0.090000        1.0080           0
    4969 A    622  ETH  C1   CG3310   -0.270000       12.0110           0
    4970 A    622  ETH  C2   CG3310   -0.270000       12.0110           0
    4971 A    622  ETH  H1   HGA30    0.090000        1.0080           0
    4972 A    622  ETH  H2   HGA30    0.090000        1.0080           0
    4973 A    622  ETH  H3   HGA30    0.090000        1.0080           0
    4974 A    622  ETH  H4   HGA30    0.090000        1.0080           0
    4975 A    622  ETH  H5   HGA30    0.090000        1.0080           0
    4976 A    622  ETH  H6   HGA30    0.090000        1.0080           0
    4977 A    623  ETH  C1   CG3310   -0.270000       12.0110           0
    4978 A    623  ETH  C2   CG3310   -0.270000       12.0110           0
    4979 A    623  ETH  H1   HGA30    0.090000        1.0080           0
    4980 A    623  ETH  H2   HGA30    0.090000        1.0080           0
    4981 A    623  ETH  H3   HGA30    0.090000        1.0080           0
    4982 A    623  ETH  H4   HGA30    0.090000        1.0080           0
    4983 A    623  ETH  H5   HGA30    0.090000        1.0080           0
    4984 A    623  ETH  H6   HGA30    0.090000        1.0080           0
    4985 A    624  ETH  C1   CG3310   -0.270000       12.0110           0
    4986 A    624  ETH  C2   CG3310   -0.270000       12.0110           0
    4987 A    624  ETH  H1   HGA30    0.090000        1.0080           0
    4988 A    624  ETH  H2   HGA30    0.090000        1.0080           0
    4989 A    624  ETH  H3   HGA30    0.090000        1.0080           0
    4990 A    624  ETH  H4   HGA30    0.090000        1.0080           0
    4991 A    624  ETH  H5   HGA30    0.090000        1.0080           0
    4992 A    624  ETH  H6   HGA30    0.090000        1.0080           0
    4993 A    625  ETH  C1   CG3310   -0.270000       12.0110           0
    4994 A    625  ETH  C2   CG3310   -0.270000       12.0110           0
    4995 A    625  ETH  H1   HGA30    0.090000        1.0080           0
    4996 A    625  ETH  H2   HGA30    0.090000        1.0080           0
    4997 A    625  ETH  H3   HGA30    0.090000        1.0080           0
    4998 A    625  ETH  H4   HGA30    0.090000        1.0080           0
    4999 A    625  ETH  H5   HGA30    0.090000        1.0080           0
    5000 A    625  ETH  H6   HGA30    0.090000        1.0080           0
    5001 A    626  ETH  C1   CG3310   -0.270000       12.0110           0
    5002 A    626  ETH  C2   CG3310   -0.270000       12.0110           0
    5003 A    626  ETH  H1   HGA30    0.090000        1.0080           0
    5004 A    626  ETH  H2   HGA30    0.090000        1.0080           0
    5005 A    626  ETH  H3   HGA30    0.090000        1.0080           0
    5006 A    626  ETH  H4   HGA30    0.090000        1.0080           0
    5007 A    626  ETH  H5   HGA30    0.090000        1.0080           0
    5008 A    626  ETH  H6   HGA30    0.090000        1.0080           0
    5009 A    627  ETH  C1   CG3310   -0.270000       12.0110           0
    5010 A    627  ETH  C2   CG3310   -0.270000       12.0110           0
    5011 A    627  ETH  H1   HGA30    0.090000        1.0080           0
    5012 A    627  ETH  H2   HGA30    0.090000        1.0080           0
    5013 A    627  ETH  H3   HGA30    0.090000        1.0080           0
    5014 A    627  ETH  H4   HGA30    0.090000        1.0080           0
    5015 A    627  ETH  H5   HGA30    0.090000        1.0080           0
    5016 A    627  ETH  H6   HGA30    0.090000        1.0080           0
    5017 A    628  ETH  C1   CG3310   -0.270000       12.0110           0
    5018 A    628  ETH  C2   CG3310   -0.270000       12.0110           0
    5019 A    628  ETH  H1   HGA30    0.090000        1.0080           0
    5020 A    628  ETH  H2   HGA30    0.090000        1.0080           0
    5021 A    628  ETH  H3   HGA30    0.090000        1.0080           0
    5022 A    628  ETH  H4   HGA30    0.090000        1.0080           0
    5023 A    628  ETH  H5   HGA30    0.090000        1.0080           0
    5024 A    628  ETH  H6   HGA30    0.090000        1.0080           0
    5025 A    629  ETH  C1   CG3310   -0.270000       12.0110           0
    5026 A    629  ETH  C2   CG3310   -0.270000       12.0110           0
    5027 A    629  ETH  H1   HGA30    0.090000        1.0080           0
    5028 A    629  ETH  H2   HGA30    0.090000        1.0080           0
    5029 A    629  ETH  H3   HGA30    0.090000        1.0080           0
    5030 A    629  ETH  H4   HGA30    0.090000        1.0080           0
    5031 A    629  ETH  H5   HGA30    0.090000        1.0080           0
    5032 A    629  ETH  H6   HGA30    0.090000        1.0080           0
    5033 A    630  ETH  C1   CG3310   -0.270000       12.0110           0
    5034 A    630  ETH  C2   CG3310   -0.270000       12.0110           0
    5035 A    630  ETH  H1   HGA30    0.090000        1.0080           0
    5036 A    630  ETH  H2   HGA30    0.090000        1.0080           0
    5037 A    630  ETH  H3   HGA30    0.090000        1.0080           0
    5038 A    630  ETH  H4   HGA30    0.090000        1.0080           0
    5039 A    630  ETH  H5   HGA30    0.090000        1.0080           0
    5040 A    630  ETH  H6   HGA30    0.090000        1.0080           0
    5041 A    631  ETH  C1   CG3310   -0.270000       12.0110           0
    5042 A    631  ETH  C2   CG3310   -0.270000       12.0110           0
    5043 A    631  ETH  H1   HGA30    0.090000        1.0080           0
    5044 A    631  ETH  H2   HGA30    0.090000        1.0080           0
    5045 A    631  ETH  H3   HGA30    0.090000        1.0080           0
    5046 A    631  ETH  H4   HGA30    0.090000        1.0080           0
    5047 A    631  ETH  H5   HGA30    0.090000        1.0080           0
    5048 A    631  ETH  H6   HGA30    0.090000        1.0080           0
    5049 A    632  ETH  C1   CG3310   -0.270000       12.0110           0
    5050 A    632  ETH  C2   CG3310   -0.270000       12.0110           0
    5051 A    632  ETH  H1   HGA30    0.090000        1.0080           0
    5052 A    632  ETH  H2   HGA30    0.090000        1.0080           0
    5053 A    632  ETH  H3   HGA30    0.090000        1.0080           0
    5054 A    632  ETH  H4   HGA30    0.090000        1.0080           0
    5055 A    632  ETH  H5   HGA30    0.090000        1.0080           0
    5056 A    632  ETH  H6   HGA30    0.090000        1.0080           0
    5057 A    633  ETH  C1   CG3310   -0.270000       12.0110           0
    5058 A    633  ETH  C2   CG3310   -0.270000       12.0110           0
    5059 A    633  ETH  H1   HGA30    0.090000        1.0080           0
    5060 A    633  ETH  H2   HGA30    0.090000        1.0080           0
    5061 A    633  ETH  H3   HGA30    0.090000        1.0080           0
    5062 A    633  ETH  H4   HGA30    0.090000        1.0080           0
    5063 A    633  ETH  H5   HGA30    0.090000        1.0080           0
    5064 A    633  ETH  H6   HGA30    0.090000        1.0080           0
    5065 A    634  ETH  C1   CG3310   -0.270000       12.0110           0
    5066 A    634  ETH  C2   CG3310   -0.270000       12.0110           0
    5067 A    634  ETH  H1   HGA30    0.090000        1.0080           0
    5068 A    634  ETH  H2   HGA30    0.090000        1.0080           0
    5069 A    634  ETH  H3   HGA30    0.090000        1.0080           0
    5070 A    634  ETH  H4   HGA30    0.090000        1.0080           0
    5071 A    634  ETH  H5   HGA30    0.090000        1.0080           0
    5072 A    634  ETH  H6   HGA30    0.090000        1.0080           0
    5073 A    635  ETH  C1   CG3310   -0.270000       12.0110           0
    5074 A    635  ETH  C2   CG3310   -0.270000       12.0110           0
    5075 A    635  ETH  H1   HGA30    0.090000        1.0080           0
    5076 A    635  ETH  H2   HGA30    0.090000        1.0080           0
    5077 A    635  ETH  H3   HGA30    0.090000        1.0080           0
    5078 A    635  ETH  H4   HGA30    0.090000        1.0080           0
    5079 A    635  ETH  H5   HGA30    0.090000        1.0080           0
    5080 A    635  ETH  H6   HGA30    0.090000        1.0080           0
    5081 A    636  ETH  C1   CG3310   -0.270000       12.0110           0
    5082 A    636  ETH  C2   CG3310   -0.270000       12.0110           0
    5083 A    636  ETH  H1   HGA30    0.090000        1.0080           0
    5084 A    636  ETH  H2   HGA30    0.090000        1.0080           0
    5085 A    636  ETH  H3   HGA30    0.090000        1.0080           0
    5086 A    636  ETH  H4   HGA30    0.090000        1.0080           0
    5087 A    636  ETH  H5   HGA30    0.090000        1.0080           0
    5088 A    636  ETH  H6   HGA30    0.090000        1.0080           0
    5089 A    637  ETH  C1   CG3310   -0.270000       12.0110           0
    5090 A    637  ETH  C2   CG3310   -0.270000       12.0110           0
    5091 A    637  ETH  H1   HGA30    0.090000        1.0080           0
    5092 A    637  ETH  H2   HGA30    0.090000        1.0080           0
    5093 A    637  ETH  H3   HGA30    0.090000        1.0080           0
    5094 A    637  ETH  H4   HGA30    0.090000        1.0080           0
    5095 A    637  ETH  H5   HGA30    0.090000        1.0080           0
    5096 A    637  ETH  H6   HGA30    0.090000        1.0080           0
    5097 A    638  ETH  C1   CG3310   -0.270000       12.0110           0
    5098 A    638  ETH  C2   CG3310   -0.270000       12.0110           0
    5099 A    638  ETH  H1   HGA30    0.090000        1.0080           0
    5100 A    638  ETH  H2   HGA30    0.090000        1.0080           0
    5101 A    638  ETH  H3   HGA30    0.090000        1.0080           0
    5102 A    638  ETH  H4   HGA30    0.090000        1.0080           0
    5103 A    638  ETH  H5   HGA30    0.090000        1.0080           0
    5104 A    638  ETH  H6   HGA30    0.090000        1.0080           0
    5105 A    639  ETH  C1   CG3310   -0.270000       12.0110           0
    5106 A    639  ETH  C2   CG3310   -0.270000       12.0110           0
    5107 A    639  ETH  H1   HGA30    0.090000        1.0080           0
    5108 A    639  ETH  H2   HGA30    0.090000        1.0080           0
    5109 A    639  ETH  H3   HGA30    0.090000        1.0080           0
    5110 A    639  ETH  H4   HGA30    0.090000        1.0080           0
    5111 A    639  ETH  H5   HGA30    0.090000        1.0080           0
    5112 A    639  ETH  H6   HGA30    0.090000        1.0080           0
    5113 A    640  ETH  C1   CG3310   -0.270000       12.0110           0
    5114 A    640  ETH  C2   CG3310   -0.270000       12.0110           0
    5115 A    640  ETH  H1   HGA30    0.090000        1.0080           0
    5116 A    640  ETH  H2   HGA30    0.090000        1.0080           0
    5117 A    640  ETH  H3   HGA30    0.090000        1.0080           0
    5118 A    640  ETH  H4   HGA30    0.090000        1.0080           0
    5119 A    640  ETH  H5   HGA30    0.090000        1.0080           0
    5120 A    640  ETH  H6   HGA30    0.090000        1.0080           0
    5121 A    641  ETH  C1   CG3310   -0.270000       12.0110           0
    5122 A    641  ETH  C2   CG3310   -0.270000       12.0110           0
    5123 A    641  ETH  H1   HGA30    0.090000        1.0080           0
    5124 A    641  ETH  H2   HGA30    0.090000        1.0080           0
    5125 A    641  ETH  H3   HGA30    0.090000        1.0080           0
    5126 A    641  ETH  H4   HGA30    0.090000        1.0080           0
    5127 A    641  ETH  H5   HGA30    0.090000        1.0080           0
    5128 A    641  ETH  H6   HGA30    0.090000        1.0080           0
    5129 A    642  ETH  C1   CG3310   -0.270000       12.0110           0
    5130 A    642  ETH  C2   CG3310   -0.270000       12.0110           0
    5131 A    642  ETH  H1   HGA30    0.090000        1.0080           0
    5132 A    642  ETH  H2   HGA30    0.090000        1.0080           0
    5133 A    642  ETH  H3   HGA30    0.090000        1.0080           0
    5134 A    642  ETH  H4   HGA30    0.090000        1.0080           0
    5135 A    642  ETH  H5   HGA30    0.090000        1.0080           0
    5136 A    642  ETH  H6   HGA30    0.090000        1.0080           0
    5137 A    643  ETH  C1   CG3310   -0.270000       12.0110           0
    5138 A    643  ETH  C2   CG3310   -0.270000       12.0110           0
    5139 A    643  ETH  H1   HGA30    0.090000        1.0080           0
    5140 A    643  ETH  H2   HGA30    0.090000        1.0080           0
    5141 A    643  ETH  H3   HGA30    0.090000        1.0080           0
    5142 A    643  ETH  H4   HGA30    0.090000        1.0080           0
    5143 A    643  ETH  H5   HGA30    0.090000        1.0080           0
    5144 A    643  ETH  H6   HGA30    0.090000        1.0080           0
    5145 A    644  ETH  C1   CG3310   -0.270000       12.0110           0
    5146 A    644  ETH  C2   CG3310   -0.270000       12.0110           0
    5147 A    644  ETH  H1   HGA30    0.090000        1.0080           0
    5148 A    644  ETH  H2   HGA30    0.090000        1.0080           0
    5149 A    644  ETH  H3   HGA30    0.090000        1.0080           0
    5150 A    644  ETH  H4   HGA30    0.090000        1.0080           0
    5151 A    644  ETH  H5   HGA30    0.090000        1.0080           0
    5152 A    644  ETH  H6   HGA30    0.090000        1.0080           0
    5153 A    645  ETH  C1   CG3310   -0.270000       12.0110           0
    5154 A    645  ETH  C2   CG3310   -0.270000       12.0110           0
    5155 A    645  ETH  H1   HGA30    0.090000        1.0080           0
    5156 A    645  ETH  H2   HGA30    0.090000        1.0080           0
    5157 A    645  ETH  H3   HGA30    0.090000        1.0080           0
    5158 A    645  ETH  H4   HGA30    0.090000        1.0080           0
    5159 A    645  ETH  H5   HGA30    0.090000        1.0080           0
    5160 A    645  ETH  H6   HGA30    0.090000        1.0080           0
    5161 A    646  ETH  C1   CG3310   -0.270000       12.0110           0
    5162 A    646  ETH  C2   CG3310   -0.270000       12.0110           0
    5163 A    646  ETH  H1   HGA30    0.090000        1.0080           0
    5164 A    646  ETH  H2   HGA30    0.090000        1.0080           0
    5165 A    646  ETH  H3   HGA30    0.090000        1.0080           0
    5166 A    646  ETH  H4   HGA30    0.090000        1.0080           0
    5167 A    646  ETH  H5   HGA30    0.090000        1.0080           0
    5168 A    646  ETH  H6   HGA30    0.090000        1.0080           0
    5169 A    647  ETH  C1   CG3310   -0.270000       12.0110           0
    5170 A    647  ETH  C2   CG3310   -0.270000       12.0110           0
    5171 A    647  ETH  H1   HGA30    0.090000        1.0080           0
    5172 A    647  ETH  H2   HGA30    0.090000        1.0080           0
    5173 A    647  ETH  H3   HGA30    0.090000        1.0080           0
    5174 A    647  ETH  H4   HGA30    0.090000        1.0080           0
    5175 A    647  ETH  H5   HGA30    0.090000        1.0080           0
    5176 A    647  ETH  H6   HGA30    0.090000        1.0080           0
    5177 A    648  ETH  C1   CG3310   -0.270000       12.0110           0
    5178 A    648  ETH  C2   CG3310   -0.270000       12.0110           0
    5179 A    648  ETH  H1   HGA30    0.090000        1.0080           0
    5180 A    648  ETH  H2   HGA30    0.090000        1.0080           0
    5181 A    648  ETH  H3   HGA30    0.090000        1.0080           0
    5182 A    648  ETH  H4   HGA30    0.090000        1.0080           0
    5183 A    648  ETH  H5   HGA30    0.090000        1.0080           0
    5184 A    648  ETH  H6   HGA30    0.090000        1.0080           0
    5185 A    649  ETH  C1   CG3310   -0.270000       12.0110           0
    5186 A    649  ETH  C2   CG3310   -0.270000       12.0110           0
    5187 A    649  ETH  H1   HGA30    0.090000        1.0080           0
    5188 A    649  ETH  H2   HGA30    0.090000        1.0080           0
    5189 A    649  ETH  H3   HGA30    0.090000        1.0080           0
    5190 A    649  ETH  H4   HGA30    0.090000        1.0080           0
    5191 A    649  ETH  H5   HGA30    0.090000        1.0080           0
    5192 A    649  ETH  H6   HGA30    0.090000        1.0080           0
    5193 A    650  ETH  C1   CG3310   -0.270000       12.0110           0
    5194 A    650  ETH  C2   CG3310   -0.270000       12.0110           0
    5195 A    650  ETH  H1   HGA30    0.090000        1.0080           0
    5196 A    650  ETH  H2   HGA30    0.090000        1.0080           0
    5197 A    650  ETH  H3   HGA30    0.090000        1.0080           0
    5198 A    650  ETH  H4   HGA30    0.090000        1.0080           0
    5199 A    650  ETH  H5   HGA30    0.090000        1.0080           0
    5200 A    650  ETH  H6   HGA30    0.090000        1.0080           0
    5201 A    651  ETH  C1   CG3310   -0.270000       12.0110           0
    5202 A    651  ETH  C2   CG3310   -0.270000       12.0110           0
    5203 A    651  ETH  H1   HGA30    0.090000        1.0080           0
    5204 A    651  ETH  H2   HGA30    0.090000        1.0080           0
    5205 A    651  ETH  H3   HGA30    0.090000        1.0080           0
    5206 A    651  ETH  H4   HGA30    0.090000        1.0080           0
    5207 A    651  ETH  H5   HGA30    0.090000        1.0080           0
    5208 A    651  ETH  H6   HGA30    0.090000        1.0080           0
    5209 A    652  ETH  C1   CG3310   -0.270000       12.0110           0
    5210 A    652  ETH  C2   CG3310   -0.270000       12.0110           0
    5211 A    652  ETH  H1   HGA30    0.090000        1.0080           0
    5212 A    652  ETH  H2   HGA30    0.090000        1.0080           0
    5213 A    652  ETH  H3   HGA30    0.090000        1.0080           0
    5214 A    652  ETH  H4   HGA30    0.090000        1.0080           0
    5215 A    652  ETH  H5   HGA30    0.090000        1.0080           0
    5216 A    652  ETH  H6   HGA30    0.090000        1.0080           0
    5217 A    653  ETH  C1   CG3310   -0.270000       12.0110           0
    5218 A    653  ETH  C2   CG3310   -0.270000       12.0110           0
    5219 A    653  ETH  H1   HGA30    0.090000        1.0080           0
    5220 A    653  ETH  H2   HGA30    0.090000        1.0080           0
    5221 A    653  ETH  H3   HGA30    0.090000        1.0080           0
    5222 A    653  ETH  H4   HGA30    0.090000        1.0080           0
    5223 A    653  ETH  H5   HGA30    0.090000        1.0080           0
    5224 A    653  ETH  H6   HGA30    0.090000        1.0080           0
    5225 A    654  ETH  C1   CG3310   -0.270000       12.0110           0
    5226 A    654  ETH  C2   CG3310   -0.270000       12.0110           0
    5227 A    654  ETH  H1   HGA30    0.090000        1.0080           0
    5228 A    654  ETH  H2   HGA30    0.090000        1.0080           0
    5229 A    654  ETH  H3   HGA30    0.090000        1.0080           0
    5230 A    654  ETH  H4   HGA30    0.090000        1.0080           0
    5231 A    654  ETH  H5   HGA30    0.090000        1.0080           0
    5232 A    654  ETH  H6   HGA30    0.090000        1.0080           0
    5233 A    655  ETH  C1   CG3310   -0.270000       12.0110           0
    5234 A    655  ETH  C2   CG3310   -0.270000       12.0110           0
    5235 A    655  ETH  H1   HGA30    0.090000        1.0080           0
    5236 A    655  ETH  H2   HGA30    0.090000        1.0080           0
    5237 A    655  ETH  H3   HGA30    0.090000        1.0080           0
    5238 A    655  ETH  H4   HGA30    0.090000        1.0080           0
    5239 A    655  ETH  H5   HGA30    0.090000        1.0080           0
    5240 A    655  ETH  H6   HGA30    0.090000        1.0080           0
    5241 A    656  ETH  C1   CG3310   -0.270000       12.0110           0
    5242 A    656  ETH  C2   CG3310   -0.270000       12.0110           0
    5243 A    656  ETH  H1   HGA30    0.090000        1.0080           0
    5244 A    656  ETH  H2   HGA30    0.090000        1.0080           0
    5245 A    656  ETH  H3   HGA30    0.090000        1.0080           0
    5246 A    656  ETH  H4   HGA30    0.090000        1.0080           0
    5247 A    656  ETH  H5   HGA30    0.090000        1.0080           0
    5248 A    656  ETH  H6   HGA30    0.090000        1.0080           0
    5249 A    657  ETH  C1   CG3310   -0.270000       12.0110           0
    5250 A    657  ETH  C2   CG3310   -0.270000       12.0110           0
    5251 A    657  ETH  H1   HGA30    0.090000        1.0080           0
    5252 A    657  ETH  H2   HGA30    0.090000        1.0080           0
    5253 A    657  ETH  H3   HGA30    0.090000        1.0080           0
    5254 A    657  ETH  H4   HGA30    0.090000        1.0080           0
    5255 A    657  ETH  H5   HGA30    0.090000        1.0080           0
    5256 A    657  ETH  H6   HGA30    0.090000        1.0080           0
    5257 A    658  ETH  C1   CG3310   -0.270000       12.0110           0
    5258 A    658  ETH  C2   CG3310   -0.270000       12.0110           0
    5259 A    658  ETH  H1   HGA30    0.090000        1.0080           0
    5260 A    658  ETH  H2   HGA30    0.090000        1.0080           0
    5261 A    658  ETH  H3   HGA30    0.090000        1.0080           0
    5262 A    658  ETH  H4   HGA30    0.090000        1.0080           0
    5263 A    658  ETH  H5   HGA30    0.090000        1.0080           0
    5264 A    658  ETH  H6   HGA30    0.090000        1.0080           0
    5265 A    659  ETH  C1   CG3310   -0.270000       12.0110           0
    5266 A    659  ETH  C2   CG3310   -0.270000       12.0110           0
    5267 A    659  ETH  H1   HGA30    0.090000        1.0080           0
    5268 A    659  ETH  H2   HGA30    0.090000        1.0080           0
    5269 A    659  ETH  H3   HGA30    0.090000        1.0080           0
    5270 A    659  ETH  H4   HGA30    0.090000        1.0080           0
    5271 A    659  ETH  H5   HGA30    0.090000        1.0080           0
    5272 A    659  ETH  H6   HGA30    0.090000        1.0080           0
    5273 A    660  ETH  C1   CG3310   -0.270000       12.0110           0
    5274 A    660  ETH  C2   CG3310   -0.270000       12.0110           0
    5275 A    660  ETH  H1   HGA30    0.090000        1.0080           0
    5276 A    660  ETH  H2   HGA30    0.090000        1.0080           0
    5277 A    660  ETH  H3   HGA30    0.090000        1.0080           0
    5278 A    660  ETH  H4   HGA30    0.090000        1.0080           0
    5279 A    660  ETH  H5   HGA30    0.090000        1.0080           0
    5280 A    660  ETH  H6   HGA30    0.090000        1.0080           0
    5281 A    661  ETH  C1   CG3310   -0.270000       12.0110           0
    5282 A    661  ETH  C2   CG3310   -0.270000       12.0110           0
    5283 A    661  ETH  H1   HGA30    0.090000        1.0080           0
    5284 A    661  ETH  H2   HGA30    0.090000        1.0080           0
    5285 A    661  ETH  H3   HGA30    0.090000        1.0080           0
    5286 A    661  ETH  H4   HGA30    0.090000        1.0080           0
    5287 A    661  ETH  H5   HGA30    0.090000        1.0080           0
    5288 A    661  ETH  H6   HGA30    0.090000        1.0080           0
    5289 A    662  ETH  C1   CG3310   -0.270000       12.0110           0
    5290 A    662  ETH  C2   CG3310   -0.270000       12.0110           0
    5291 A    662  ETH  H1   HGA30    0.090000        1.0080           0
    5292 A    662  ETH  H2   HGA30    0.090000        1.0080           0
    5293 A    662  ETH  H3   HGA30    0.090000        1.0080           0
    5294 A    662  ETH  H4   HGA30    0.090000        1.0080           0
    5295 A    662  ETH  H5   HGA30    0.090000        1.0080           0
    5296 A    662  ETH  H6   HGA30    0.090000        1.0080           0
    5297 A    663  ETH  C1   CG3310   -0.270000       12.0110           0
    5298 A    663  ETH  C2   CG3310   -0.270000       12.0110           0
    5299 A    663  ETH  H1   HGA30    0.090000        1.0080           0
    5300 A    663  ETH  H2   HGA30    0.090000        1.0080           0
    5301 A    663  ETH  H3   HGA30    0.090000        1.0080           0
    5302 A    663  ETH  H4   HGA30    0.090000        1.0080           0
    5303 A    663  ETH  H5   HGA30    0.090000        1.0080           0
    5304 A    663  ETH  H6   HGA30    0.090000        1.0080           0
    5305 A    664  ETH  C1   CG3310   -0.270000       12.0110           0
    5306 A    664  ETH  C2   CG3310   -0.270000       12.0110           0
    5307 A    664  ETH  H1   HGA30    0.090000        1.0080           0
    5308 A    664  ETH  H2   HGA30    0.090000        1.0080           0
    5309 A    664  ETH  H3   HGA30    0.090000        1.0080           0
    5310 A    664  ETH  H4   HGA30    0.090000        1.0080           0
    5311 A    664  ETH  H5   HGA30    0.090000        1.0080           0
    5312 A    664  ETH  H6   HGA30    0.090000        1.0080           0
    5313 A    665  ETH  C1   CG3310   -0.270000       12.0110           0
    5314 A    665  ETH  C2   CG3310   -0.270000       12.0110           0
    5315 A    665  ETH  H1   HGA30    0.090000        1.0080           0
    5316 A    665  ETH  H2   HGA30    0.090000        1.0080           0
    5317 A    665  ETH  H3   HGA30    0.090000        1.0080           0
    5318 A    665  ETH  H4   HGA30    0.090000        1.0080           0
    5319 A    665  ETH  H5   HGA30    0.090000        1.0080           0
    5320 A    665  ETH  H6   HGA30    0.090000        1.0080           0
    5321 A    666  ETH  C1   CG3310   -0.270000       12.0110           0
    5322 A    666  ETH  C2   CG3310   -0.270000       12.0110           0
    5323 A    666  ETH  H1   HGA30    0.090000        1.0080           0
    5324 A    666  ETH  H2   HGA30    0.090000        1.0080           0
    5325 A    666  ETH  H3   HGA30    0.090000        1.0080           0
    5326 A    666  ETH  H4   HGA30    0.090000        1.0080           0
    5327 A    666  ETH  H5   HGA30    0.090000        1.0080           0
    5328 A    666  ETH  H6   HGA30    0.090000        1.0080           0
    5329 A    667  ETH  C1   CG3310   -0.270000       12.0110           0
    5330 A    667  ETH  C2   CG3310   -0.270000       12.0110           0
    5331 A    667  ETH  H1   HGA30    0.090000        1.0080           0
    5332 A    667  ETH  H2   HGA30    0.090000        1.0080           0
    5333 A    667  ETH  H3   HGA30    0.090000        1.0080           0
    5334 A    667  ETH  H4   HGA30    0.090000        1.0080           0
    5335 A    667  ETH  H5   HGA30    0.090000        1.0080           0
    5336 A    667  ETH  H6   HGA30    0.090000        1.0080           0
    5337 A    668  ETH  C1   CG3310   -0.270000       12.0110           0
    5338 A    668  ETH  C2   CG3310   -0.270000       12.0110           0
    5339 A    668  ETH  H1   HGA30    0.090000        1.0080           0
    5340 A    668  ETH  H2   HGA30    0.090000        1.0080           0
    5341 A    668  ETH  H3   HGA30    0.090000        1.0080           0
    5342 A    668  ETH  H4   HGA30    0.090000        1.0080           0
    5343 A    668  ETH  H5   HGA30    0.090000        1.0080           0
    5344 A    668  ETH  H6   HGA30    0.090000        1.0080           0
    5345 A    669  ETH  C1   CG3310   -0.270000       12.0110           0
    5346 A    669  ETH  C2   CG3310   -0.270000       12.0110           0
    5347 A    669  ETH  H1   HGA30    0.090000        1.0080           0
    5348 A    669  ETH  H2   HGA30    0.090000        1.0080           0
    5349 A    669  ETH  H3   HGA30    0.090000        1.0080           0
    5350 A    669  ETH  H4   HGA30    0.090000        1.0080           0
    5351 A    669  ETH  H5   HGA30    0.090000        1.0080           0
    5352 A    669  ETH  H6   HGA30    0.090000        1.0080           0
    5353 A    670  ETH  C1   CG3310   -0.270000       12.0110           0
    5354 A    670  ETH  C2   CG3310   -0.270000       12.0110           0
    5355 A    670  ETH  H1   HGA30    0.090000        1.0080           0
    5356 A    670  ETH  H2   HGA30    0.090000        1.0080           0
    5357 A    670  ETH  H3   HGA30    0.090000        1.0080           0
    5358 A    670  ETH  H4   HGA30    0.090000        1.0080           0
    5359 A    670  ETH  H5   HGA30    0.090000        1.0080           0
    5360 A    670  ETH  H6   HGA30    0.090000        1.0080           0
    5361 A    671  ETH  C1   CG3310   -0.270000       12.0110           0
    5362 A    671  ETH  C2   CG3310   -0.270000       12.0110           0
    5363 A    671  ETH  H1   HGA30    0.090000        1.0080           0
    5364 A    671  ETH  H2   HGA30    0.090000        1.0080           0
    5365 A    671  ETH  H3   HGA30    0.090000        1.0080           0
    5366 A    671  ETH  H4   HGA30    0.090000        1.0080           0
    5367 A    671  ETH  H5   HGA30    0.090000        1.0080           0
    5368 A    671  ETH  H6   HGA30    0.090000        1.0080           0
    5369 A    672  ETH  C1   CG3310   -0.270000       12.0110           0
    5370 A    672  ETH  C2   CG3310   -0.270000       12.0110           0
    5371 A    672  ETH  H1   HGA30    0.090000        1.0080           0
    5372 A    672  ETH  H2   HGA30    0.090000        1.0080           0
    5373 A    672  ETH  H3   HGA30    0.090000        1.0080           0
    5374 A    672  ETH  H4   HGA30    0.090000        1.0080           0
    5375 A    672  ETH  H5   HGA30    0.090000        1.0080           0
    5376 A    672  ETH  H6   HGA30    0.090000        1.0080           0
    5377 A    673  ETH  C1   CG3310   -0.270000       12.0110           0
    5378 A    673  ETH  C2   CG3310   -0.270000       12.0110           0
    5379 A    673  ETH  H1   HGA30    0.090000        1.0080           0
    5380 A    673  ETH  H2   HGA30    0.090000        1.0080           0
    5381 A    673  ETH  H3   HGA30    0.090000        1.0080           0
    5382 A    673  ETH  H4   HGA30    0.090000        1.0080           0
    5383 A    673  ETH  H5   HGA30    0.090000        1.0080           0
    5384 A    673  ETH  H6   HGA30    0.090000        1.0080           0
    5385 A    674  ETH  C1   CG3310   -0.270000       12.0110           0
    5386 A    674  ETH  C2   CG3310   -0.270000       12.0110           0
    5387 A    674  ETH  H1   HGA30    0.090000        1.0080           0
    5388 A    674  ETH  H2   HGA30    0.090000        1.0080           0
    5389 A    674  ETH  H3   HGA30    0.090000        1.0080           0
    5390 A    674  ETH  H4   HGA30    0.090000        1.0080           0
    5391 A    674  ETH  H5   HGA30    0.090000        1.0080           0
    5392 A    674  ETH  H6   HGA30    0.090000        1.0080           0
    5393 A    675  ETH  C1   CG3310   -0.270000       12.0110           0
    5394 A    675  ETH  C2   CG3310   -0.270000       12.0110           0
    5395 A    675  ETH  H1   HGA30    0.090000        1.0080           0
    5396 A    675  ETH  H2   HGA30    0.090000        1.0080           0
    5397 A    675  ETH  H3   HGA30    0.090000        1.0080           0
    5398 A    675  ETH  H4   HGA30    0.090000        1.0080           0
    5399 A    675  ETH  H5   HGA30    0.090000        1.0080           0
    5400 A    675  ETH  H6   HGA30    0.090000        1.0080           0
    5401 A    676  ETH  C1   CG3310   -0.270000       12.0110           0
    5402 A    676  ETH  C2   CG3310   -0.270000       12.0110           0
    5403 A    676  ETH  H1   HGA30    0.090000        1.0080           0
    5404 A    676  ETH  H2   HGA30    0.090000        1.0080           0
    5405 A    676  ETH  H3   HGA30    0.090000        1.0080           0
    5406 A    676  ETH  H4   HGA30    0.090000        1.0080           0
    5407 A    676  ETH  H5   HGA30    0.090000        1.0080           0
    5408 A    676  ETH  H6   HGA30    0.090000        1.0080           0
    5409 A    677  ETH  C1   CG3310   -0.270000       12.0110           0
    5410 A    677  ETH  C2   CG3310   -0.270000       12.0110           0
    5411 A    677  ETH  H1   HGA30    0.090000        1.0080           0
    5412 A    677  ETH  H2   HGA30    0.090000        1.0080           0
    5413 A    677  ETH  H3   HGA30    0.090000        1.0080           0
    5414 A    677  ETH  H4   HGA30    0.090000        1.0080           0
    5415 A    677  ETH  H5   HGA30    0.090000        1.0080           0
    5416 A    677  ETH  H6   HGA30    0.090000        1.0080           0
    5417 A    678  ETH  C1   CG3310   -0.270000       12.0110           0
    5418 A    678  ETH  C2   CG3310   -0.270000       12.0110           0
    5419 A    678  ETH  H1   HGA30    0.090000        1.0080           0
    5420 A    678  ETH  H2   HGA30    0.090000        1.0080           0
    5421 A    678  ETH  H3   HGA30    0.090000        1.0080           0
    5422 A    678  ETH  H4   HGA30    0.090000        1.0080           0
    5423 A    678  ETH  H5   HGA30    0.090000        1.0080           0
    5424 A    678  ETH  H6   HGA30    0.090000        1.0080           0
    5425 A    679  ETH  C1   CG3310   -0.270000       12.0110           0
    5426 A    679  ETH  C2   CG3310   -0.270000       12.0110           0
    5427 A    679  ETH  H1   HGA30    0.090000        1.0080           0
    5428 A    679  ETH  H2   HGA30    0.090000        1.0080           0
    5429 A    679  ETH  H3   HGA30    0.090000        1.0080           0
    5430 A    679  ETH  H4   HGA30    0.090000        1.0080           0
    5431 A    679  ETH  H5   HGA30    0.090000        1.0080           0
    5432 A    679  ETH  H6   HGA30    0.090000        1.0080           0
    5433 A    680  ETH  C1   CG3310   -0.270000       12.0110           0
    5434 A    680  ETH  C2   CG3310   -0.270000       12.0110           0
    5435 A    680  ETH  H1   HGA30    0.090000        1.0080           0
    5436 A    680  ETH  H2   HGA30    0.090000        1.0080           0
    5437 A    680  ETH  H3   HGA30    0.090000        1.0080           0
    5438 A    680  ETH  H4   HGA30    0.090000        1.0080           0
    5439 A    680  ETH  H5   HGA30    0.090000        1.0080           0
    5440 A    680  ETH  H6   HGA30    0.090000        1.0080           0
    5441 A    681  ETH  C1   CG3310   -0.270000       12.0110           0
    5442 A    681  ETH  C2   CG3310   -0.270000       12.0110           0
    5443 A    681  ETH  H1   HGA30    0.090000        1.0080           0
    5444 A    681  ETH  H2   HGA30    0.090000        1.0080           0
    5445 A    681  ETH  H3   HGA30    0.090000        1.0080           0
    5446 A    681  ETH  H4   HGA30    0.090000        1.0080           0
    5447 A    681  ETH  H5   HGA30    0.090000        1.0080           0
    5448 A    681  ETH  H6   HGA30    0.090000        1.0080           0
    5449 A    682  ETH  C1   CG3310   -0.270000       12.0110           0
    5450 A    682  ETH  C2   CG3310   -0.270000       12.0110           0
    5451 A    682  ETH  H1   HGA30    0.090000        1.0080           0
    5452 A    682  ETH  H2   HGA30    0.090000        1.0080           0
    5453 A    682  ETH  H3   HGA30    0.090000        1.0080           0
    5454 A    682  ETH  H4   HGA30    0.090000        1.0080           0
    5455 A    682  ETH  H5   HGA30    0.090000        1.0080           0
    5456 A    682  ETH  H6   HGA30    0.090000        1.0080           0
    5457 A    683  ETH  C1   CG3310   -0.270000       12.0110           0
    5458 A    683  ETH  C2   CG3310   -0.270000       12.0110           0
    5459 A    683  ETH  H1   HGA30    0.090000        1.0080           0
    5460 A    683  ETH  H2   HGA30    0.090000        1.0080           0
    5461 A    683  ETH  H3   HGA30    0.090000        1.0080           0
    5462 A    683  ETH  H4   HGA30    0.090000        1.0080           0
    5463 A    683  ETH  H5   HGA30    0.090000        1.0080           0
    5464 A    683  ETH  H6   HGA30    0.090000        1.0080           0
    5465 A    684  ETH  C1   CG3310   -0.270000       12.0110           0
    5466 A    684  ETH  C2   CG3310   -0.270000       12.0110           0
    5467 A    684  ETH  H1   HGA30    0.090000        1.0080           0
    5468 A    684  ETH  H2   HGA30    0.090000        1.0080           0
    5469 A    684  ETH  H3   HGA30    0.090000        1.0080           0
    5470 A    684  ETH  H4   HGA30    0.090000        1.0080           0
    5471 A    684  ETH  H5   HGA30    0.090000        1.0080           0
    5472 A    684  ETH  H6   HGA30    0.090000        1.0080           0
    5473 A    685  ETH  C1   CG3310   -0.270000       12.0110           0
    5474 A    685  ETH  C2   CG3310   -0.270000       12.0110           0
    5475 A    685  ETH  H1   HGA30    0.090000        1.0080           0
    5476 A    685  ETH  H2   HGA30    0.090000        1.0080           0
    5477 A    685  ETH  H3   HGA30    0.090000        1.0080           0
    5478 A    685  ETH  H4   HGA30    0.090000        1.0080           0
    5479 A    685  ETH  H5   HGA30    0.090000        1.0080           0
    5480 A    685  ETH  H6   HGA30    0.090000        1.0080           0
    5481 A    686  ETH  C1   CG3310   -0.270000       12.0110           0
    5482 A    686  ETH  C2   CG3310   -0.270000       12.0110           0
    5483 A    686  ETH  H1   HGA30    0.090000        1.0080           0
    5484 A    686  ETH  H2   HGA30    0.090000        1.0080           0
    5485 A    686  ETH  H3   HGA30    0.090000        1.0080           0
    5486 A    686  ETH  H4   HGA30    0.090000        1.0080           0
    5487 A    686  ETH  H5   HGA30    0.090000        1.0080           0
    5488 A    686  ETH  H6   HGA30    0.090000        1.0080           0
    5489 A    687  ETH  C1   CG3310   -0.270000       12.0110           0
    5490 A    687  ETH  C2   CG3310   -0.270000       12.0110           0
    5491 A    687  ETH  H1   HGA30    0.090000        1.0080           0
    5492 A    687  ETH  H2   HGA30    0.090000        1.0080           0
    5493 A    687  ETH  H3   HGA30    0.090000        1.0080           0
    5494 A    687  ETH  H4   HGA30    0.090000        1.0080           0
    5495 A    687  ETH  H5   HGA30    0.090000        1.0080           0
    5496 A    687  ETH  H6   HGA30    0.090000        1.0080           0
    5497 A    688  ETH  C1   CG3310   -0.270000       12.0110           0
    5498 A    688  ETH  C2   CG3310   -0.270000       12.0110           0
    5499 A    688  ETH  H1   HGA30    0.090000        1.0080           0
    5500 A    688  ETH  H2   HGA30    0.090000        1.0080           0
    5501 A    688  ETH  H3   HGA30    0.090000        1.0080           0
    5502 A    688  ETH  H4   HGA30    0.090000        1.0080           0
    5503 A    688  ETH  H5   HGA30    0.090000        1.0080           0
    5504 A    688  ETH  H6   HGA30    0.090000        1.0080           0
    5505 A    689  ETH  C1   CG3310   -0.270000       12.0110           0
    5506 A    689  ETH  C2   CG3310   -0.270000       12.0110           0
    5507 A    689  ETH  H1   HGA30    0.090000        1.0080           0
    5508 A    689  ETH  H2   HGA30    0.090000        1.0080           0
    5509 A    689  ETH  H3   HGA30    0.090000        1.0080           0
    5510 A    689  ETH  H4   HGA30    0.090000        1.0080           0
    5511 A    689  ETH  H5   HGA30    0.090000        1.0080           0
    5512 A    689  ETH  H6   HGA30    0.090000        1.0080           0
    5513 A    690  ETH  C1   CG3310   -0.270000       12.0110           0
    5514 A    690  ETH  C2   CG3310   -0.270000       12.0110           0
    5515 A    690  ETH  H1   HGA30    0.090000        1.0080           0
    5516 A    690  ETH  H2   HGA30    0.090000        1.0080           0
    5517 A    690  ETH  H3   HGA30    0.090000        1.0080           0
    5518 A    690  ETH  H4   HGA30    0.090000        1.0080           0
    5519 A    690  ETH  H5   HGA30    0.090000        1.0080           0
    5520 A    690  ETH  H6   HGA30    0.090000        1.0080           0
    5521 A    691  ETH  C1   CG3310   -0.270000       12.0110           0
    5522 A    691  ETH  C2   CG3310   -0.270000       12.0110           0
    5523 A    691  ETH  H1   HGA30    0.090000        1.0080           0
    5524 A    691  ETH  H2   HGA30    0.090000        1.0080           0
    5525 A    691  ETH  H3   HGA30    0.090000        1.0080           0
    5526 A    691  ETH  H4   HGA30    0.090000        1.0080           0
    5527 A    691  ETH  H5   HGA30    0.090000        1.0080           0
    5528 A    691  ETH  H6   HGA30    0.090000        1.0080           0
    5529 A    692  ETH  C1   CG3310   -0.270000       12.0110           0
    5530 A    692  ETH  C2   CG3310   -0.270000       12.0110           0
    5531 A    692  ETH  H1   HGA30    0.090000        1.0080           0
    5532 A    692  ETH  H2   HGA30    0.090000        1.0080           0
    5533 A    692  ETH  H3   HGA30    0.090000        1.0080           0
    5534 A    692  ETH  H4   HGA30    0.090000        1.0080           0
    5535 A    692  ETH  H5   HGA30    0.090000        1.0080           0
    5536 A    692  ETH  H6   HGA30    0.090000        1.0080           0
    5537 A    693  ETH  C1   CG3310   -0.270000       12.0110           0
    5538 A    693  ETH  C2   CG3310   -0.270000       12.0110           0
    5539 A    693  ETH  H1   HGA30    0.090000        1.0080           0
    5540 A    693  ETH  H2   HGA30    0.090000        1.0080           0
    5541 A    693  ETH  H3   HGA30    0.090000        1.0080           0
    5542 A    693  ETH  H4   HGA30    0.090000        1.0080           0
    5543 A    693  ETH  H5   HGA30    0.090000        1.0080           0
    5544 A    693  ETH  H6   HGA30    0.090000        1.0080           0
    5545 A    694  ETH  C1   CG3310   -0.270000       12.0110           0
    5546 A    694  ETH  C2   CG3310   -0.270000       12.0110           0
    5547 A    694  ETH  H1   HGA30    0.090000        1.0080           0
    5548 A    694  ETH  H2   HGA30    0.090000        1.0080           0
    5549 A    694  ETH  H3   HGA30    0.090000        1.0080           0
    5550 A    694  ETH  H4   HGA30    0.090000        1.0080           0
    5551 A    694  ETH  H5   HGA30    0.090000        1.0080           0
    5552 A    694  ETH  H6   HGA30    0.090000        1.0080           0
    5553 A    695  ETH  C1   CG3310   -0.270000       12.0110           0
    5554 A    695  ETH  C2   CG3310   -0.270000       12.0110           0
    5555 A    695  ETH  H1   HGA30    0.090000        1.0080           0
    5556 A    695  ETH  H2   HGA30    0.090000        1.0080           0
    5557 A    695  ETH  H3   HGA30    0.090000        1.0080           0
    5558 A    695  ETH  H4   HGA30    0.090000        1.0080           0
    5559 A    695  ETH  H5   HGA30    0.090000        1.0080           0
    5560 A    695  ETH  H6   HGA30    0.090000        1.0080           0
    5561 A    696  ETH  C1   CG3310   -0.270000       12.0110           0
    5562 A    696  ETH  C2   CG3310   -0.270000       12.0110           0
    5563 A    696  ETH  H1   HGA30    0.090000        1.0080           0
    5564 A    696  ETH  H2   HGA30    0.090000        1.0080           0
    5565 A    696  ETH  H3   HGA30    0.090000        1.0080           0
    5566 A    696  ETH  H4   HGA30    0.090000        1.0080           0
    5567 A    696  ETH  H5   HGA30    0.090000        1.0080           0
    5568 A    696  ETH  H6   HGA30    0.090000        1.0080           0
    5569 A    697  ETH  C1   CG3310   -0.270000       12.0110           0
    5570 A    697  ETH  C2   CG3310   -0.270000       12.0110           0
    5571 A    697  ETH  H1   HGA30    0.090000        1.0080           0
    5572 A    697  ETH  H2   HGA30    0.090000        1.0080           0
    5573 A    697  ETH  H3   HGA30    0.090000        1.0080           0
    5574 A    697  ETH  H4   HGA30    0.090000        1.0080           0
    5575 A    697  ETH  H5   HGA30    0.090000        1.0080           0
    5576 A    697  ETH  H6   HGA30    0.090000        1.0080           0
    5577 A    698  ETH  C1   CG3310   -0.270000       12.0110           0
    5578 A    698  ETH  C2   CG3310   -0.270000       12.0110           0
    5579 A    698  ETH  H1   HGA30    0.090000        1.0080           0
    5580 A    698  ETH  H2   HGA30    0.090000        1.0080           0
    5581 A    698  ETH  H3   HGA30    0.090000        1.0080           0
    5582 A    698  ETH  H4   HGA30    0.090000        1.0080           0
    5583 A    698  ETH  H5   HGA30    0.090000        1.0080           0
    5584 A    698  ETH  H6   HGA30    0.090000        1.0080           0
    5585 A    699  ETH  C1   CG3310   -0.270000       12.0110           0
    5586 A    699  ETH  C2   CG3310   -0.270000       12.0110           0
    5587 A    699  ETH  H1   HGA30    0.090000        1.0080           0
    5588 A    699  ETH  H2   HGA30    0.090000        1.0080           0
    5589 A    699  ETH  H3   HGA30    0.090000        1.0080           0
    5590 A    699  ETH  H4   HGA30    0.090000        1.0080           0
    5591 A    699  ETH  H5   HGA30    0.090000        1.0080           0
    5592 A    699  ETH  H6   HGA30    0.090000        1.0080           0
    5593 A    700  ETH  C1   CG3310   -0.270000       12.0110           0
    5594 A    700  ETH  C2   CG3310   -0.270000       12.0110           0
    5595 A    700  ETH  H1   HGA30    0.090000        1.0080           0
    5596 A    700  ETH  H2   HGA30    0.090000        1.0080           0
    5597 A    700  ETH  H3   HGA30    0.090000        1.0080           0
    5598 A    700  ETH  H4   HGA30    0.090000        1.0080           0
    5599 A    700  ETH  H5   HGA30    0.090000        1.0080           0
    5600 A    700  ETH  H6   HGA30    0.090000        1.0080           0
    5601 A    701  ETH  C1   CG3310   -0.270000       12.0110           0
    5602 A    701  ETH  C2   CG3310   -0.270000       12.0110           0
    5603 A    701  ETH  H1   HGA30    0.090000        1.0080           0
    5604 A    701  ETH  H2   HGA30    0.090000        1.0080           0
    5605 A    701  ETH  H3   HGA30    0.090000        1.0080           0
    5606 A    701  ETH  H4   HGA30    0.090000        1.0080           0
    5607 A    701  ETH  H5   HGA30    0.090000        1.0080           0
    5608 A    701  ETH  H6   HGA30    0.090000        1.0080           0
    5609 A    702  ETH  C1   CG3310   -0.270000       12.0110           0
    5610 A    702  ETH  C2   CG3310   -0.270000       12.0110           0
    5611 A    702  ETH  H1   HGA30    0.090000        1.0080           0
    5612 A    702  ETH  H2   HGA30    0.090000        1.0080           0
    5613 A    702  ETH  H3   HGA30    0.090000        1.0080           0
    5614 A    702  ETH  H4   HGA30    0.090000        1.0080           0
    5615 A    702  ETH  H5   HGA30    0.090000        1.0080           0
    5616 A    702  ETH  H6   HGA30    0.090000        1.0080           0
    5617 A    703  ETH  C1   CG3310   -0.270000       12.0110           0
    5618 A    703  ETH  C2   CG3310   -0.270000       12.0110           0
    5619 A    703  ETH  H1   HGA30    0.090000        1.0080           0
    5620 A    703  ETH  H2   HGA30    0.090000        1.0080           0
    5621 A    703  ETH  H3   HGA30    0.090000        1.0080           0
    5622 A    703  ETH  H4   HGA30    0.090000        1.0080           0
    5623 A    703  ETH  H5   HGA30    0.090000        1.0080           0
    5624 A    703  ETH  H6   HGA30    0.090000        1.0080           0
    5625 A    704  ETH  C1   CG3310   -0.270000       12.0110           0
    5626 A    704  ETH  C2   CG3310   -0.270000       12.0110           0
    5627 A    704  ETH  H1   HGA30    0.090000        1.0080           0
    5628 A    704  ETH  H2   HGA30    0.090000        1.0080           0
    5629 A    704  ETH  H3   HGA30    0.090000        1.0080           0
    5630 A    704  ETH  H4   HGA30    0.090000        1.0080           0
    5631 A    704  ETH  H5   HGA30    0.090000        1.0080           0
    5632 A    704  ETH  H6   HGA30    0.090000        1.0080           0
    5633 A    705  ETH  C1   CG3310   -0.270000       12.0110           0
    5634 A    705  ETH  C2   CG3310   -0.270000       12.0110           0
    5635 A    705  ETH  H1   HGA30    0.090000        1.0080           0
    5636 A    705  ETH  H2   HGA30    0.090000        1.0080           0
    5637 A    705  ETH  H3   HGA30    0.090000        1.0080           0
    5638 A    705  ETH  H4   HGA30    0.090000        1.0080           0
    5639 A    705  ETH  H5   HGA30    0.090000        1.0080           0
    5640 A    705  ETH  H6   HGA30    0.090000        1.0080           0
    5641 A    706  ETH  C1   CG3310   -0.270000       12.0110           0
    5642 A    706  ETH  C2   CG3310   -0.270000       12.0110           0
    5643 A    706  ETH  H1   HGA30    0.090000        1.0080           0
    5644 A    706  ETH  H2   HGA30    0.090000        1.0080           0
    5645 A    706  ETH  H3   HGA30    0.090000        1.0080           0
    5646 A    706  ETH  H4   HGA30    0.090000        1.0080           0
    5647 A    706  ETH  H5   HGA30    0.090000        1.0080           0
    5648 A    706  ETH  H6   HGA30    0.090000        1.0080           0
    5649 A    707  ETH  C1   CG3310   -0.270000       12.0110           0
    5650 A    707  ETH  C2   CG3310   -0.270000       12.0110           0
    5651 A    707  ETH  H1   HGA30    0.090000        1.0080           0
    5652 A    707  ETH  H2   HGA30    0.090000        1.0080           0
    5653 A    707  ETH  H3   HGA30    0.090000        1.0080           0
    5654 A    707  ETH  H4   HGA30    0.090000        1.0080           0
    5655 A    707  ETH  H5   HGA30    0.090000        1.0080           0
    5656 A    707  ETH  H6   HGA30    0.090000        1.0080           0

    4949 !NBOND: bonds 
       2       6       2       7       2       8       1       2
       1       3       1       4       1       5      10      14
      10      15      10      16       9      10       9      11
       9      12       9      13      18      22      18      23
      18      24      17      18      17      19      17      20
      17      21      26      30      26      31      26      32
      25      26      25      27      25      28      25      29
      34      38      34      39      34      40      33      34
      33      35      33      36      33      37      42      46
      42      47      42      48      41      42      41      43
      41      44      41      45      50      54      50      55
      50      56      49      50      49      51      49      52
      49      53      58      62      58      63      58      64
      57      58      57      59      57      60      57      61
      66      70      66      71      66      72      65      66
      65      67      65      68      65      69      74      78
      74      79      74      80      73      74      73      75
      73      76      73      77      82      86      82      87
      82      88      81      82      81      83      81      84
      81      85      90      94      90      95      90      96
      89      90      89      91      89      92      89      93
      98     102      98     103      98     104      97      98
      97      99      97     100      97     101     106     110
     106     111     106     112     105     106     105     107
     105     108     105     109     114     118     114     119
     114     120     113     114     113     115     113     116
     113     117     122     126     122     127     122     128
     121     122     121     123     121     124     121     125
     130     134     130     135     130     136     129     130
     129     131     129     132     129     133     138     142
     138     143     138     144     137     138     137     139
     137     140     137     141     146     150     146     151
     146     152     145     146     145     147     145     148
     145     149     154     158     154     159     154     160
     153     154     153     155     153     156     153     157
     162     166     162     167     162     168     161     162
     161     163     161     164     161     165     170     174
     170     175     170     176     169     170     169     171
     169     172     169     173     178     182     178     183
     178     184     177     178     177     179     177     180
     177     181     186     190     186     191     186     192
     185     186     185     187     185     188     185     189
     194     198     194     199     194     200     193     194
     193     195     193     196     193     197     202     206
     202     207     202     208     201     202     201     203
     201     204     201     205     210     214     210     215
     210     216     209     210     209     211     209     212
     209     213     218     222     218     223     218     224
     217     218     217     219     217     220     217     221
     226     230     226     231     226     232     225     226
     225     227     225     228     225     229     234     238
     234     239     234     240     233     234     233     235
     233     236     233     237     242     246     242     247
     242     248     241     242     241     243     241     244
     241     245     250     254     250     255     250     256
     249     250     249     251     249     252     249     253
     258     262     258     263     258     264     257     258
     257     259     257     260     257     261     266     270
     266     271     266     272     265     266     265     267
     265     268     265     269     274     278     274     279
     274     280     273     274     273     275     273     276
     273     277     282     286     282     287     282     288
     281     282     281     283     281     284     281     285
     290     294     290     295     290     296     289     290
     289     291     289     292     289     293     298     302
     298     303     298     304     297     298     297     299
     297     300     297     301     306     310     306     311
     306     312     305     306     305     307     305     308
     305     309     314     318     314     319     314     320
     313     314     313     315     313     316     313     317
     322     326     322     327     322     328     321     322
     321     323     321     324     321     325     330     334
     330     335     330     336     329     330     329     331
     329     332     329     333     338     342     338     343
     338     344     337     338     337     339     337     340
     337     341     346     350     346     351     346     352
     345     346     345     347     345     348     345     349
     354     358     354     359     354     360     353     354
     353     355     353     356     353     357     362     366
     362     367     362     368     361     362     361     363
     361     364     361     365     370     374     370     375
     370     376     369     370     369     371     369     372
     369     373     378     382     378     383     378     384
     377     378     377     379     377     380     377     381
     386     390     386     391     386     392     385     386
     385     387     385     388     385     389     394     398
     394     399     394     400     393     394     393     395
     393     396     393     397     402     406     402     407
     402     408     401     402     401     403     401     404
     401     405     410     414     410     415     410     416
     409     410     409     411     409     412     409     413
     418     422     418     423     418     424     417     418
     417     419     417     420     417     421     426     430
     426     431     426     432     425     426     425     427
     425     428     425     429     434     438     434     439
     434     440     433     434     433     435     433     436
     433     437     442     446     442     447     442     448
     441     442     441     443     441     444     441     445
     450     454     450     455     450     456     449     450
     449     451     449     452     449     453     458     462
     458     463     458     464     457     458     457     459
     457     460     457     461     466     470     466     471
     466     472     465     466     465     467     465     468
     465     469     474     478     474     479     474     480
     473     474     473     475     473     476     473     477
     482     486     482     487     482     488     481     482
     481     483     481     484     481     485     490     494
     490     495     490     496     489     490     489     491
     489     492     489     493     498     502     498     503
     498     504     497     498     497     499     497     500
     497     501     506     510     506     511     506     512
     505     506     505     507     505     508     505     509
     514     518     514     519     514     520     513     514
     513     515     513     516     513     517     522     526
     522     527     522     528     521     522     521     523
     521     524     521     525     530     534     530     535
     530     536     529     530     529     531     529     532
     529     533     538     542     538     543     538     544
     537     538     537     539     537     540     537     541
     546     550     546     551     546     552     545     546
     545     547     545     548     545     549     554     558
     554     559     554     560     553     554     553     555
     553     556     553     557     562     566     562     567
     562     568     561     562     561     563     561     564
     561     565     570     574     570     575     570     576
     569     570     569     571     569     572     569     573
     578     582     578     583     578     584     577     578
     577     579     577     580     577     581     586     590
     586     591     586     592     585     586     585     587
     585     588     585     589     594     598     594     599
     594     600     593     594     593     595     593     596
     593     597     602     606     602     607     602     608
     601     602     601     603     601     604     601     605
     610     614     610     615     610     616     609     610
     609     611     609     612     609     613     618     622
     618     623     618     624     617     618     617     619
     617     620     617     621     626     630     626     631
     626     632     625     626     625     627     625     628
     625     629     634     638     634     639     634     640
     633     634     633     635     633     636     633     637
     642     646     642     647     642     648     641     642
     641     643     641     644     641     645     650     654
     650     655     650     656     649     650     649     651
     649     652     649     653     658     662     658     663
     658     664     657     658     657     659     657     660
     657     661     666     670     666     671     666     672
     665     666     665     667     665     668     665     669
     674     678     674     679     674     680     673     674
     673     675     673     676     673     677     682     686
     682     687     682     688     681     682     681     683
     681     684     681     685     690     694     690     695
     690     696     689     690     689     691     689     692
     689     693     698     702     698     703     698     704
     697     698     697     699     697     700     697     701
     706     710     706     711     706     712     705     706
     705     707     705     708     705     709     714     718
     714     719     714     720     713     714     713     715
     713     716     713     717     722     726     722     727
     722     728     721     722     721     723     721     724
     721     725     730     734     730     735     730     736
     729     730     729     731     729     732     729     733
     738     742     738     743     738     744     737     738
     737     739     737     740     737     741     746     750
     746     751     746     752     745     746     745     747
     745     748     745     749     754     758     754     759
     754     760     753     754     753     755     753     756
     753     757     762     766     762     767     762     768
     761     762     761     763     761     764     761     765
     770     774     770     775     770     776     769     770
     769     771     769     772     769     773     778     782
     778     783     778     784     777     778     777     779
     777     780     777     781     786     790     786     791
     786     792     785     786     785     787     785     788
     785     789     794     798     794     799     794     800
     793     794     793     795     793     796     793     797
     802     806     802     807     802     808     801     802
     801     803     801     804     801     805     810     814
     810     815     810     816     809     810     809     811
     809     812     809     813     818     822     818     823
     818     824     817     818     817     819     817     820
     817     821     826     830     826     831     826     832
     825     826     825     827     825     828     825     829
     834     838     834     839     834     840     833     834
     833     835     833     836     833     837     842     846
     842     847     842     848     841     842     841     843
     841     844     841     845     850     854     850     855
     850     856     849     850     849     851     849     852
     849     853     858     862     858     863     858     864
     857     858     857     859     857     860     857     861
     866     870     866     871     866     872     865     866
     865     867     865     868     865     869     874     878
     874     879     874     880     873     874     873     875
     873     876     873     877     882     886     882     887
     882     888     881     882     881     883     881     884
     881     885     890     894     890     895     890     896
     889     890     889     891     889     892     889     893
     898     902     898     903     898     904     897     898
     897     899     897     900     897     901     906     910
     906     911     906     912     905     906     905     907
     905     908     905     909     914     918     914     919
     914     920     913     914     913     915     913     916
     913     917     922     926     922     927     922     928
     921     922     921     923     921     924     921     925
     930     934     930     935     930     936     929     930
     929     931     929     932     929     933     938     942
     938     943     938     944     937     938     937     939
     937     940     937     941     946     950     946     951
     946     952     945     946     945     947     945     948
     945     949     954     958     954     959     954     960
     953     954     953     955     953     956     953     957
     962     966     962     967     962     968     961     962
     961     963     961     964     961     965     970     974
     970     975     970     976     969     970     969     971
     969     972     969     973     978     982     978     983
     978     984     977     978     977     979     977     980
     977     981     986     990     986     991     986     992
     985     986     985     987     985     988     985     989
     994     998     994     999     994    1000     993     994
     993     995     993     996     993     997    1002    1006
    1002    1007    1002    1008    1001    1002    1001    1003
    1001    1004    1001    1005    1010    1014    1010    1015
    1010    1016    1009    1010    1009    1011    1009    1012
    1009    1013    1018    1022    1018    1023    1018    1024
    1017    1018    1017    1019    1017    1020    1017    1021
    1026    1030    1026    1031    1026    1032    1025    1026
    1025    1027    1025    1028    1025    1029    1034    1038
    1034    1039    1034    1040    1033    1034    1033    1035
    1033    1036    1033    1037    1042    1046    1042    1047
    1042    1048    1041    1042    1041    1043    1041    1044
    1041    1045    1050    1054    1050    1055    1050    1056
    1049    1050    1049    1051    1049    1052    1049    1053
    1058    1062    1058    1063    1058    1064    1057    1058
    1057    1059    1057    1060    1057    1061    1066    1070
    1066    1071    1066    1072    1065    1066    1065    1067
    1065    1068    1065    1069    1074    1078    1074    1079
    1074    1080    1073    1074    1073    1075    1073    1076
    1073    1077    1082    1086    1082    1087    1082    1088
    1081    1082    1081    1083    1081    1084    1081    1085
    1090    1094    1090    1095    1090    1096    1089    1090
    1089    1091    1089    1092    1089    1093    1098    1102
    1098    1103    1098    1104    1097    1098    1097    1099
    1097    1100    1097    1101    1106    1110    1106    1111
    1106    1112    1105    1106    1105    1107    1105    1108
    1105    1109    1114    1118    1114    1119    1114    1120
    1113    1114    1113    1115    1113    1116    1113    1117
    1122    1126    1122    1127    1122    1128    1121    1122
    1121    1123    1121    1124    1121    1125    1130    1134
    1130    1135    1130    1136    1129    1130    1129    1131
    1129    1132    1129    1133    1138    1142    1138    1143
    1138    1144    1137    1138    1137    1139    1137    1140
    1137    1141    1146    1150    1146    1151    1146    1152
    1145    1146    1145    1147    1145    1148    1145    1149
    1154    1158    1154    1159    1154    1160    1153    1154
    1153    1155    1153    1156    1153    1157    1162    1166
    1162    1167    1162    1168    1161    1162    1161    1163
    1161    1164    1161    1165    1170    1174    1170    1175
    1170    1176    1169    1170    1169    1171    1169    1172
    1169    1173    1178    1182    1178    1183    1178    1184
    1177    1178    1177    1179    1177    1180    1177    1181
    1186    1190    1186    1191    1186    1192    1185    1186
    1185    1187    1185    1188    1185    1189    1194    1198
    1194    1199    1194    1200    1193    1194    1193    1195
    1193    1196    1193    1197    1202    1206    1202    1207
    1202    1208    1201    1202    1201    1203    1201    1204
    1201    1205    1210    1214    1210    1215    1210    1216
    1209    1210    1209    1211    1209    1212    1209    1213
    1218    1222    1218    1223    1218    1224    1217    1218
    1217    1219    1217    1220    1217    1221    1226    1230
    1226    1231    1226    1232    1225    1226    1225    1227
    1225    1228    1225    1229    1234    1238    1234    1239
    1234    1240    1233    1234    1233    1235    1233    1236
    1233    1237    1242    1246    1242    1247    1242    1248
    1241    1242    1241    1243    1241    1244    1241    1245
    1250    1254    1250    1255    1250    1256    1249    1250
    1249    1251    1249    1252    1249    1253    1258    1262
    1258    1263    1258    1264    1257    1258    1257    1259
    1257    1260    1257    1261    1266    1270    1266    1271
    1266    1272    1265    1266    1265    1267    1265    1268
    1265    1269    1274    1278    1274    1279    1274    1280
    1273    1274    1273    1275    1273    1276    1273    1277
    1282    1286    1282    1287    1282    1288    1281    1282
    1281    1283    1281    1284    1281    1285    1290    1294
    1290    1295    1290    1296    1289    1290    1289    1291
    1289    1292    1289    1293    1298    1302    1298    1303
    1298    1304    1297    1298    1297    1299    1297    1300
    1297    1301    1306    1310    1306    1311    1306    1312
    1305    1306    1305    1307    1305    1308    1305    1309
    1314    1318    1314    1319    1314    1320    1313    1314
    1313    1315    1313    1316    1313    1317    1322    1326
    1322    1327    1322    1328    1321    1322    1321    1323
    1321    1324    1321    1325    1330    1334    1330    1335
    1330    1336    1329    1330    1329    1331    1329    1332
    1329    1333    1338    1342    1338    1343    1338    1344
    1337    1338    1337    1339    1337    1340    1337    1341
    1346    1350    1346    1351    1346    1352    1345    1346
    1345    1347    1345    1348    1345    1349    1354    1358
    1354    1359    1354    1360    1353    1354    1353    1355
    1353    1356    1353    1357    1362    1366    1362    1367
    1362    1368    1361    1362    1361    1363    1361    1364
    1361    1365    1370    1374    1370    1375    1370    1376
    1369    1370    1369    1371    1369    1372    1369    1373
    1378    1382    1378    1383    1378    1384    1377    1378
    1377    1379    1377    1380    1377    1381    1386    1390
    1386    1391    1386    1392    1385    1386    1385    1387
    1385    1388    1385    1389    1394    1398    1394    1399
    1394    1400    1393    1394    1393    1395    1393    1396
    1393    1397    1402    1406    1402    1407    1402    1408
    1401    1402    1401    1403    1401    1404    1401    1405
    1410    1414    1410    1415    1410    1416    1409    1410
    1409    1411    1409    1412    1409    1413    1418    1422
    1418    1423    1418    1424    1417    1418    1417    1419
    1417    1420    1417    1421    1426    1430    1426    1431
    1426    1432    1425    1426    1425    1427    1425    1428
    1425    1429    1434    1438    1434    1439    1434    1440
    1433    1434    1433    1435    1433    1436    1433    1437
    1442    1446    1442    1447    1442    1448    1441    1442
    1441    1443    1441    1444    1441    1445    1450    1454
    1450    1455    1450    1456    1449    1450    1449    1451
    1449    1452    1449    1453    1458    1462    1458    1463
    1458    1464    1457    1458    1457    1459    1457    1460
    1457    1461    1466    1470    1466    1471    1466    1472
    1465    1466    1465    1467    1465    1468    1465    1469
    1474    1478    1474    1479    1474    1480    1473    1474
    1473    1475    1473    1476    1473    1477    1482    1486
    1482    1487    1482    1488    1481    1482    1481    1483
    1481    1484    1481    1485    1490    1494    1490    1495
    1490    1496    1489    1490    1489    1491    1489    1492
    1489    1493    1498    1502    1498    1503    1498    1504
    1497    1498    1497    1499    1497    1500    1497    1501
    1506    1510    1506    1511    1506    1512    1505    1506
    1505    1507    1505    1508    1505    1509    1514    1518
    1514    1519    1514    1520    1513    1514    1513    1515
    1513    1516    1513    1517    1522    1526    1522    1527
    1522    1528    1521    1522    1521    1523    1521    1524
    1521    1525    1530    1534    1530    1535    1530    1536
    1529    1530    1529    1531    1529    1532    1529    1533
    1538    1542    1538    1543    1538    1544    1537    1538
    1537    1539    1537    1540    1537    1541    1546    1550
    1546    1551    1546    1552    1545    1546    1545    1547
    1545    1548    1545    1549    1554    1558    1554    1559
    1554    1560    1553    1554    1553    1555    1553    1556
    1553    1557    1562    1566    1562    1567    1562    1568
    1561    1562    1561    1563    1561    1564    1561    1565
    1570    1574    1570    1575    1570    1576    1569    1570
    1569    1571    1569    1572    1569    1573    1578    1582
    1578    1583    1578    1584    1577    1578    1577    1579
    1577    1580    1577    1581    1586    1590    1586    1591
    1586    1592    1585    1586    1585    1587    1585    1588
    1585    1589    1594    1598    1594    1599    1594    1600
    1593    1594    1593    1595    1593    1596    1593    1597
    1602    1606    1602    1607    1602    1608    1601    1602
    1601    1603    1601    1604    1601    1605    1610    1614
    1610    1615    1610    1616    1609    1610    1609    1611
    1609    1612    1609    1613    1618    1622    1618    1623
    1618    1624    1617    1618    1617    1619    1617    1620
    1617    1621    1626    1630    1626    1631    1626    1632
    1625    1626    1625    1627    1625    1628    1625    1629
    1634    1638    1634    1639    1634    1640    1633    1634
    1633    1635    1633    1636    1633    1637    1642    1646
    1642    1647    1642    1648    1641    1642    1641    1643
    1641    1644    1641    1645    1650    1654    1650    1655
    1650    1656    1649    1650    1649    1651    1649    1652
    1649    1653    1658    1662    1658    1663    1658    1664
    1657    1658    1657    1659    1657    1660    1657    1661
    1666    1670    1666    1671    1666    1672    1665    1666
    1665    1667    1665    1668    1665    1669    1674    1678
    1674    1679    1674    1680    1673    1674    1673    1675
    1673    1676    1673    1677    1682    1686    1682    1687
    1682    1688    1681    1682    1681    1683    1681    1684
    1681    1685    1690    1694    1690    1695    1690    1696
    1689    1690    1689    1691    1689    1692    1689    1693
    1698    1702    1698    1703    1698    1704    1697    1698
    1697    1699    1697    1700    1697    1701    1706    1710
    1706    1711    1706    1712    1705    1706    1705    1707
    1705    1708    1705    1709    1714    1718    1714    1719
    1714    1720    1713    1714    1713    1715    1713    1716
    1713    1717    1722    1726    1722    1727    1722    1728
    1721    1722    1721    1723    1721    1724    1721    1725
    1730    1734    1730    1735    1730    1736    1729    1730
    1729    1731    1729    1732    1729    1733    1738    1742
    1738    1743    1738    1744    1737    1738    1737    1739
    1737    1740    1737    1741    1746    1750    1746    1751
    1746    1752    1745    1746    1745    1747    1745    1748
    1745    1749    1754    1758    1754    1759    1754    1760
    1753    1754    1753    1755    1753    1756    1753    1757
    1762    1766    1762    1767    1762    1768    1761    1762
    1761    1763    1761    1764    1761    1765    1770    1774
    1770    1775    1770    1776    1769    1770    1769    1771
    1769    1772    1769    1773    1778    1782    1778    1783
    1778    1784    1777    1778    1777    1779    1777    1780
    1777    1781    1786    1790    1786    1791    1786    1792
    1785    1786    1785    1787    1785    1788    1785    1789
    1794    1798    1794    1799    1794    1800    1793    1794
    1793    1795    1793    1796    1793    1797    1802    1806
    1802    1807    1802    1808    1801    1802    1801    1803
    1801    1804    1801    1805    1810    1814    1810    1815
    1810    1816    1809    1810    1809    1811    1809    1812
    1809    1813    1818    1822    1818    1823    1818    1824
    1817    1818    1817    1819    1817    1820    1817    1821
    1826    1830    1826    1831    1826    1832    1825    1826
    1825    1827    1825    1828    1825    1829    1834    1838
    1834    1839    1834    1840    1833    1834    1833    1835
    1833    1836    1833    1837    1842    1846    1842    1847
    1842    1848    1841    1842    1841    1843    1841    1844
    1841    1845    1850    1854    1850    1855    1850    1856
    1849    1850    1849    1851    1849    1852    1849    1853
    1858    1862    1858    1863    1858    1864    1857    1858
    1857    1859    1857    1860    1857    1861    1866    1870
    1866    1871    1866    1872    1865    1866    1865    1867
    1865    1868    1865    1869    1874    1878    1874    1879
    1874    1880    1873    1874    1873    1875    1873    1876
    1873    1877    1882    1886    1882    1887    1882    1888
    1881    1882    1881    1883    1881    1884    1881    1885
    1890    1894    1890    1895    1890    1896    1889    1890
    1889    1891    1889    1892    1889    1893    1898    1902
    1898    1903    1898    1904    1897    1898    1897    1899
    1897    1900    1897    1901    1906    1910    1906    1911
    1906    1912    1905    1906    1905    1907    1905    1908
    1905    1909    1914    1918    1914    1919    1914    1920
    1913    1914    1913    1915    1913    1916    1913    1917
    1922    1926    1922    1927    1922    1928    1921    1922
    1921    1923    1921    1924    1921    1925    1930    1934
    1930    1935    1930    1936    1929    1930    1929    1931
    1929    1932    1929    1933    1938    1942    1938    1943
    1938    1944    1937    1938    1937    1939    1937    1940
    1937    1941    1946    1950    1946    1951    1946    1952
    1945    1946    1945    1947    1945    1948    1945    1949
    1954    1958    1954    1959    1954    1960    1953    1954
    1953    1955    1953    1956    1953    1957    1962    1966
    1962    1967    1962    1968    1961    1962    1961    1963
    1961    1964    1961    1965    1970    1974    1970    1975
    1970    1976    1969    1970    1969    1971    1969    1972
    1969    1973    1978    1982    1978    1983    1978    1984
    1977    1978    1977    1979    1977    1980    1977    1981
    1986    1990    1986    1991    1986    1992    1985    1986
    1985    1987    1985    1988    1985    1989    1994    1998
    1994    1999    1994    2000    1993    1994    1993    1995
    1993    1996    1993    1997    2002    2006    2002    2007
    2002    2008    2001    2002    2001    2003    2001    2004
    2001    2005    2010    2014    2010    2015    2010    2016
    2009    2010    2009    2011    2009    2012    2009    2013
    2018    2022    2018    2023    2018    2024    2017    2018
    2017    2019    2017    2020    2017    2021    2026    2030
    2026    2031    2026    2032    2025    2026    2025    2027
    2025    2028    2025    2029    2034    2038    2034    2039
    2034    2040    2033    2034    2033    2035    2033    2036
    2033    2037    2042    2046    2042    2047    2042    2048
    2041    2042    2041    2043    2041    2044    2041    2045
    2050    2054    2050    2055    2050    2056    2049    2050
    2049    2051    2049    2052    2049    2053    2058    2062
    2058    2063    2058    2064    2057    2058    2057    2059
    2057    2060    2057    2061    2066    2070    2066    2071
    2066    2072    2065    2066    2065    2067    2065    2068
    2065    2069    2074    2078    2074    2079    2074    2080
    2073    2074    2073    2075    2073    2076    2073    2077
    2082    2086    2082    2087    2082    2088    2081    2082
    2081    2083    2081    2084    2081    2085    2090    2094
    2090    2095    2090    2096    2089    2090    2089    2091
    2089    2092    2089    2093    2098    2102    2098    2103
    2098    2104    2097    2098    2097    2099    2097    2100
    2097    2101    2106    2110    2106    2111    2106    2112
    2105    2106    2105    2107    2105    2108    2105    2109
    2114    2118    2114    2119    2114    2120    2113    2114
    2113    2115    2113    2116    2113    2117    2122    2126
    2122    2127    2122    2128    2121    2122    2121    2123
    2121    2124    2121    2125    2130    2134    2130    2135
    2130    2136    2129    2130    2129    2131    2129    2132
    2129    2133    2138    2142    2138    2143    2138    2144
    2137    2138    2137    2139    2137    2140    2137    2141
    2146    2150    2146    2151    2146    2152    2145    2146
    2145    2147    2145    2148    2145    2149    2154    2158
    2154    2159    2154    2160    2153    2154    2153    2155
    2153    2156    2153    2157    2162    2166    2162    2167
    2162    2168    2161    2162    2161    2163    2161    2164
    2161    2165    2170    2174    2170    2175    2170    2176
    2169    2170    2169    2171    2169    2172    2169    2173
    2178    2182    2178    2183    2178    2184    2177    2178
    2177    2179    2177    2180    2177    2181    2186    2190
    2186    2191    2186    2192    2185    2186    2185    2187
    2185    2188    2185    2189    2194    2198    2194    2199
    2194    2200    2193    2194    2193    2195    2193    2196
    2193    2197    2202    2206    2202    2207    2202    2208
    2201    2202    2201    2203    2201    2204    2201    2205
    2210    2214    2210    2215    2210    2216    2209    2210
    2209    2211    2209    2212    2209    2213    2218    2222
    2218    2223    2218    2224    2217    2218    2217    2219
    2217    2220    2217    2221    2226    2230    2226    2231
    2226    2232    2225    2226    2225    2227    2225    2228
    2225    2229    2234    2238    2234    2239    2234    2240
    2233    2234    2233    2235    2233    2236    2233    2237
    2242    2246    2242    2247    2242    2248    2241    2242
    2241    2243    2241    2244    2241    2245    2250    2254
    2250    2255    2250    2256    2249    2250    2249    2251
    2249    2252    2249    2253    2258    2262    2258    2263
    2258    2264    2257    2258    2257    2259    2257    2260
    2257    2261    2266    2270    2266    2271    2266    2272
    2265    2266    2265    2267    2265    2268    2265    2269
    2274    2278    2274    2279    2274    2280    2273    2274
    2273    2275    2273    2276    2273    2277    2282    2286
    2282    2287    2282    2288    2281    2282    2281    2283
    2281    2284    2281    2285    2290    2294    2290    2295
    2290    2296    2289    2290    2289    2291    2289    2292
    2289    2293    2298    2302    2298    2303    2298    2304
    2297    2298    2297    2299    2297    2300    2297    2301
    2306    2310    2306    2311    2306    2312    2305    2306
    2305    2307    2305    2308    2305    2309    2314    2318
    2314    2319    2314    2320    2313    2314    2313    2315
    2313    2316    2313    2317    2322    2326    2322    2327
    2322    2328    2321    2322    2321    2323    2321    2324
    2321    2325    2330    2334    2330    2335    2330    2336
    2329    2330    2329    2331    2329    2332    2329    2333
    2338    2342    2338    2343    2338    2344    2337    2338
    2337    2339    2337    2340    2337    2341    2346    2350
    2346    2351    2346    2352    2345    2346    2345    2347
    2345    2348    2345    2349    2354    2358    2354    2359
    2354    2360    2353    2354    2353    2355    2353    2356
    2353    2357    2362    2366    2362    2367    2362    2368
    2361    2362    2361    2363    2361    2364    2361    2365
    2370    2374    2370    2375    2370    2376    2369    2370
    2369    2371    2369    2372    2369    2373    2378    2382
    2378    2383    2378    2384    2377    2378    2377    2379
    2377    2380    2377    2381    2386    2390    2386    2391
    2386    2392    2385    2386    2385    2387    2385    2388
    2385    2389    2394    2398    2394    2399    2394    2400
    2393    2394    2393    2395    2393    2396    2393    2397
    2402    2406    2402    2407    2402    2408    2401    2402
    2401    2403    2401    2404    2401    2405    2410    2414
    2410    2415    2410    2416    2409    2410    2409    2411
    2409    2412    2409    2413    2418    2422    2418    2423
    2418    2424    2417    2418    2417    2419    2417    2420
    2417    2421    2426    2430    2426    2431    2426    2432
    2425    2426    2425    2427    2425    2428    2425    2429
    2434    2438    2434    2439    2434    2440    2433    2434
    2433    2435    2433    2436    2433    2437    2442    2446
    2442    2447    2442    2448    2441    2442    2441    2443
    2441    2444    2441    2445    2450    2454    2450    2455
    2450    2456    2449    2450    2449    2451    2449    2452
    2449    2453    2458    2462    2458    2463    2458    2464
    2457    2458    2457    2459    2457    2460    2457    2461
    2466    2470    2466    2471    2466    2472    2465    2466
    2465    2467    2465    2468    2465    2469    2474    2478
    2474    2479    2474    2480    2473    2474    2473    2475
    2473    2476    2473    2477    2482    2486    2482    2487
    2482    2488    2481    2482    2481    2483    2481    2484
    2481    2485    2490    2494    2490    2495    2490    2496
    2489    2490    2489    2491    2489    2492    2489    2493
    2498    2502    2498    2503    2498    2504    2497    2498
    2497    2499    2497    2500    2497    2501    2506    2510
    2506    2511    2506    2512    2505    2506    2505    2507
    2505    2508    2505    2509    2514    2518    2514    2519
    2514    2520    2513    2514    2513    2515    2513    2516
    2513    2517    2522    2526    2522    2527    2522    2528
    2521    2522    2521    2523    2521    2524    2521    2525
    2530    2534    2530    2535    2530    2536    2529    2530
    2529    2531    2529    2532    2529    2533    2538    2542
    2538    2543    2538    2544    2537    2538    2537    2539
    2537    2540    2537    2541    2546    2550    2546    2551
    2546    2552    2545    2546    2545    2547    2545    2548
    2545    2549    2554    2558    2554    2559    2554    2560
    2553    2554    2553    2555    2553    2556    2553    2557
    2562    2566    2562    2567    2562    2568    2561    2562
    2561    2563    2561    2564    2561    2565    2570    2574
    2570    2575    2570    2576    2569    2570    2569    2571
    2569    2572    2569    2573    2578    2582    2578    2583
    2578    2584    2577    2578    2577    2579    2577    2580
    2577    2581    2586    2590    2586    2591    2586    2592
    2585    2586    2585    2587    2585    2588    2585    2589
    2594    2598    2594    2599    2594    2600    2593    2594
    2593    2595    2593    2596    2593    2597    2602    2606
    2602    2607    2602    2608    2601    2602    2601    2603
    2601    2604    2601    2605    2610    2614    2610    2615
    2610    2616    2609    2610    2609    2611    2609    2612
    2609    2613    2618    2622    2618    2623    2618    2624
    2617    2618    2617    2619    2617    2620    2617    2621
    2626    2630    2626    2631    2626    2632    2625    2626
    2625    2627    2625    2628    2625    2629    2634    2638
    2634    2639    2634    2640    2633    2634    2633    2635
    2633    2636    2633    2637    2642    2646    2642    2647
    2642    2648    2641    2642    2641    2643    2641    2644
    2641    2645    2650    2654    2650    2655    2650    2656
    2649    2650    2649    2651    2649    2652    2649    2653
    2658    2662    2658    2663    2658    2664    2657    2658
    2657    2659    2657    2660    2657    2661    2666    2670
    2666    2671    2666    2672    2665    2666    2665    2667
    2665    2668    2665    2669    2674    2678    2674    2679
    2674    2680    2673    2674    2673    2675    2673    2676
    2673    2677    2682    2686    2682    2687    2682    2688
    2681    2682    2681    2683    2681    2684    2681    2685
    2690    2694    2690    2695    2690    2696    2689    2690
    2689    2691    2689    2692    2689    2693    2698    2702
    2698    2703    2698    2704    2697    2698    2697    2699
    2697    2700    2697    2701    2706    2710    2706    2711
    2706    2712    2705    2706    2705    2707    2705    2708
    2705    2709    2714    2718    2714    2719    2714    2720
    2713    2714    2713    2715    2713    2716    2713    2717
    2722    2726    2722    2727    2722    2728    2721    2722
    2721    2723    2721    2724    2721    2725    2730    2734
    2730    2735    2730    2736    2729    2730    2729    2731
    2729    2732    2729    2733    2738    2742    2738    2743
    2738    2744    2737    2738    2737    2739    2737    2740
    2737    2741    2746    2750    2746    2751    2746    2752
    2745    2746    2745    2747    2745    2748    2745    2749
    2754    2758    2754    2759    2754    2760    2753    2754
    2753    2755    2753    2756    2753    2757    2762    2766
    2762    2767    2762    2768    2761    2762    2761    2763
    2761    2764    2761    2765    2770    2774    2770    2775
    2770    2776    2769    2770    2769    2771    2769    2772
    2769    2773    2778    2782    2778    2783    2778    2784
    2777    2778    2777    2779    2777    2780    2777    2781
    2786    2790    2786    2791    2786    2792    2785    2786
    2785    2787    2785    2788    2785    2789    2794    2798
    2794    2799    2794    2800    2793    2794    2793    2795
    2793    2796    2793    2797    2802    2806    2802    2807
    2802    2808    2801    2802    2801    2803    2801    2804
    2801    2805    2810    2814    2810    2815    2810    2816
    2809    2810    2809    2811    2809    2812    2809    2813
    2818    2822    2818    2823    2818    2824    2817    2818
    2817    2819    2817    2820    2817    2821    2826    2830
    2826    2831    2826    2832    2825    2826    2825    2827
    2825    2828    2825    2829    2834    2838    2834    2839
    2834    2840    2833    2834    2833    2835    2833    2836
    2833    2837    2842    2846    2842    2847    2842    2848
    2841    2842    2841    2843    2841    2844    2841    2845
    2850    2854    2850    2855    2850    2856    2849    2850
    2849    2851    2849    2852    2849    2853    2858    2862
    2858    2863    2858    2864    2857    2858    2857    2859
    2857    2860    2857    2861    2866    2870    2866    2871
    2866    2872    2865    2866    2865    2867    2865    2868
    2865    2869    2874    2878    2874    2879    2874    2880
    2873    2874    2873    2875    2873    2876    2873    2877
    2882    2886    2882    2887    2882    2888    2881    2882
    2881    2883    2881    2884    2881    2885    2890    2894
    2890    2895    2890    2896    2889    2890    2889    2891
    2889    2892    2889    2893    2898    2902    2898    2903
    2898    2904    2897    2898    2897    2899    2897    2900
    2897    2901    2906    2910    2906    2911    2906    2912
    2905    2906    2905    2907    2905    2908    2905    2909
    2914    2918    2914    2919    2914    2920    2913    2914
    2913    2915    2913    2916    2913    2917    2922    2926
    2922    2927    2922    2928    2921    2922    2921    2923
    2921    2924    2921    2925    2930    2934    2930    2935
    2930    2936    2929    2930    2929    2931    2929    2932
    2929    2933    2938    2942    2938    2943    2938    2944
    2937    2938    2937    2939    2937    2940    2937    2941
    2946    2950    2946    2951    2946    2952    2945    2946
    2945    2947    2945    2948    2945    2949    2954    2958
    2954    2959    2954    2960    2953    2954    2953    2955
    2953    2956    2953    2957    2962    2966    2962    2967
    2962    2968    2961    2962    2961    2963    2961    2964
    2961    2965    2970    2974    2970    2975    2970    2976
    2969    2970    2969    2971    2969    2972    2969    2973
    2978    2982    2978    2983    2978    2984    2977    2978
    2977    2979    2977    2980    2977    2981    2986    2990
    2986    2991    2986    2992    2985    2986    2985    2987
    2985    2988    2985    2989    2994    2998    2994    2999
    2994    3000    2993    2994    2993    2995    2993    2996
    2993    2997    3002    3006    3002    3007    3002    3008
    3001    3002    3001    3003    3001    3004    3001    3005
    3010    3014    3010    3015    3010    3016    3009    3010
    3009    3011    3009    3012    3009    3013    3018    3022
    3018    3023    3018    3024    3017    3018    3017    3019
    3017    3020    3017    3021    3026    3030    3026    3031
    3026    3032    3025    3026    3025    3027    3025    3028
    3025    3029    3034    3038    3034    3039    3034    3040
    3033    3034    3033    3035    3033    3036    3033    3037
    3042    3046    3042    3047    3042    3048    3041    3042
    3041    3043    3041    3044    3041    3045    3050    3054
    3050    3055    3050    3056    3049    3050    3049    3051
    3049    3052    3049    3053    3058    3062    3058    3063
    3058    3064    3057    3058    3057    3059    3057    3060
    3057    3061    3066    3070    3066    3071    3066    3072
    3065    3066    3065    3067    3065    3068    3065    3069
    3074    3078    3074    3079    3074    3080    3073    3074
    3073    3075    3073    3076    3073    3077    3082    3086
    3082    3087    3082    3088    3081    3082    3081    3083
    3081    3084    3081    3085    3090    3094    3090    3095
    3090    3096    3089    3090    3089    3091    3089    3092
    3089    3093    3098    3102    3098    3103    3098    3104
    3097    3098    3097    3099    3097    3100    3097    3101
    3106    3110    3106    3111    3106    3112    3105    3106
    3105    3107    3105    3108    3105    3109    3114    3118
    3114    3119    3114    3120    3113    3114    3113    3115
    3113    3116    3113    3117    3122    3126    3122    3127
    3122    3128    3121    3122    3121    3123    3121    3124
    3121    3125    3130    3134    3130    3135    3130    3136
    3129    3130    3129    3131    3129    3132    3129    3133
    3138    3142    3138    3143    3138    3144    3137    3138
    3137    3139    3137    3140    3137    3141    3146    3150
    3146    3151    3146    3152    3145    3146    3145    3147
    3145    3148    3145    3149    3154    3158    3154    3159
    3154    3160    3153    3154    3153    3155    3153    3156
    3153    3157    3162    3166    3162    3167    3162    3168
    3161    3162    3161    3163    3161    3164    3161    3165
    3170    3174    3170    3175    3170    3176    3169    3170
    3169    3171    3169    3172    3169    3173    3178    3182
    3178    3183    3178    3184    3177    3178    3177    3179
    3177    3180    3177    3181    3186    3190    3186    3191
    3186    3192    3185    3186    3185    3187    3185    3188
    3185    3189    3194    3198    3194    3199    3194    3200
    3193    3194    3193    3195    3193    3196    3193    3197
    3202    3206    3202    3207    3202    3208    3201    3202
    3201    3203    3201    3204    3201    3205    3210    3214
    3210    3215    3210    3216    3209    3210    3209    3211
    3209    3212    3209    3213    3218    3222    3218    3223
    3218    3224    3217    3218    3217    3219    3217    3220
    3217    3221    3226    3230    3226    3231    3226    3232
    3225    3226    3225    3227    3225    3228    3225    3229
    3234    3238    3234    3239    3234    3240    3233    3234
    3233    3235    3233    3236    3233    3237    3242    3246
    3242    3247    3242    3248    3241    3242    3241    3243
    3241    3244    3241    3245    3250    3254    3250    3255
    3250    3256    3249    3250    3249    3251    3249    3252
    3249    3253    3258    3262    3258    3263    3258    3264
    3257    3258    3257    3259    3257    3260    3257    3261
    3266    3270    3266    3271    3266    3272    3265    3266
    3265    3267    3265    3268    3265    3269    3274    3278
    3274    3279    3274    3280    3273    3274    3273    3275
    3273    3276    3273    3277    3282    3286    3282    3287
    3282    3288    3281    3282    3281    3283    3281    3284
    3281    3285    3290    3294    3290    3295    3290    3296
    3289    3290    3289    3291    3289    3292    3289    3293
    3298    3302    3298    3303    3298    3304    3297    3298
    3297    3299    3297    3300    3297    3301    3306    3310
    3306    3311    3306    3312    3305    3306    3305    3307
    3305    3308    3305    3309    3314    3318    3314    3319
    3314    3320    3313    3314    3313    3315    3313    3316
    3313    3317    3322    3326    3322    3327    3322    3328
    3321    3322    3321    3323    3321    3324    3321    3325
    3330    3334    3330    3335    3330    3336    3329    3330
    3329    3331    3329    3332    3329    3333    3338    3342
    3338    3343    3338    3344    3337    3338    3337    3339
    3337    3340    3337    3341    3346    3350    3346    3351
    3346    3352    3345    3346    3345    3347    3345    3348
    3345    3349    3354    3358    3354    3359    3354    3360
    3353    3354    3353    3355    3353    3356    3353    3357
    3362    3366    3362    3367    3362    3368    3361    3362
    3361    3363    3361    3364    3361    3365    3370    3374
    3370    3375    3370    3376    3369    3370    3369    3371
    3369    3372    3369    3373    3378    3382    3378    3383
    3378    3384    3377    3378    3377    3379    3377    3380
    3377    3381    3386    3390    3386    3391    3386    3392
    3385    3386    3385    3387    3385    3388    3385    3389
    3394    3398    3394    3399    3394    3400    3393    3394
    3393    3395    3393    3396    3393    3397    3402    3406
    3402    3407    3402    3408    3401    3402    3401    3403
    3401    3404    3401    3405    3410    3414    3410    3415
    3410    3416    3409    3410    3409    3411    3409    3412
    3409    3413    3418    3422    3418    3423    3418    3424
    3417    3418    3417    3419    3417    3420    3417    3421
    3426    3430    3426    3431    3426    3432    3425    3426
    3425    3427    3425    3428    3425    3429    3434    3438
    3434    3439    3434    3440    3433    3434    3433    3435
    3433    3436    3433    3437    3442    3446    3442    3447
    3442    3448    3441    3442    3441    3443    3441    3444
    3441    3445    3450    3454    3450    3455    3450    3456
    3449    3450    3449    3451    3449    3452    3449    3453
    3458    3462    3458    3463    3458    3464    3457    3458
    3457    3459    3457    3460    3457    3461    3466    3470
    3466    3471    3466    3472    3465    3466    3465    3467
    3465    3468    3465    3469    3474    3478    3474    3479
    3474    3480    3473    3474    3473    3475    3473    3476
    3473    3477    3482    3486    3482    3487    3482    3488
    3481    3482    3481    3483    3481    3484    3481    3485
    3490    3494    3490    3495    3490    3496    3489    3490
    3489    3491    3489    3492    3489    3493    3498    3502
    3498    3503    3498    3504    3497    3498    3497    3499
    3497    3500    3497    3501    3506    3510    3506    3511
    3506    3512    3505    3506    3505    3507    3505    3508
    3505    3509    3514    3518    3514    3519    3514    3520
    3513    3514    3513    3515    3513    3516    3513    3517
    3522    3526    3522    3527    3522    3528    3521    3522
    3521    3523    3521    3524    3521    3525    3530    3534
    3530    3535    3530    3536    3529    3530    3529    3531
    3529    3532    3529    3533    3538    3542    3538    3543
    3538    3544    3537    3538    3537    3539    3537    3540
    3537    3541    3546    3550    3546    3551    3546    3552
    3545    3546    3545    3547    3545    3548    3545    3549
    3554    3558    3554    3559    3554    3560    3553    3554
    3553    3555    3553    3556    3553    3557    3562    3566
    3562    3567    3562    3568    3561    3562    3561    3563
    3561    3564    3561    3565    3570    3574    3570    3575
    3570    3576    3569    3570    3569    3571    3569    3572
    3569    3573    3578    3582    3578    3583    3578    3584
    3577    3578    3577    3579    3577    3580    3577    3581
    3586    3590    3586    3591    3586    3592    3585    3586
    3585    3587    3585    3588    3585    3589    3594    3598
    3594    3599    3594    3600    3593    3594    3593    3595
    3593    3596    3593    3597    3602    3606    3602    3607
    3602    3608    3601    3602    3601    3603    3601    3604
    3601    3605    3610    3614    3610    3615    3610    3616
    3609    3610    3609    3611    3609    3612    3609    3613
    3618    3622    3618    3623    3618    3624    3617    3618
    3617    3619    3617    3620    3617    3621    3626    3630
    3626    3631    3626    3632    3625    3626    3625    3627
    3625    3628    3625    3629    3634    3638    3634    3639
    3634    3640    3633    3634    3633    3635    3633    3636
    3633    3637    3642    3646    3642    3647    3642    3648
    3641    3642    3641    3643    3641    3644    3641    3645
    3650    3654    3650    3655    3650    3656    3649    3650
    3649    3651    3649    3652    3649    3653    3658    3662
    3658    3663    3658    3664    3657    3658    3657    3659
    3657    3660    3657    3661    3666    3670    3666    3671
    3666    3672    3665    3666    3665    3667    3665    3668
    3665    3669    3674    3678    3674    3679    3674    3680
    3673    3674    3673    3675    3673    3676    3673    3677
    3682    3686    3682    3687    3682    3688    3681    3682
    3681    3683    3681    3684    3681    3685    3690    3694
    3690    3695    3690    3696    3689    3690    3689    3691
    3689    3692    3689    3693    3698    3702    3698    3703
    3698    3704    3697    3698    3697    3699    3697    3700
    3697    3701    3706    3710    3706    3711    3706    3712
    3705    3706    3705    3707    3705    3708    3705    3709
    3714    3718    3714    3719    3714    3720    3713    3714
    3713    3715    3713    3716    3713    3717    3722    3726
    3722    3727    3722    3728    3721    3722    3721    3723
    3721    3724    3721    3725    3730    3734    3730    3735
    3730    3736    3729    3730    3729    3731    3729    3732
    3729    3733    3738    3742    3738    3743    3738    3744
    3737    3738    3737    3739    3737    3740    3737    3741
    3746    3750    3746    3751    3746    3752    3745    3746
    3745    3747    3745    3748    3745    3749    3754    3758
    3754    3759    3754    3760    3753    3754    3753    3755
    3753    3756    3753    3757    3762    3766    3762    3767
    3762    3768    3761    3762    3761    3763    3761    3764
    3761    3765    3770    3774    3770    3775    3770    3776
    3769    3770    3769    3771    3769    3772    3769    3773
    3778    3782    3778    3783    3778    3784    3777    3778
    3777    3779    3777    3780    3777    3781    3786    3790
    3786    3791    3786    3792    3785    3786    3785    3787
    3785    3788    3785    3789    3794    3798    3794    3799
    3794    3800    3793    3794    3793    3795    3793    3796
    3793    3797    3802    3806    3802    3807    3802    3808
    3801    3802    3801    3803    3801    3804    3801    3805
    3810    3814    3810    3815    3810    3816    3809    3810
    3809    3811    3809    3812    3809    3813    3818    3822
    3818    3823    3818    3824    3817    3818    3817    3819
    3817    3820    3817    3821    3826    3830    3826    3831
    3826    3832    3825    3826    3825    3827    3825    3828
    3825    3829    3834    3838    3834    3839    3834    3840
    3833    3834    3833    3835    3833    3836    3833    3837
    3842    3846    3842    3847    3842    3848    3841    3842
    3841    3843    3841    3844    3841    3845    3850    3854
    3850    3855    3850    3856    3849    3850    3849    3851
    3849    3852    3849    3853    3858    3862    3858    3863
    3858    3864    3857    3858    3857    3859    3857    3860
    3857    3861    3866    3870    3866    3871    3866    3872
    3865    3866    3865    3867    3865    3868    3865    3869
    3874    3878    3874    3879    3874    3880    3873    3874
    3873    3875    3873    3876    3873    3877    3882    3886
    3882    3887    3882    3888    3881    3882    3881    3883
    3881    3884    3881    3885    3890    3894    3890    3895
    3890    3896    3889    3890    3889    3891    3889    3892
    3889    3893    3898    3902    3898    3903    3898    3904
    3897    3898    3897    3899    3897    3900    3897    3901
    3906    3910    3906    3911    3906    3912    3905    3906
    3905    3907    3905    3908    3905    3909    3914    3918
    3914    3919    3914    3920    3913    3914    3913    3915
    3913    3916    3913    3917    3922    3926    3922    3927
    3922    3928    3921    3922    3921    3923    3921    3924
    3921    3925    3930    3934    3930    3935    3930    3936
    3929    3930    3929    3931    3929    3932    3929    3933
    3938    3942    3938    3943    3938    3944    3937    3938
    3937    3939    3937    3940    3937    3941    3946    3950
    3946    3951    3946    3952    3945    3946    3945    3947
    3945    3948    3945    3949    3954    3958    3954    3959
    3954    3960    3953    3954    3953    3955    3953    3956
    3953    3957    3962    3966    3962    3967    3962    3968
    3961    3962    3961    3963    3961    3964    3961    3965
    3970    3974    3970    3975    3970    3976    3969    3970
    3969    3971    3969    3972    3969    3973    3978    3982
    3978    3983    3978    3984    3977    3978    3977    3979
    3977    3980    3977    3981    3986    3990    3986    3991
    3986    3992    3985    3986    3985    3987    3985    3988
    3985    3989    3994    3998    3994    3999    3994    4000
    3993    3994    3993    3995    3993    3996    3993    3997
    4002    4006    4002    4007    4002    4008    4001    4002
    4001    4003    4001    4004    4001    4005    4010    4014
    4010    4015    4010    4016    4009    4010    4009    4011
    4009    4012    4009    4013    4018    4022    4018    4023
    4018    4024    4017    4018    4017    4019    4017    4020
    4017    4021    4026    4030    4026    4031    4026    4032
    4025    4026    4025    4027    4025    4028    4025    4029
    4034    4038    4034    4039    4034    4040    4033    4034
    4033    4035    4033    4036    4033    4037    4042    4046
    4042    4047    4042    4048    4041    4042    4041    4043
    4041    4044    4041    4045    4050    4054    4050    4055
    4050    4056    4049    4050    4049    4051    4049    4052
    4049    4053    4058    4062    4058    4063    4058    4064
    4057    4058    4057    4059    4057    4060    4057    4061
    4066    4070    4066    4071    4066    4072    4065    4066
    4065    4067    4065    4068    4065    4069    4074    4078
    4074    4079    4074    4080    4073    4074    4073    4075
    4073    4076    4073    4077    4082    4086    4082    4087
    4082    4088    4081    4082    4081    4083    4081    4084
    4081    4085    4090    4094    4090    4095    4090    4096
    4089    4090    4089    4091    4089    4092    4089    4093
    4098    4102    4098    4103    4098    4104    4097    4098
    4097    4099    4097    4100    4097    4101    4106    4110
    4106    4111    4106    4112    4105    4106    4105    4107
    4105    4108    4105    4109    4114    4118    4114    4119
    4114    4120    4113    4114    4113    4115    4113    4116
    4113    4117    4122    4126    4122    4127    4122    4128
    4121    4122    4121    4123    4121    4124    4121    4125
    4130    4134    4130    4135    4130    4136    4129    4130
    4129    4131    4129    4132    4129    4133    4138    4142
    4138    4143    4138    4144    4137    4138    4137    4139
    4137    4140    4137    4141    4146    4150    4146    4151
    4146    4152    4145    4146    4145    4147    4145    4148
    4145    4149    4154    4158    4154    4159    4154    4160
    4153    4154    4153    4155    4153    4156    4153    4157
    4162    4166    4162    4167    4162    4168    4161    4162
    4161    4163    4161    4164    4161    4165    4170    4174
    4170    4175    4170    4176    4169    4170    4169    4171
    4169    4172    4169    4173    4178    4182    4178    4183
    4178    4184    4177    4178    4177    4179    4177    4180
    4177    4181    4186    4190    4186    4191    4186    4192
    4185    4186    4185    4187    4185    4188    4185    4189
    4194    4198    4194    4199    4194    4200    4193    4194
    4193    4195    4193    4196    4193    4197    4202    4206
    4202    4207    4202    4208    4201    4202    4201    4203
    4201    4204    4201    4205    4210    4214    4210    4215
    4210    4216    4209    4210    4209    4211    4209    4212
    4209    4213    4218    4222    4218    4223    4218    4224
    4217    4218    4217    4219    4217    4220    4217    4221
    4226    4230    4226    4231    4226    4232    4225    4226
    4225    4227    4225    4228    4225    4229    4234    4238
    4234    4239    4234    4240    4233    4234    4233    4235
    4233    4236    4233    4237    4242    4246    4242    4247
    4242    4248    4241    4242    4241    4243    4241    4244
    4241    4245    4250    4254    4250    4255    4250    4256
    4249    4250    4249    4251    4249    4252    4249    4253
    4258    4262    4258    4263    4258    4264    4257    4258
    4257    4259    4257    4260    4257    4261    4266    4270
    4266    4271    4266    4272    4265    4266    4265    4267
    4265    4268    4265    4269    4274    4278    4274    4279
    4274    4280    4273    4274    4273    4275    4273    4276
    4273    4277    4282    4286    4282    4287    4282    4288
    4281    4282    4281    4283    4281    4284    4281    4285
    4290    4294    4290    4295    4290    4296    4289    4290
    4289    4291    4289    4292    4289    4293    4298    4302
    4298    4303    4298    4304    4297    4298    4297    4299
    4297    4300    4297    4301    4306    4310    4306    4311
    4306    4312    4305    4306    4305    4307    4305    4308
    4305    4309    4314    4318    4314    4319    4314    4320
    4313    4314    4313    4315    4313    4316    4313    4317
    4322    4326    4322    4327    4322    4328    4321    4322
    4321    4323    4321    4324    4321    4325    4330    4334
    4330    4335    4330    4336    4329    4330    4329    4331
    4329    4332    4329    4333    4338    4342    4338    4343
    4338    4344    4337    4338    4337    4339    4337    4340
    4337    4341    4346    4350    4346    4351    4346    4352
    4345    4346    4345    4347    4345    4348    4345    4349
    4354    4358    4354    4359    4354    4360    4353    4354
    4353    4355    4353    4356    4353    4357    4362    4366
    4362    4367    4362    4368    4361    4362    4361    4363
    4361    4364    4361    4365    4370    4374    4370    4375
    4370    4376    4369    4370    4369    4371    4369    4372
    4369    4373    4378    4382    4378    4383    4378    4384
    4377    4378    4377    4379    4377    4380    4377    4381
    4386    4390    4386    4391    4386    4392    4385    4386
    4385    4387    4385    4388    4385    4389    4394    4398
    4394    4399    4394    4400    4393    4394    4393    4395
    4393    4396    4393    4397    4402    4406    4402    4407
    4402    4408    4401    4402    4401    4403    4401    4404
    4401    4405    4410    4414    4410    4415    4410    4416
    4409    4410    4409    4411    4409    4412    4409    4413
    4418    4422    4418    4423    4418    4424    4417    4418
    4417    4419    4417    4420    4417    4421    4426    4430
    4426    4431    4426    4432    4425    4426    4425    4427
    4425    4428    4425    4429    4434    4438    4434    4439
    4434    4440    4433    4434    4433    4435    4433    4436
    4433    4437    4442    4446    4442    4447    4442    4448
    4441    4442    4441    4443    4441    4444    4441    4445
    4450    4454    4450    4455    4450    4456    4449    4450
    4449    4451    4449    4452    4449    4453    4458    4462
    4458    4463    4458    4464    4457    4458    4457    4459
    4457    4460    4457    4461    4466    4470    4466    4471
    4466    4472    4465    4466    4465    4467    4465    4468
    4465    4469    4474    4478    4474    4479    4474    4480
    4473    4474    4473    4475    4473    4476    4473    4477
    4482    4486    4482    4487    4482    4488    4481    4482
    4481    4483    4481    4484    4481    4485    4490    4494
    4490    4495    4490    4496    4489    4490    4489    4491
    4489    4492    4489    4493    4498    4502    4498    4503
    4498    4504    4497    4498    4497    4499    4497    4500
    4497    4501    4506    4510    4506    4511    4506    4512
    4505    4506    4505    4507    4505    4508    4505    4509
    4514    4518    4514    4519    4514    4520    4513    4514
    4513    4515    4513    4516    4513    4517    4522    4526
    4522    4527    4522    4528    4521    4522    4521    4523
    4521    4524    4521    4525    4530    4534    4530    4535
    4530    4536    4529    4530    4529    4531    4529    4532
    4529    4533    4538    4542    4538    4543    4538    4544
    4537    4538    4537    4539    4537    4540    4537    4541
    4546    4550    4546    4551    4546    4552    4545    4546
    4545    4547    4545    4548    4545    4549    4554    4558
    4554    4559    4554    4560    4553    4554    4553    4555
    4553    4556    4553    4557    4562    4566    4562    4567
    4562    4568    4561    4562    4561    4563    4561    4564
    4561    4565    4570    4574    4570    4575    4570    4576
    4569    4570    4569    4571    4569    4572    4569    4573
    4578    4582    4578    4583    4578    4584    4577    4578
    4577    4579    4577    4580    4577    4581    4586    4590
    4586    4591    4586    4592    4585    4586    4585    4587
    4585    4588    4585    4589    4594    4598    4594    4599
    4594    4600    4593    4594    4593    4595    4593    4596
    4593    4597    4602    4606    4602    4607    4602    4608
    4601    4602    4601    4603    4601    4604    4601    4605
    4610    4614    4610    4615    4610    4616    4609    4610
    4609    4611    4609    4612    4609    4613    4618    4622
    4618    4623    4618    4624    4617    4618    4617    4619
    4617    4620    4617    4621    4626    4630    4626    4631
    4626    4632    4625    4626    4625    4627    4625    4628
    4625    4629    4634    4638    4634    4639    4634    4640
    4633    4634    4633    4635    4633    4636    4633    4637
    4642    4646    4642    4647    4642    4648    4641    4642
    4641    4643    4641    4644    4641    4645    4650    4654
    4650    4655    4650    4656    4649    4650    4649    4651
    4649    4652    4649    4653    4658    4662    4658    4663
    4658    4664    4657    4658    4657    4659    4657    4660
    4657    4661    4666    4670    4666    4671    4666    4672
    4665    4666    4665    4667    4665    4668    4665    4669
    4674    4678    4674    4679    4674    4680    4673    4674
    4673    4675    4673    4676    4673    4677    4682    4686
    4682    4687    4682    4688    4681    4682    4681    4683
    4681    4684    4681    4685    4690    4694    4690    4695
    4690    4696    4689    4690    4689    4691    4689    4692
    4689    4693    4698    4702    4698    4703    4698    4704
    4697    4698    4697    4699    4697    4700    4697    4701
    4706    4710    4706    4711    4706    4712    4705    4706
    4705    4707    4705    4708    4705    4709    4714    4718
    4714    4719    4714    4720    4713    4714    4713    4715
    4713    4716    4713    4717    4722    4726    4722    4727
    4722    4728    4721    4722    4721    4723    4721    4724
    4721    4725    4730    4734    4730    4735    4730    4736
    4729    4730    4729    4731    4729    4732    4729    4733
    4738    4742    4738    4743    4738    4744    4737    4738
    4737    4739    4737    4740    4737    4741    4746    4750
    4746    4751    4746    4752    4745    4746    4745    4747
    4745    4748    4745    4749    4754    4758    4754    4759
    4754    4760    4753    4754    4753    4755    4753    4756
    4753    4757    4762    4766    4762    4767    4762    4768
    4761    4762    4761    4763    4761    4764    4761    4765
    4770    4774    4770    4775    4770    4776    4769    4770
    4769    4771    4769    4772    4769    4773    4778    4782
    4778    4783    4778    4784    4777    4778    4777    4779
    4777    4780    4777    4781    4786    4790    4786    4791
    4786    4792    4785    4786    4785    4787    4785    4788
    4785    4789    4794    4798    4794    4799    4794    4800
    4793    4794    4793    4795    4793    4796    4793    4797
    4802    4806    4802    4807    4802    4808    4801    4802
    4801    4803    4801    4804    4801    4805    4810    4814
    4810    4815    4810    4816    4809    4810    4809    4811
    4809    4812    4809    4813    4818    4822    4818    4823
    4818    4824    4817    4818    4817    4819    4817    4820
    4817    4821    4826    4830    4826    4831    4826    4832
    4825    4826    4825    4827    4825    4828    4825    4829
    4834    4838    4834    4839    4834    4840    4833    4834
    4833    4835    4833    4836    4833    4837    4842    4846
    4842    4847    4842    4848    4841    4842    4841    4843
    4841    4844    4841    4845    4850    4854    4850    4855
    4850    4856    4849    4850    4849    4851    4849    4852
    4849    4853    4858    4862    4858    4863    4858    4864
    4857    4858    4857    4859    4857    4860    4857    4861
    4866    4870    4866    4871    4866    4872    4865    4866
    4865    4867    4865    4868    4865    4869    4874    4878
    4874    4879    4874    4880    4873    4874    4873    4875
    4873    4876    4873    4877    4882    4886    4882    4887
    4882    4888    4881    4882    4881    4883    4881    4884
    4881    4885    4890    4894    4890    4895    4890    4896
    4889    4890    4889    4891    4889    4892    4889    4893
    4898    4902    4898    4903    4898    4904    4897    4898
    4897    4899    4897    4900    4897    4901    4906    4910
    4906    4911    4906    4912    4905    4906    4905    4907
    4905    4908    4905    4909    4914    4918    4914    4919
    4914    4920    4913    4914    4913    4915    4913    4916
    4913    4917    4922    4926    4922    4927    4922    4928
    4921    4922    4921    4923    4921    4924    4921    4925
    4930    4934    4930    4935    4930    4936    4929    4930
    4929    4931    4929    4932    4929    4933    4938    4942
    4938    4943    4938    4944    4937    4938    4937    4939
    4937    4940    4937    4941    4946    4950    4946    4951
    4946    4952    4945    4946    4945    4947    4945    4948
    4945    4949    4954    4958    4954    4959    4954    4960
    4953    4954    4953    4955    4953    4956    4953    4957
    4962    4966    4962    4967    4962    4968    4961    4962
    4961    4963    4961    4964    4961    4965    4970    4974
    4970    4975    4970    4976    4969    4970    4969    4971
    4969    4972    4969    4973    4978    4982    4978    4983
    4978    4984    4977    4978    4977    4979    4977    4980
    4977    4981    4986    4990    4986    4991    4986    4992
    4985    4986    4985    4987    4985    4988    4985    4989
    4994    4998    4994    4999    4994    5000    4993    4994
    4993    4995    4993    4996    4993    4997    5002    5006
    5002    5007    5002    5008    5001    5002    5001    5003
    5001    5004    5001    5005    5010    5014    5010    5015
    5010    5016    5009    5010    5009    5011    5009    5012
    5009    5013    5018    5022    5018    5023    5018    5024
    5017    5018    5017    5019    5017    5020    5017    5021
    5026    5030    5026    5031    5026    5032    5025    5026
    5025    5027    5025    5028    5025    5029    5034    5038
    5034    5039    5034    5040    5033    5034    5033    5035
    5033    5036    5033    5037    5042    5046    5042    5047
    5042    5048    5041    5042    5041    5043    5041    5044
    5041    5045    5050    5054    5050    5055    5050    5056
    5049    5050    5049    5051    5049    5052    5049    5053
    5058    5062    5058    5063    5058    5064    5057    5058
    5057    5059    5057    5060    5057    5061    5066    5070
    5066    5071    5066    5072    5065    5066    5065    5067
    5065    5068    5065    5069    5074    5078    5074    5079
    5074    5080    5073    5074    5073    5075    5073    5076
    5073    5077    5082    5086    5082    5087    5082    5088
    5081    5082    5081    5083    5081    5084    5081    5085
    5090    5094    5090    5095    5090    5096    5089    5090
    5089    5091    5089    5092    5089    5093    5098    5102
    5098    5103    5098    5104    5097    5098    5097    5099
    5097    5100    5097    5101    5106    5110    5106    5111
    5106    5112    5105    5106    5105    5107    5105    5108
    5105    5109    5114    5118    5114    5119    5114    5120
    5113    5114    5113    5115    5113    5116    5113    5117
    5122    5126    5122    5127    5122    5128    5121    5122
    5121    5123    5121    5124    5121    5125    5130    5134
    5130    5135    5130    5136    5129    5130    5129    5131
    5129    5132    5129    5133    5138    5142    5138    5143
    5138    5144    5137    5138    5137    5139    5137    5140
    5137    5141    5146    5150    5146    5151    5146    5152
    5145    5146    5145    5147    5145    5148    5145    5149
    5154    5158    5154    5159    5154    5160    5153    5154
    5153    5155    5153    5156    5153    5157    5162    5166
    5162    5167    5162    5168    5161    5162    5161    5163
    5161    5164    5161    5165    5170    5174    5170    5175
    5170    5176    5169    5170    5169    5171    5169    5172
    5169    5173    5178    5182    5178    5183    5178    5184
    5177    5178    5177    5179    5177    5180    5177    5181
    5186    5190    5186    5191    5186    5192    5185    5186
    5185    5187    5185    5188    5185    5189    5194    5198
    5194    5199    5194    5200    5193    5194    5193    5195
    5193    5196    5193    5197    5202    5206    5202    5207
    5202    5208    5201    5202    5201    5203    5201    5204
    5201    5205    5210    5214    5210    5215    5210    5216
    5209    5210    5209    5211    5209    5212    5209    5213
    5218    5222    5218    5223    5218    5224    5217    5218
    5217    5219    5217    5220    5217    5221    5226    5230
    5226    5231    5226    5232    5225    5226    5225    5227
    5225    5228    5225    5229    5234    5238    5234    5239
    5234    5240    5233    5234    5233    5235    5233    5236
    5233    5237    5242    5246    5242    5247    5242    5248
    5241    5242    5241    5243    5241    5244    5241    5245
    5250    5254    5250    5255    5250    5256    5249    5250
    5249    5251    5249    5252    5249    5253    5258    5262
    5258    5263    5258    5264    5257    5258    5257    5259
    5257    5260    5257    5261    5266    5270    5266    5271
    5266    5272    5265    5266    5265    5267    5265    5268
    5265    5269    5274    5278    5274    5279    5274    5280
    5273    5274    5273    5275    5273    5276    5273    5277
    5282    5286    5282    5287    5282    5288    5281    5282
    5281    5283    5281    5284    5281    5285    5290    5294
    5290    5295    5290    5296    5289    5290    5289    5291
    5289    5292    5289    5293    5298    5302    5298    5303
    5298    5304    5297    5298    5297    5299    5297    5300
    5297    5301    5306    5310    5306    5311    5306    5312
    5305    5306    5305    5307    5305    5308    5305    5309
    5314    5318    5314    5319    5314    5320    5313    5314
    5313    5315    5313    5316    5313    5317    5322    5326
    5322    5327    5322    5328    5321    5322    5321    5323
    5321    5324    5321    5325    5330    5334    5330    5335
    5330    5336    5329    5330    5329    5331    5329    5332
    5329    5333    5338    5342    5338    5343    5338    5344
    5337    5338    5337    5339    5337    5340    5337    5341
    5346    5350    5346    5351    5346    5352    5345    5346
    5345    5347    5345    5348    5345    5349    5354    5358
    5354    5359    5354    5360    5353    5354    5353    5355
    5353    5356    5353    5357    5362    5366    5362    5367
    5362    5368    5361    5362    5361    5363    5361    5364
    5361    5365    5370    5374    5370    5375    5370    5376
    5369    5370    5369    5371    5369    5372    5369    5373
    5378    5382    5378    5383    5378    5384    5377    5378
    5377    5379    5377    5380    5377    5381    5386    5390
    5386    5391    5386    5392    5385    5386    5385    5387
    5385    5388    5385    5389    5394    5398    5394    5399
    5394    5400    5393    5394    5393    5395    5393    5396
    5393    5397    5402    5406    5402    5407    5402    5408
    5401    5402    5401    5403    5401    5404    5401    5405
    5410    5414    5410    5415    5410    5416    5409    5410
    5409    5411    5409    5412    5409    5413    5418    5422
    5418    5423    5418    5424    5417    5418    5417    5419
    5417    5420    5417    5421    5426    5430    5426    5431
    5426    5432    5425    5426    5425    5427    5425    5428
    5425    5429    5434    5438    5434    5439    5434    5440
    5433    5434    5433    5435    5433    5436    5433    5437
    5442    5446    5442    5447    5442    5448    5441    5442
    5441    5443    5441    5444    5441    5445    5450    5454
    5450    5455    5450    5456    5449    5450    5449    5451
    5449    5452    5449    5453    5458    5462    5458    5463
    5458    5464    5457    5458    5457    5459    5457    5460
    5457    5461    5466    5470    5466    5471    5466    5472
    5465    5466    5465    5467    5465    5468    5465    5469
    5474    5478    5474    5479    5474    5480    5473    5474
    5473    5475    5473    5476    5473    5477    5482    5486
    5482    5487    5482    5488    5481    5482    5481    5483
    5481    5484    5481    5485    5490    5494    5490    5495
    5490    5496    5489    5490    5489    5491    5489    5492
    5489    5493    5498    5502    5498    5503    5498    5504
    5497    5498    5497    5499    5497    5500    5497    5501
    5506    5510    5506    5511    5506    5512    5505    5506
    5505    5507    5505    5508    5505    5509    5514    5518
    5514    5519    5514    5520    5513    5514    5513    5515
    5513    5516    5513    5517    5522    5526    5522    5527
    5522    5528    5521    5522    5521    5523    5521    5524
    5521    5525    5530    5534    5530    5535    5530    5536
    5529    5530    5529    5531    5529    5532    5529    5533
    5538    5542    5538    5543    5538    5544    5537    5538
    5537    5539    5537    5540    5537    5541    5546    5550
    5546    5551    5546    5552    5545    5546    5545    5547
    5545    5548    5545    5549    5554    5558    5554    5559
    5554    5560    5553    5554    5553    5555    5553    5556
    5553    5557    5562    5566    5562    5567    5562    5568
    5561    5562    5561    5563    5561    5564    5561    5565
    5570    5574    5570    5575    5570    5576    5569    5570
    5569    5571    5569    5572    5569    5573    5578    5582
    5578    5583    5578    5584    5577    5578    5577    5579
    5577    5580    5577    5581    5586    5590    5586    5591
    5586    5592    5585    5586    5585    5587    5585    5588
    5585    5589    5594    5598    5594    5599    5594    5600
    5593    5594    5593    5595    5593    5596    5593    5597
    5602    5606    5602    5607    5602    5608    5601    5602
    5601    5603    5601    5604    5601    5605    5610    5614
    5610    5615    5610    5616    5609    5610    5609    5611
    5609    5612    5609    5613    5618    5622    5618    5623
    5618    5624    5617    5618    5617    5619    5617    5620
    5617    5621    5626    5630    5626    5631    5626    5632
    5625    5626    5625    5627    5625    5628    5625    5629
    5634    5638    5634    5639    5634    5640    5633    5634
    5633    5635    5633    5636    5633    5637    5642    5646
    5642    5647    5642    5648    5641    5642    5641    5643
    5641    5644    5641    5645    5650    5654    5650    5655
    5650    5656    5649    5650    5649    5651    5649    5652
    5649    5653

    8484 !NTHETA: angles 
       2       1       3       2       1       4       2       1       5
       4       1       3       5       1       3       5       1       4
       1       2       6       1       2       7       1       2       8
       7       2       6       8       2       6       8       2       7
      10       9      11      10       9      12      10       9      13
      12       9      11      13       9      11      13       9      12
       9      10      14       9      10      15       9      10      16
      15      10      14      16      10      14      16      10      15
      18      17      19      18      17      20      18      17      21
      20      17      19      21      17      19      21      17      20
      17      18      22      17      18      23      17      18      24
      23      18      22      24      18      22      24      18      23
      26      25      27      26      25      28      26      25      29
      28      25      27      29      25      27      29      25      28
      25      26      30      25      26      31      25      26      32
      31      26      30      32      26      30      32      26      31
      34      33      35      34      33      36      34      33      37
      36      33      35      37      33      35      37      33      36
      33      34      38      33      34      39      33      34      40
      39      34      38      40      34      38      40      34      39
      42      41      43      42      41      44      42      41      45
      44      41      43      45      41      43      45      41      44
      41      42      46      41      42      47      41      42      48
      47      42      46      48      42      46      48      42      47
      50      49      51      50      49      52      50      49      53
      52      49      51      53      49      51      53      49      52
      49      50      54      49      50      55      49      50      56
      55      50      54      56      50      54      56      50      55
      58      57      59      58      57      60      58      57      61
      60      57      59      61      57      59      61      57      60
      57      58      62      57      58      63      57      58      64
      63      58      62      64      58      62      64      58      63
      66      65      67      66      65      68      66      65      69
      68      65      67      69      65      67      69      65      68
      65      66      70      65      66      71      65      66      72
      71      66      70      72      66      70      72      66      71
      74      73      75      74      73      76      74      73      77
      76      73      75      77      73      75      77      73      76
      73      74      78      73      74      79      73      74      80
      79      74      78      80      74      78      80      74      79
      82      81      83      82      81      84      82      81      85
      84      81      83      85      81      83      85      81      84
      81      82      86      81      82      87      81      82      88
      87      82      86      88      82      86      88      82      87
      90      89      91      90      89      92      90      89      93
      92      89      91      93      89      91      93      89      92
      89      90      94      89      90      95      89      90      96
      95      90      94      96      90      94      96      90      95
      98      97      99      98      97     100      98      97     101
     100      97      99     101      97      99     101      97     100
      97      98     102      97      98     103      97      98     104
     103      98     102     104      98     102     104      98     103
     106     105     107     106     105     108     106     105     109
     108     105     107     109     105     107     109     105     108
     105     106     110     105     106     111     105     106     112
     111     106     110     112     106     110     112     106     111
     114     113     115     114     113     116     114     113     117
     116     113     115     117     113     115     117     113     116
     113     114     118     113     114     119     113     114     120
     119     114     118     120     114     118     120     114     119
     122     121     123     122     121     124     122     121     125
     124     121     123     125     121     123     125     121     124
     121     122     126     121     122     127     121     122     128
     127     122     126     128     122     126     128     122     127
     130     129     131     130     129     132     130     129     133
     132     129     131     133     129     131     133     129     132
     129     130     134     129     130     135     129     130     136
     135     130     134     136     130     134     136     130     135
     138     137     139     138     137     140     138     137     141
     140     137     139     141     137     139     141     137     140
     137     138     142     137     138     143     137     138     144
     143     138     142     144     138     142     144     138     143
     146     145     147     146     145     148     146     145     149
     148     145     147     149     145     147     149     145     148
     145     146     150     145     146     151     145     146     152
     151     146     150     152     146     150     152     146     151
     154     153     155     154     153     156     154     153     157
     156     153     155     157     153     155     157     153     156
     153     154     158     153     154     159     153     154     160
     159     154     158     160     154     158     160     154     159
     162     161     163     162     161     164     162     161     165
     164     161     163     165     161     163     165     161     164
     161     162     166     161     162     167     161     162     168
     167     162     166     168     162     166     168     162     167
     170     169     171     170     169     172     170     169     173
     172     169     171     173     169     171     173     169     172
     169     170     174     169     170     175     169     170     176
     175     170     174     176     170     174     176     170     175
     178     177     179     178     177     180     178     177     181
     180     177     179     181     177     179     181     177     180
     177     178     182     177     178     183     177     178     184
     183     178     182     184     178     182     184     178     183
     186     185     187     186     185     188     186     185     189
     188     185     187     189     185     187     189     185     188
     185     186     190     185     186     191     185     186     192
     191     186     190     192     186     190     192     186     191
     194     193     195     194     193     196     194     193     197
     196     193     195     197     193     195     197     193     196
     193     194     198     193     194     199     193     194     200
     199     194     198     200     194     198     200     194     199
     202     201     203     202     201     204     202     201     205
     204     201     203     205     201     203     205     201     204
     201     202     206     201     202     207     201     202     208
     207     202     206     208     202     206     208     202     207
     210     209     211     210     209     212     210     209     213
     212     209     211     213     209     211     213     209     212
     209     210     214     209     210     215     209     210     216
     215     210     214     216     210     214     216     210     215
     218     217     219     218     217     220     218     217     221
     220     217     219     221     217     219     221     217     220
     217     218     222     217     218     223     217     218     224
     223     218     222     224     218     222     224     218     223
     226     225     227     226     225     228     226     225     229
     228     225     227     229     225     227     229     225     228
     225     226     230     225     226     231     225     226     232
     231     226     230     232     226     230     232     226     231
     234     233     235     234     233     236     234     233     237
     236     233     235     237     233     235     237     233     236
     233     234     238     233     234     239     233     234     240
     239     234     238     240     234     238     240     234     239
     242     241     243     242     241     244     242     241     245
     244     241     243     245     241     243     245     241     244
     241     242     246     241     242     247     241     242     248
     247     242     246     248     242     246     248     242     247
     250     249     251     250     249     252     250     249     253
     252     249     251     253     249     251     253     249     252
     249     250     254     249     250     255     249     250     256
     255     250     254     256     250     254     256     250     255
     258     257     259     258     257     260     258     257     261
     260     257     259     261     257     259     261     257     260
     257     258     262     257     258     263     257     258     264
     263     258     262     264     258     262     264     258     263
     266     265     267     266     265     268     266     265     269
     268     265     267     269     265     267     269     265     268
     265     266     270     265     266     271     265     266     272
     271     266     270     272     266     270     272     266     271
     274     273     275     274     273     276     274     273     277
     276     273     275     277     273     275     277     273     276
     273     274     278     273     274     279     273     274     280
     279     274     278     280     274     278     280     274     279
     282     281     283     282     281     284     282     281     285
     284     281     283     285     281     283     285     281     284
     281     282     286     281     282     287     281     282     288
     287     282     286     288     282     286     288     282     287
     290     289     291     290     289     292     290     289     293
     292     289     291     293     289     291     293     289     292
     289     290     294     289     290     295     289     290     296
     295     290     294     296     290     294     296     290     295
     298     297     299     298     297     300     298     297     301
     300     297     299     301     297     299     301     297     300
     297     298     302     297     298     303     297     298     304
     303     298     302     304     298     302     304     298     303
     306     305     307     306     305     308     306     305     309
     308     305     307     309     305     307     309     305     308
     305     306     310     305     306     311     305     306     312
     311     306     310     312     306     310     312     306     311
     314     313     315     314     313     316     314     313     317
     316     313     315     317     313     315     317     313     316
     313     314     318     313     314     319     313     314     320
     319     314     318     320     314     318     320     314     319
     322     321     323     322     321     324     322     321     325
     324     321     323     325     321     323     325     321     324
     321     322     326     321     322     327     321     322     328
     327     322     326     328     322     326     328     322     327
     330     329     331     330     329     332     330     329     333
     332     329     331     333     329     331     333     329     332
     329     330     334     329     330     335     329     330     336
     335     330     334     336     330     334     336     330     335
     338     337     339     338     337     340     338     337     341
     340     337     339     341     337     339     341     337     340
     337     338     342     337     338     343     337     338     344
     343     338     342     344     338     342     344     338     343
     346     345     347     346     345     348     346     345     349
     348     345     347     349     345     347     349     345     348
     345     346     350     345     346     351     345     346     352
     351     346     350     352     346     350     352     346     351
     354     353     355     354     353     356     354     353     357
     356     353     355     357     353     355     357     353     356
     353     354     358     353     354     359     353     354     360
     359     354     358     360     354     358     360     354     359
     362     361     363     362     361     364     362     361     365
     364     361     363     365     361     363     365     361     364
     361     362     366     361     362     367     361     362     368
     367     362     366     368     362     366     368     362     367
     370     369     371     370     369     372     370     369     373
     372     369     371     373     369     371     373     369     372
     369     370     374     369     370     375     369     370     376
     375     370     374     376     370     374     376     370     375
     378     377     379     378     377     380     378     377     381
     380     377     379     381     377     379     381     377     380
     377     378     382     377     378     383     377     378     384
     383     378     382     384     378     382     384     378     383
     386     385     387     386     385     388     386     385     389
     388     385     387     389     385     387     389     385     388
     385     386     390     385     386     391     385     386     392
     391     386     390     392     386     390     392     386     391
     394     393     395     394     393     396     394     393     397
     396     393     395     397     393     395     397     393     396
     393     394     398     393     394     399     393     394     400
     399     394     398     400     394     398     400     394     399
     402     401     403     402     401     404     402     401     405
     404     401     403     405     401     403     405     401     404
     401     402     406     401     402     407     401     402     408
     407     402     406     408     402     406     408     402     407
     410     409     411     410     409     412     410     409     413
     412     409     411     413     409     411     413     409     412
     409     410     414     409     410     415     409     410     416
     415     410     414     416     410     414     416     410     415
     418     417     419     418     417     420     418     417     421
     420     417     419     421     417     419     421     417     420
     417     418     422     417     418     423     417     418     424
     423     418     422     424     418     422     424     418     423
     426     425     427     426     425     428     426     425     429
     428     425     427     429     425     427     429     425     428
     425     426     430     425     426     431     425     426     432
     431     426     430     432     426     430     432     426     431
     434     433     435     434     433     436     434     433     437
     436     433     435     437     433     435     437     433     436
     433     434     438     433     434     439     433     434     440
     439     434     438     440     434     438     440     434     439
     442     441     443     442     441     444     442     441     445
     444     441     443     445     441     443     445     441     444
     441     442     446     441     442     447     441     442     448
     447     442     446     448     442     446     448     442     447
     450     449     451     450     449     452     450     449     453
     452     449     451     453     449     451     453     449     452
     449     450     454     449     450     455     449     450     456
     455     450     454     456     450     454     456     450     455
     458     457     459     458     457     460     458     457     461
     460     457     459     461     457     459     461     457     460
     457     458     462     457     458     463     457     458     464
     463     458     462     464     458     462     464     458     463
     466     465     467     466     465     468     466     465     469
     468     465     467     469     465     467     469     465     468
     465     466     470     465     466     471     465     466     472
     471     466     470     472     466     470     472     466     471
     474     473     475     474     473     476     474     473     477
     476     473     475     477     473     475     477     473     476
     473     474     478     473     474     479     473     474     480
     479     474     478     480     474     478     480     474     479
     482     481     483     482     481     484     482     481     485
     484     481     483     485     481     483     485     481     484
     481     482     486     481     482     487     481     482     488
     487     482     486     488     482     486     488     482     487
     490     489     491     490     489     492     490     489     493
     492     489     491     493     489     491     493     489     492
     489     490     494     489     490     495     489     490     496
     495     490     494     496     490     494     496     490     495
     498     497     499     498     497     500     498     497     501
     500     497     499     501     497     499     501     497     500
     497     498     502     497     498     503     497     498     504
     503     498     502     504     498     502     504     498     503
     506     505     507     506     505     508     506     505     509
     508     505     507     509     505     507     509     505     508
     505     506     510     505     506     511     505     506     512
     511     506     510     512     506     510     512     506     511
     514     513     515     514     513     516     514     513     517
     516     513     515     517     513     515     517     513     516
     513     514     518     513     514     519     513     514     520
     519     514     518     520     514     518     520     514     519
     522     521     523     522     521     524     522     521     525
     524     521     523     525     521     523     525     521     524
     521     522     526     521     522     527     521     522     528
     527     522     526     528     522     526     528     522     527
     530     529     531     530     529     532     530     529     533
     532     529     531     533     529     531     533     529     532
     529     530     534     529     530     535     529     530     536
     535     530     534     536     530     534     536     530     535
     538     537     539     538     537     540     538     537     541
     540     537     539     541     537     539     541     537     540
     537     538     542     537     538     543     537     538     544
     543     538     542     544     538     542     544     538     543
     546     545     547     546     545     548     546     545     549
     548     545     547     549     545     547     549     545     548
     545     546     550     545     546     551     545     546     552
     551     546     550     552     546     550     552     546     551
     554     553     555     554     553     556     554     553     557
     556     553     555     557     553     555     557     553     556
     553     554     558     553     554     559     553     554     560
     559     554     558     560     554     558     560     554     559
     562     561     563     562     561     564     562     561     565
     564     561     563     565     561     563     565     561     564
     561     562     566     561     562     567     561     562     568
     567     562     566     568     562     566     568     562     567
     570     569     571     570     569     572     570     569     573
     572     569     571     573     569     571     573     569     572
     569     570     574     569     570     575     569     570     576
     575     570     574     576     570     574     576     570     575
     578     577     579     578     577     580     578     577     581
     580     577     579     581     577     579     581     577     580
     577     578     582     577     578     583     577     578     584
     583     578     582     584     578     582     584     578     583
     586     585     587     586     585     588     586     585     589
     588     585     587     589     585     587     589     585     588
     585     586     590     585     586     591     585     586     592
     591     586     590     592     586     590     592     586     591
     594     593     595     594     593     596     594     593     597
     596     593     595     597     593     595     597     593     596
     593     594     598     593     594     599     593     594     600
     599     594     598     600     594     598     600     594     599
     602     601     603     602     601     604     602     601     605
     604     601     603     605     601     603     605     601     604
     601     602     606     601     602     607     601     602     608
     607     602     606     608     602     606     608     602     607
     610     609     611     610     609     612     610     609     613
     612     609     611     613     609     611     613     609     612
     609     610     614     609     610     615     609     610     616
     615     610     614     616     610     614     616     610     615
     618     617     619     618     617     620     618     617     621
     620     617     619     621     617     619     621     617     620
     617     618     622     617     618     623     617     618     624
     623     618     622     624     618     622     624     618     623
     626     625     627     626     625     628     626     625     629
     628     625     627     629     625     627     629     625     628
     625     626     630     625     626     631     625     626     632
     631     626     630     632     626     630     632     626     631
     634     633     635     634     633     636     634     633     637
     636     633     635     637     633     635     637     633     636
     633     634     638     633     634     639     633     634     640
     639     634     638     640     634     638     640     634     639
     642     641     643     642     641     644     642     641     645
     644     641     643     645     641     643     645     641     644
     641     642     646     641     642     647     641     642     648
     647     642     646     648     642     646     648     642     647
     650     649     651     650     649     652     650     649     653
     652     649     651     653     649     651     653     649     652
     649     650     654     649     650     655     649     650     656
     655     650     654     656     650     654     656     650     655
     658     657     659     658     657     660     658     657     661
     660     657     659     661     657     659     661     657     660
     657     658     662     657     658     663     657     658     664
     663     658     662     664     658     662     664     658     663
     666     665     667     666     665     668     666     665     669
     668     665     667     669     665     667     669     665     668
     665     666     670     665     666     671     665     666     672
     671     666     670     672     666     670     672     666     671
     674     673     675     674     673     676     674     673     677
     676     673     675     677     673     675     677     673     676
     673     674     678     673     674     679     673     674     680
     679     674     678     680     674     678     680     674     679
     682     681     683     682     681     684     682     681     685
     684     681     683     685     681     683     685     681     684
     681     682     686     681     682     687     681     682     688
     687     682     686     688     682     686     688     682     687
     690     689     691     690     689     692     690     689     693
     692     689     691     693     689     691     693     689     692
     689     690     694     689     690     695     689     690     696
     695     690     694     696     690     694     696     690     695
     698     697     699     698     697     700     698     697     701
     700     697     699     701     697     699     701     697     700
     697     698     702     697     698     703     697     698     704
     703     698     702     704     698     702     704     698     703
     706     705     707     706     705     708     706     705     709
     708     705     707     709     705     707     709     705     708
     705     706     710     705     706     711     705     706     712
     711     706     710     712     706     710     712     706     711
     714     713     715     714     713     716     714     713     717
     716     713     715     717     713     715     717     713     716
     713     714     718     713     714     719     713     714     720
     719     714     718     720     714     718     720     714     719
     722     721     723     722     721     724     722     721     725
     724     721     723     725     721     723     725     721     724
     721     722     726     721     722     727     721     722     728
     727     722     726     728     722     726     728     722     727
     730     729     731     730     729     732     730     729     733
     732     729     731     733     729     731     733     729     732
     729     730     734     729     730     735     729     730     736
     735     730     734     736     730     734     736     730     735
     738     737     739     738     737     740     738     737     741
     740     737     739     741     737     739     741     737     740
     737     738     742     737     738     743     737     738     744
     743     738     742     744     738     742     744     738     743
     746     745     747     746     745     748     746     745     749
     748     745     747     749     745     747     749     745     748
     745     746     750     745     746     751     745     746     752
     751     746     750     752     746     750     752     746     751
     754     753     755     754     753     756     754     753     757
     756     753     755     757     753     755     757     753     756
     753     754     758     753     754     759     753     754     760
     759     754     758     760     754     758     760     754     759
     762     761     763     762     761     764     762     761     765
     764     761     763     765     761     763     765     761     764
     761     762     766     761     762     767     761     762     768
     767     762     766     768     762     766     768     762     767
     770     769     771     770     769     772     770     769     773
     772     769     771     773     769     771     773     769     772
     769     770     774     769     770     775     769     770     776
     775     770     774     776     770     774     776     770     775
     778     777     779     778     777     780     778     777     781
     780     777     779     781     777     779     781     777     780
     777     778     782     777     778     783     777     778     784
     783     778     782     784     778     782     784     778     783
     786     785     787     786     785     788     786     785     789
     788     785     787     789     785     787     789     785     788
     785     786     790     785     786     791     785     786     792
     791     786     790     792     786     790     792     786     791
     794     793     795     794     793     796     794     793     797
     796     793     795     797     793     795     797     793     796
     793     794     798     793     794     799     793     794     800
     799     794     798     800     794     798     800     794     799
     802     801     803     802     801     804     802     801     805
     804     801     803     805     801     803     805     801     804
     801     802     806     801     802     807     801     802     808
     807     802     806     808     802     806     808     802     807
     810     809     811     810     809     812     810     809     813
     812     809     811     813     809     811     813     809     812
     809     810     814     809     810     815     809     810     816
     815     810     814     816     810     814     816     810     815
     818     817     819     818     817     820     818     817     821
     820     817     819     821     817     819     821     817     820
     817     818     822     817     818     823     817     818     824
     823     818     822     824     818     822     824     818     823
     826     825     827     826     825     828     826     825     829
     828     825     827     829     825     827     829     825     828
     825     826     830     825     826     831     825     826     832
     831     826     830     832     826     830     832     826     831
     834     833     835     834     833     836     834     833     837
     836     833     835     837     833     835     837     833     836
     833     834     838     833     834     839     833     834     840
     839     834     838     840     834     838     840     834     839
     842     841     843     842     841     844     842     841     845
     844     841     843     845     841     843     845     841     844
     841     842     846     841     842     847     841     842     848
     847     842     846     848     842     846     848     842     847
     850     849     851     850     849     852     850     849     853
     852     849     851     853     849     851     853     849     852
     849     850     854     849     850     855     849     850     856
     855     850     854     856     850     854     856     850     855
     858     857     859     858     857     860     858     857     861
     860     857     859     861     857     859     861     857     860
     857     858     862     857     858     863     857     858     864
     863     858     862     864     858     862     864     858     863
     866     865     867     866     865     868     866     865     869
     868     865     867     869     865     867     869     865     868
     865     866     870     865     866     871     865     866     872
     871     866     870     872     866     870     872     866     871
     874     873     875     874     873     876     874     873     877
     876     873     875     877     873     875     877     873     876
     873     874     878     873     874     879     873     874     880
     879     874     878     880     874     878     880     874     879
     882     881     883     882     881     884     882     881     885
     884     881     883     885     881     883     885     881     884
     881     882     886     881     882     887     881     882     888
     887     882     886     888     882     886     888     882     887
     890     889     891     890     889     892     890     889     893
     892     889     891     893     889     891     893     889     892
     889     890     894     889     890     895     889     890     896
     895     890     894     896     890     894     896     890     895
     898     897     899     898     897     900     898     897     901
     900     897     899     901     897     899     901     897     900
     897     898     902     897     898     903     897     898     904
     903     898     902     904     898     902     904     898     903
     906     905     907     906     905     908     906     905     909
     908     905     907     909     905     907     909     905     908
     905     906     910     905     906     911     905     906     912
     911     906     910     912     906     910     912     906     911
     914     913     915     914     913     916     914     913     917
     916     913     915     917     913     915     917     913     916
     913     914     918     913     914     919     913     914     920
     919     914     918     920     914     918     920     914     919
     922     921     923     922     921     924     922     921     925
     924     921     923     925     921     923     925     921     924
     921     922     926     921     922     927     921     922     928
     927     922     926     928     922     926     928     922     927
     930     929     931     930     929     932     930     929     933
     932     929     931     933     929     931     933     929     932
     929     930     934     929     930     935     929     930     936
     935     930     934     936     930     934     936     930     935
     938     937     939     938     937     940     938     937     941
     940     937     939     941     937     939     941     937     940
     937     938     942     937     938     943     937     938     944
     943     938     942     944     938     942     944     938     943
     946     945     947     946     945     948     946     945     949
     948     945     947     949     945     947     949     945     948
     945     946     950     945     946     951     945     946     952
     951     946     950     952     946     950     952     946     951
     954     953     955     954     953     956     954     953     957
     956     953     955     957     953     955     957     953     956
     953     954     958     953     954     959     953     954     960
     959     954     958     960     954     958     960     954     959
     962     961     963     962     961     964     962     961     965
     964     961     963     965     961     963     965     961     964
     961     962     966     961     962     967     961     962     968
     967     962     966     968     962     966     968     962     967
     970     969     971     970     969     972     970     969     973
     972     969     971     973     969     971     973     969     972
     969     970     974     969     970     975     969     970     976
     975     970     974     976     970     974     976     970     975
     978     977     979     978     977     980     978     977     981
     980     977     979     981     977     979     981     977     980
     977     978     982     977     978     983     977     978     984
     983     978     982     984     978     982     984     978     983
     986     985     987     986     985     988     986     985     989
     988     985     987     989     985     987     989     985     988
     985     986     990     985     986     991     985     986     992
     991     986     990     992     986     990     992     986     991
     994     993     995     994     993     996     994     993     997
     996     993     995     997     993     995     997     993     996
     993     994     998     993     994     999     993     994    1000
     999     994     998    1000     994     998    1000     994     999
    1002    1001    1003    1002    1001    1004    1002    1001    1005
    1004    1001    1003    1005    1001    1003    1005    1001    1004
    1001    1002    1006    1001    1002    1007    1001    1002    1008
    1007    1002    1006    1008    1002    1006    1008    1002    1007
    1010    1009    1011    1010    1009    1012    1010    1009    1013
    1012    1009    1011    1013    1009    1011    1013    1009    1012
    1009    1010    1014    1009    1010    1015    1009    1010    1016
    1015    1010    1014    1016    1010    1014    1016    1010    1015
    1018    1017    1019    1018    1017    1020    1018    1017    1021
    1020    1017    1019    1021    1017    1019    1021    1017    1020
    1017    1018    1022    1017    1018    1023    1017    1018    1024
    1023    1018    1022    1024    1018    1022    1024    1018    1023
    1026    1025    1027    1026    1025    1028    1026    1025    1029
    1028    1025    1027    1029    1025    1027    1029    1025    1028
    1025    1026    1030    1025    1026    1031    1025    1026    1032
    1031    1026    1030    1032    1026    1030    1032    1026    1031
    1034    1033    1035    1034    1033    1036    1034    1033    1037
    1036    1033    1035    1037    1033    1035    1037    1033    1036
    1033    1034    1038    1033    1034    1039    1033    1034    1040
    1039    1034    1038    1040    1034    1038    1040    1034    1039
    1042    1041    1043    1042    1041    1044    1042    1041    1045
    1044    1041    1043    1045    1041    1043    1045    1041    1044
    1041    1042    1046    1041    1042    1047    1041    1042    1048
    1047    1042    1046    1048    1042    1046    1048    1042    1047
    1050    1049    1051    1050    1049    1052    1050    1049    1053
    1052    1049    1051    1053    1049    1051    1053    1049    1052
    1049    1050    1054    1049    1050    1055    1049    1050    1056
    1055    1050    1054    1056    1050    1054    1056    1050    1055
    1058    1057    1059    1058    1057    1060    1058    1057    1061
    1060    1057    1059    1061    1057    1059    1061    1057    1060
    1057    1058    1062    1057    1058    1063    1057    1058    1064
    1063    1058    1062    1064    1058    1062    1064    1058    1063
    1066    1065    1067    1066    1065    1068    1066    1065    1069
    1068    1065    1067    1069    1065    1067    1069    1065    1068
    1065    1066    1070    1065    1066    1071    1065    1066    1072
    1071    1066    1070    1072    1066    1070    1072    1066    1071
    1074    1073    1075    1074    1073    1076    1074    1073    1077
    1076    1073    1075    1077    1073    1075    1077    1073    1076
    1073    1074    1078    1073    1074    1079    1073    1074    1080
    1079    1074    1078    1080    1074    1078    1080    1074    1079
    1082    1081    1083    1082    1081    1084    1082    1081    1085
    1084    1081    1083    1085    1081    1083    1085    1081    1084
    1081    1082    1086    1081    1082    1087    1081    1082    1088
    1087    1082    1086    1088    1082    1086    1088    1082    1087
    1090    1089    1091    1090    1089    1092    1090    1089    1093
    1092    1089    1091    1093    1089    1091    1093    1089    1092
    1089    1090    1094    1089    1090    1095    1089    1090    1096
    1095    1090    1094    1096    1090    1094    1096    1090    1095
    1098    1097    1099    1098    1097    1100    1098    1097    1101
    1100    1097    1099    1101    1097    1099    1101    1097    1100
    1097    1098    1102    1097    1098    1103    1097    1098    1104
    1103    1098    1102    1104    1098    1102    1104    1098    1103
    1106    1105    1107    1106    1105    1108    1106    1105    1109
    1108    1105    1107    1109    1105    1107    1109    1105    1108
    1105    1106    1110    1105    1106    1111    1105    1106    1112
    1111    1106    1110    1112    1106    1110    1112    1106    1111
    1114    1113    1115    1114    1113    1116    1114    1113    1117
    1116    1113    1115    1117    1113    1115    1117    1113    1116
    1113    1114    1118    1113    1114    1119    1113    1114    1120
    1119    1114    1118    1120    1114    1118    1120    1114    1119
    1122    1121    1123    1122    1121    1124    1122    1121    1125
    1124    1121    1123    1125    1121    1123    1125    1121    1124
    1121    1122    1126    1121    1122    1127    1121    1122    1128
    1127    1122    1126    1128    1122    1126    1128    1122    1127
    1130    1129    1131    1130    1129    1132    1130    1129    1133
    1132    1129    1131    1133    1129    1131    1133    1129    1132
    1129    1130    1134    1129    1130    1135    1129    1130    1136
    1135    1130    1134    1136    1130    1134    1136    1130    1135
    1138    1137    1139    1138    1137    1140    1138    1137    1141
    1140    1137    1139    1141    1137    1139    1141    1137    1140
    1137    1138    1142    1137    1138    1143    1137    1138    1144
    1143    1138    1142    1144    1138    1142    1144    1138    1143
    1146    1145    1147    1146    1145    1148    1146    1145    1149
    1148    1145    1147    1149    1145    1147    1149    1145    1148
    1145    1146    1150    1145    1146    1151    1145    1146    1152
    1151    1146    1150    1152    1146    1150    1152    1146    1151
    1154    1153    1155    1154    1153    1156    1154    1153    1157
    1156    1153    1155    1157    1153    1155    1157    1153    1156
    1153    1154    1158    1153    1154    1159    1153    1154    1160
    1159    1154    1158    1160    1154    1158    1160    1154    1159
    1162    1161    1163    1162    1161    1164    1162    1161    1165
    1164    1161    1163    1165    1161    1163    1165    1161    1164
    1161    1162    1166    1161    1162    1167    1161    1162    1168
    1167    1162    1166    1168    1162    1166    1168    1162    1167
    1170    1169    1171    1170    1169    1172    1170    1169    1173
    1172    1169    1171    1173    1169    1171    1173    1169    1172
    1169    1170    1174    1169    1170    1175    1169    1170    1176
    1175    1170    1174    1176    1170    1174    1176    1170    1175
    1178    1177    1179    1178    1177    1180    1178    1177    1181
    1180    1177    1179    1181    1177    1179    1181    1177    1180
    1177    1178    1182    1177    1178    1183    1177    1178    1184
    1183    1178    1182    1184    1178    1182    1184    1178    1183
    1186    1185    1187    1186    1185    1188    1186    1185    1189
    1188    1185    1187    1189    1185    1187    1189    1185    1188
    1185    1186    1190    1185    1186    1191    1185    1186    1192
    1191    1186    1190    1192    1186    1190    1192    1186    1191
    1194    1193    1195    1194    1193    1196    1194    1193    1197
    1196    1193    1195    1197    1193    1195    1197    1193    1196
    1193    1194    1198    1193    1194    1199    1193    1194    1200
    1199    1194    1198    1200    1194    1198    1200    1194    1199
    1202    1201    1203    1202    1201    1204    1202    1201    1205
    1204    1201    1203    1205    1201    1203    1205    1201    1204
    1201    1202    1206    1201    1202    1207    1201    1202    1208
    1207    1202    1206    1208    1202    1206    1208    1202    1207
    1210    1209    1211    1210    1209    1212    1210    1209    1213
    1212    1209    1211    1213    1209    1211    1213    1209    1212
    1209    1210    1214    1209    1210    1215    1209    1210    1216
    1215    1210    1214    1216    1210    1214    1216    1210    1215
    1218    1217    1219    1218    1217    1220    1218    1217    1221
    1220    1217    1219    1221    1217    1219    1221    1217    1220
    1217    1218    1222    1217    1218    1223    1217    1218    1224
    1223    1218    1222    1224    1218    1222    1224    1218    1223
    1226    1225    1227    1226    1225    1228    1226    1225    1229
    1228    1225    1227    1229    1225    1227    1229    1225    1228
    1225    1226    1230    1225    1226    1231    1225    1226    1232
    1231    1226    1230    1232    1226    1230    1232    1226    1231
    1234    1233    1235    1234    1233    1236    1234    1233    1237
    1236    1233    1235    1237    1233    1235    1237    1233    1236
    1233    1234    1238    1233    1234    1239    1233    1234    1240
    1239    1234    1238    1240    1234    1238    1240    1234    1239
    1242    1241    1243    1242    1241    1244    1242    1241    1245
    1244    1241    1243    1245    1241    1243    1245    1241    1244
    1241    1242    1246    1241    1242    1247    1241    1242    1248
    1247    1242    1246    1248    1242    1246    1248    1242    1247
    1250    1249    1251    1250    1249    1252    1250    1249    1253
    1252    1249    1251    1253    1249    1251    1253    1249    1252
    1249    1250    1254    1249    1250    1255    1249    1250    1256
    1255    1250    1254    1256    1250    1254    1256    1250    1255
    1258    1257    1259    1258    1257    1260    1258    1257    1261
    1260    1257    1259    1261    1257    1259    1261    1257    1260
    1257    1258    1262    1257    1258    1263    1257    1258    1264
    1263    1258    1262    1264    1258    1262    1264    1258    1263
    1266    1265    1267    1266    1265    1268    1266    1265    1269
    1268    1265    1267    1269    1265    1267    1269    1265    1268
    1265    1266    1270    1265    1266    1271    1265    1266    1272
    1271    1266    1270    1272    1266    1270    1272    1266    1271
    1274    1273    1275    1274    1273    1276    1274    1273    1277
    1276    1273    1275    1277    1273    1275    1277    1273    1276
    1273    1274    1278    1273    1274    1279    1273    1274    1280
    1279    1274    1278    1280    1274    1278    1280    1274    1279
    1282    1281    1283    1282    1281    1284    1282    1281    1285
    1284    1281    1283    1285    1281    1283    1285    1281    1284
    1281    1282    1286    1281    1282    1287    1281    1282    1288
    1287    1282    1286    1288    1282    1286    1288    1282    1287
    1290    1289    1291    1290    1289    1292    1290    1289    1293
    1292    1289    1291    1293    1289    1291    1293    1289    1292
    1289    1290    1294    1289    1290    1295    1289    1290    1296
    1295    1290    1294    1296    1290    1294    1296    1290    1295
    1298    1297    1299    1298    1297    1300    1298    1297    1301
    1300    1297    1299    1301    1297    1299    1301    1297    1300
    1297    1298    1302    1297    1298    1303    1297    1298    1304
    1303    1298    1302    1304    1298    1302    1304    1298    1303
    1306    1305    1307    1306    1305    1308    1306    1305    1309
    1308    1305    1307    1309    1305    1307    1309    1305    1308
    1305    1306    1310    1305    1306    1311    1305    1306    1312
    1311    1306    1310    1312    1306    1310    1312    1306    1311
    1314    1313    1315    1314    1313    1316    1314    1313    1317
    1316    1313    1315    1317    1313    1315    1317    1313    1316
    1313    1314    1318    1313    1314    1319    1313    1314    1320
    1319    1314    1318    1320    1314    1318    1320    1314    1319
    1322    1321    1323    1322    1321    1324    1322    1321    1325
    1324    1321    1323    1325    1321    1323    1325    1321    1324
    1321    1322    1326    1321    1322    1327    1321    1322    1328
    1327    1322    1326    1328    1322    1326    1328    1322    1327
    1330    1329    1331    1330    1329    1332    1330    1329    1333
    1332    1329    1331    1333    1329    1331    1333    1329    1332
    1329    1330    1334    1329    1330    1335    1329    1330    1336
    1335    1330    1334    1336    1330    1334    1336    1330    1335
    1338    1337    1339    1338    1337    1340    1338    1337    1341
    1340    1337    1339    1341    1337    1339    1341    1337    1340
    1337    1338    1342    1337    1338    1343    1337    1338    1344
    1343    1338    1342    1344    1338    1342    1344    1338    1343
    1346    1345    1347    1346    1345    1348    1346    1345    1349
    1348    1345    1347    1349    1345    1347    1349    1345    1348
    1345    1346    1350    1345    1346    1351    1345    1346    1352
    1351    1346    1350    1352    1346    1350    1352    1346    1351
    1354    1353    1355    1354    1353    1356    1354    1353    1357
    1356    1353    1355    1357    1353    1355    1357    1353    1356
    1353    1354    1358    1353    1354    1359    1353    1354    1360
    1359    1354    1358    1360    1354    1358    1360    1354    1359
    1362    1361    1363    1362    1361    1364    1362    1361    1365
    1364    1361    1363    1365    1361    1363    1365    1361    1364
    1361    1362    1366    1361    1362    1367    1361    1362    1368
    1367    1362    1366    1368    1362    1366    1368    1362    1367
    1370    1369    1371    1370    1369    1372    1370    1369    1373
    1372    1369    1371    1373    1369    1371    1373    1369    1372
    1369    1370    1374    1369    1370    1375    1369    1370    1376
    1375    1370    1374    1376    1370    1374    1376    1370    1375
    1378    1377    1379    1378    1377    1380    1378    1377    1381
    1380    1377    1379    1381    1377    1379    1381    1377    1380
    1377    1378    1382    1377    1378    1383    1377    1378    1384
    1383    1378    1382    1384    1378    1382    1384    1378    1383
    1386    1385    1387    1386    1385    1388    1386    1385    1389
    1388    1385    1387    1389    1385    1387    1389    1385    1388
    1385    1386    1390    1385    1386    1391    1385    1386    1392
    1391    1386    1390    1392    1386    1390    1392    1386    1391
    1394    1393    1395    1394    1393    1396    1394    1393    1397
    1396    1393    1395    1397    1393    1395    1397    1393    1396
    1393    1394    1398    1393    1394    1399    1393    1394    1400
    1399    1394    1398    1400    1394    1398    1400    1394    1399
    1402    1401    1403    1402    1401    1404    1402    1401    1405
    1404    1401    1403    1405    1401    1403    1405    1401    1404
    1401    1402    1406    1401    1402    1407    1401    1402    1408
    1407    1402    1406    1408    1402    1406    1408    1402    1407
    1410    1409    1411    1410    1409    1412    1410    1409    1413
    1412    1409    1411    1413    1409    1411    1413    1409    1412
    1409    1410    1414    1409    1410    1415    1409    1410    1416
    1415    1410    1414    1416    1410    1414    1416    1410    1415
    1418    1417    1419    1418    1417    1420    1418    1417    1421
    1420    1417    1419    1421    1417    1419    1421    1417    1420
    1417    1418    1422    1417    1418    1423    1417    1418    1424
    1423    1418    1422    1424    1418    1422    1424    1418    1423
    1426    1425    1427    1426    1425    1428    1426    1425    1429
    1428    1425    1427    1429    1425    1427    1429    1425    1428
    1425    1426    1430    1425    1426    1431    1425    1426    1432
    1431    1426    1430    1432    1426    1430    1432    1426    1431
    1434    1433    1435    1434    1433    1436    1434    1433    1437
    1436    1433    1435    1437    1433    1435    1437    1433    1436
    1433    1434    1438    1433    1434    1439    1433    1434    1440
    1439    1434    1438    1440    1434    1438    1440    1434    1439
    1442    1441    1443    1442    1441    1444    1442    1441    1445
    1444    1441    1443    1445    1441    1443    1445    1441    1444
    1441    1442    1446    1441    1442    1447    1441    1442    1448
    1447    1442    1446    1448    1442    1446    1448    1442    1447
    1450    1449    1451    1450    1449    1452    1450    1449    1453
    1452    1449    1451    1453    1449    1451    1453    1449    1452
    1449    1450    1454    1449    1450    1455    1449    1450    1456
    1455    1450    1454    1456    1450    1454    1456    1450    1455
    1458    1457    1459    1458    1457    1460    1458    1457    1461
    1460    1457    1459    1461    1457    1459    1461    1457    1460
    1457    1458    1462    1457    1458    1463    1457    1458    1464
    1463    1458    1462    1464    1458    1462    1464    1458    1463
    1466    1465    1467    1466    1465    1468    1466    1465    1469
    1468    1465    1467    1469    1465    1467    1469    1465    1468
    1465    1466    1470    1465    1466    1471    1465    1466    1472
    1471    1466    1470    1472    1466    1470    1472    1466    1471
    1474    1473    1475    1474    1473    1476    1474    1473    1477
    1476    1473    1475    1477    1473    1475    1477    1473    1476
    1473    1474    1478    1473    1474    1479    1473    1474    1480
    1479    1474    1478    1480    1474    1478    1480    1474    1479
    1482    1481    1483    1482    1481    1484    1482    1481    1485
    1484    1481    1483    1485    1481    1483    1485    1481    1484
    1481    1482    1486    1481    1482    1487    1481    1482    1488
    1487    1482    1486    1488    1482    1486    1488    1482    1487
    1490    1489    1491    1490    1489    1492    1490    1489    1493
    1492    1489    1491    1493    1489    1491    1493    1489    1492
    1489    1490    1494    1489    1490    1495    1489    1490    1496
    1495    1490    1494    1496    1490    1494    1496    1490    1495
    1498    1497    1499    1498    1497    1500    1498    1497    1501
    1500    1497    1499    1501    1497    1499    1501    1497    1500
    1497    1498    1502    1497    1498    1503    1497    1498    1504
    1503    1498    1502    1504    1498    1502    1504    1498    1503
    1506    1505    1507    1506    1505    1508    1506    1505    1509
    1508    1505    1507    1509    1505    1507    1509    1505    1508
    1505    1506    1510    1505    1506    1511    1505    1506    1512
    1511    1506    1510    1512    1506    1510    1512    1506    1511
    1514    1513    1515    1514    1513    1516    1514    1513    1517
    1516    1513    1515    1517    1513    1515    1517    1513    1516
    1513    1514    1518    1513    1514    1519    1513    1514    1520
    1519    1514    1518    1520    1514    1518    1520    1514    1519
    1522    1521    1523    1522    1521    1524    1522    1521    1525
    1524    1521    1523    1525    1521    1523    1525    1521    1524
    1521    1522    1526    1521    1522    1527    1521    1522    1528
    1527    1522    1526    1528    1522    1526    1528    1522    1527
    1530    1529    1531    1530    1529    1532    1530    1529    1533
    1532    1529    1531    1533    1529    1531    1533    1529    1532
    1529    1530    1534    1529    1530    1535    1529    1530    1536
    1535    1530    1534    1536    1530    1534    1536    1530    1535
    1538    1537    1539    1538    1537    1540    1538    1537    1541
    1540    1537    1539    1541    1537    1539    1541    1537    1540
    1537    1538    1542    1537    1538    1543    1537    1538    1544
    1543    1538    1542    1544    1538    1542    1544    1538    1543
    1546    1545    1547    1546    1545    1548    1546    1545    1549
    1548    1545    1547    1549    1545    1547    1549    1545    1548
    1545    1546    1550    1545    1546    1551    1545    1546    1552
    1551    1546    1550    1552    1546    1550    1552    1546    1551
    1554    1553    1555    1554    1553    1556    1554    1553    1557
    1556    1553    1555    1557    1553    1555    1557    1553    1556
    1553    1554    1558    1553    1554    1559    1553    1554    1560
    1559    1554    1558    1560    1554    1558    1560    1554    1559
    1562    1561    1563    1562    1561    1564    1562    1561    1565
    1564    1561    1563    1565    1561    1563    1565    1561    1564
    1561    1562    1566    1561    1562    1567    1561    1562    1568
    1567    1562    1566    1568    1562    1566    1568    1562    1567
    1570    1569    1571    1570    1569    1572    1570    1569    1573
    1572    1569    1571    1573    1569    1571    1573    1569    1572
    1569    1570    1574    1569    1570    1575    1569    1570    1576
    1575    1570    1574    1576    1570    1574    1576    1570    1575
    1578    1577    1579    1578    1577    1580    1578    1577    1581
    1580    1577    1579    1581    1577    1579    1581    1577    1580
    1577    1578    1582    1577    1578    1583    1577    1578    1584
    1583    1578    1582    1584    1578    1582    1584    1578    1583
    1586    1585    1587    1586    1585    1588    1586    1585    1589
    1588    1585    1587    1589    1585    1587    1589    1585    1588
    1585    1586    1590    1585    1586    1591    1585    1586    1592
    1591    1586    1590    1592    1586    1590    1592    1586    1591
    1594    1593    1595    1594    1593    1596    1594    1593    1597
    1596    1593    1595    1597    1593    1595    1597    1593    1596
    1593    1594    1598    1593    1594    1599    1593    1594    1600
    1599    1594    1598    1600    1594    1598    1600    1594    1599
    1602    1601    1603    1602    1601    1604    1602    1601    1605
    1604    1601    1603    1605    1601    1603    1605    1601    1604
    1601    1602    1606    1601    1602    1607    1601    1602    1608
    1607    1602    1606    1608    1602    1606    1608    1602    1607
    1610    1609    1611    1610    1609    1612    1610    1609    1613
    1612    1609    1611    1613    1609    1611    1613    1609    1612
    1609    1610    1614    1609    1610    1615    1609    1610    1616
    1615    1610    1614    1616    1610    1614    1616    1610    1615
    1618    1617    1619    1618    1617    1620    1618    1617    1621
    1620    1617    1619    1621    1617    1619    1621    1617    1620
    1617    1618    1622    1617    1618    1623    1617    1618    1624
    1623    1618    1622    1624    1618    1622    1624    1618    1623
    1626    1625    1627    1626    1625    1628    1626    1625    1629
    1628    1625    1627    1629    1625    1627    1629    1625    1628
    1625    1626    1630    1625    1626    1631    1625    1626    1632
    1631    1626    1630    1632    1626    1630    1632    1626    1631
    1634    1633    1635    1634    1633    1636    1634    1633    1637
    1636    1633    1635    1637    1633    1635    1637    1633    1636
    1633    1634    1638    1633    1634    1639    1633    1634    1640
    1639    1634    1638    1640    1634    1638    1640    1634    1639
    1642    1641    1643    1642    1641    1644    1642    1641    1645
    1644    1641    1643    1645    1641    1643    1645    1641    1644
    1641    1642    1646    1641    1642    1647    1641    1642    1648
    1647    1642    1646    1648    1642    1646    1648    1642    1647
    1650    1649    1651    1650    1649    1652    1650    1649    1653
    1652    1649    1651    1653    1649    1651    1653    1649    1652
    1649    1650    1654    1649    1650    1655    1649    1650    1656
    1655    1650    1654    1656    1650    1654    1656    1650    1655
    1658    1657    1659    1658    1657    1660    1658    1657    1661
    1660    1657    1659    1661    1657    1659    1661    1657    1660
    1657    1658    1662    1657    1658    1663    1657    1658    1664
    1663    1658    1662    1664    1658    1662    1664    1658    1663
    1666    1665    1667    1666    1665    1668    1666    1665    1669
    1668    1665    1667    1669    1665    1667    1669    1665    1668
    1665    1666    1670    1665    1666    1671    1665    1666    1672
    1671    1666    1670    1672    1666    1670    1672    1666    1671
    1674    1673    1675    1674    1673    1676    1674    1673    1677
    1676    1673    1675    1677    1673    1675    1677    1673    1676
    1673    1674    1678    1673    1674    1679    1673    1674    1680
    1679    1674    1678    1680    1674    1678    1680    1674    1679
    1682    1681    1683    1682    1681    1684    1682    1681    1685
    1684    1681    1683    1685    1681    1683    1685    1681    1684
    1681    1682    1686    1681    1682    1687    1681    1682    1688
    1687    1682    1686    1688    1682    1686    1688    1682    1687
    1690    1689    1691    1690    1689    1692    1690    1689    1693
    1692    1689    1691    1693    1689    1691    1693    1689    1692
    1689    1690    1694    1689    1690    1695    1689    1690    1696
    1695    1690    1694    1696    1690    1694    1696    1690    1695
    1698    1697    1699    1698    1697    1700    1698    1697    1701
    1700    1697    1699    1701    1697    1699    1701    1697    1700
    1697    1698    1702    1697    1698    1703    1697    1698    1704
    1703    1698    1702    1704    1698    1702    1704    1698    1703
    1706    1705    1707    1706    1705    1708    1706    1705    1709
    1708    1705    1707    1709    1705    1707    1709    1705    1708
    1705    1706    1710    1705    1706    1711    1705    1706    1712
    1711    1706    1710    1712    1706    1710    1712    1706    1711
    1714    1713    1715    1714    1713    1716    1714    1713    1717
    1716    1713    1715    1717    1713    1715    1717    1713    1716
    1713    1714    1718    1713    1714    1719    1713    1714    1720
    1719    1714    1718    1720    1714    1718    1720    1714    1719
    1722    1721    1723    1722    1721    1724    1722    1721    1725
    1724    1721    1723    1725    1721    1723    1725    1721    1724
    1721    1722    1726    1721    1722    1727    1721    1722    1728
    1727    1722    1726    1728    1722    1726    1728    1722    1727
    1730    1729    1731    1730    1729    1732    1730    1729    1733
    1732    1729    1731    1733    1729    1731    1733    1729    1732
    1729    1730    1734    1729    1730    1735    1729    1730    1736
    1735    1730    1734    1736    1730    1734    1736    1730    1735
    1738    1737    1739    1738    1737    1740    1738    1737    1741
    1740    1737    1739    1741    1737    1739    1741    1737    1740
    1737    1738    1742    1737    1738    1743    1737    1738    1744
    1743    1738    1742    1744    1738    1742    1744    1738    1743
    1746    1745    1747    1746    1745    1748    1746    1745    1749
    1748    1745    1747    1749    1745    1747    1749    1745    1748
    1745    1746    1750    1745    1746    1751    1745    1746    1752
    1751    1746    1750    1752    1746    1750    1752    1746    1751
    1754    1753    1755    1754    1753    1756    1754    1753    1757
    1756    1753    1755    1757    1753    1755    1757    1753    1756
    1753    1754    1758    1753    1754    1759    1753    1754    1760
    1759    1754    1758    1760    1754    1758    1760    1754    1759
    1762    1761    1763    1762    1761    1764    1762    1761    1765
    1764    1761    1763    1765    1761    1763    1765    1761    1764
    1761    1762    1766    1761    1762    1767    1761    1762    1768
    1767    1762    1766    1768    1762    1766    1768    1762    1767
    1770    1769    1771    1770    1769    1772    1770    1769    1773
    1772    1769    1771    1773    1769    1771    1773    1769    1772
    1769    1770    1774    1769    1770    1775    1769    1770    1776
    1775    1770    1774    1776    1770    1774    1776    1770    1775
    1778    1777    1779    1778    1777    1780    1778    1777    1781
    1780    1777    1779    1781    1777    1779    1781    1777    1780
    1777    1778    1782    1777    1778    1783    1777    1778    1784
    1783    1778    1782    1784    1778    1782    1784    1778    1783
    1786    1785    1787    1786    1785    1788    1786    1785    1789
    1788    1785    1787    1789    1785    1787    1789    1785    1788
    1785    1786    1790    1785    1786    1791    1785    1786    1792
    1791    1786    1790    1792    1786    1790    1792    1786    1791
    1794    1793    1795    1794    1793    1796    1794    1793    1797
    1796    1793    1795    1797    1793    1795    1797    1793    1796
    1793    1794    1798    1793    1794    1799    1793    1794    1800
    1799    1794    1798    1800    1794    1798    1800    1794    1799
    1802    1801    1803    1802    1801    1804    1802    1801    1805
    1804    1801    1803    1805    1801    1803    1805    1801    1804
    1801    1802    1806    1801    1802    1807    1801    1802    1808
    1807    1802    1806    1808    1802    1806    1808    1802    1807
    1810    1809    1811    1810    1809    1812    1810    1809    1813
    1812    1809    1811    1813    1809    1811    1813    1809    1812
    1809    1810    1814    1809    1810    1815    1809    1810    1816
    1815    1810    1814    1816    1810    1814    1816    1810    1815
    1818    1817    1819    1818    1817    1820    1818    1817    1821
    1820    1817    1819    1821    1817    1819    1821    1817    1820
    1817    1818    1822    1817    1818    1823    1817    1818    1824
    1823    1818    1822    1824    1818    1822    1824    1818    1823
    1826    1825    1827    1826    1825    1828    1826    1825    1829
    1828    1825    1827    1829    1825    1827    1829    1825    1828
    1825    1826    1830    1825    1826    1831    1825    1826    1832
    1831    1826    1830    1832    1826    1830    1832    1826    1831
    1834    1833    1835    1834    1833    1836    1834    1833    1837
    1836    1833    1835    1837    1833    1835    1837    1833    1836
    1833    1834    1838    1833    1834    1839    1833    1834    1840
    1839    1834    1838    1840    1834    1838    1840    1834    1839
    1842    1841    1843    1842    1841    1844    1842    1841    1845
    1844    1841    1843    1845    1841    1843    1845    1841    1844
    1841    1842    1846    1841    1842    1847    1841    1842    1848
    1847    1842    1846    1848    1842    1846    1848    1842    1847
    1850    1849    1851    1850    1849    1852    1850    1849    1853
    1852    1849    1851    1853    1849    1851    1853    1849    1852
    1849    1850    1854    1849    1850    1855    1849    1850    1856
    1855    1850    1854    1856    1850    1854    1856    1850    1855
    1858    1857    1859    1858    1857    1860    1858    1857    1861
    1860    1857    1859    1861    1857    1859    1861    1857    1860
    1857    1858    1862    1857    1858    1863    1857    1858    1864
    1863    1858    1862    1864    1858    1862    1864    1858    1863
    1866    1865    1867    1866    1865    1868    1866    1865    1869
    1868    1865    1867    1869    1865    1867    1869    1865    1868
    1865    1866    1870    1865    1866    1871    1865    1866    1872
    1871    1866    1870    1872    1866    1870    1872    1866    1871
    1874    1873    1875    1874    1873    1876    1874    1873    1877
    1876    1873    1875    1877    1873    1875    1877    1873    1876
    1873    1874    1878    1873    1874    1879    1873    1874    1880
    1879    1874    1878    1880    1874    1878    1880    1874    1879
    1882    1881    1883    1882    1881    1884    1882    1881    1885
    1884    1881    1883    1885    1881    1883    1885    1881    1884
    1881    1882    1886    1881    1882    1887    1881    1882    1888
    1887    1882    1886    1888    1882    1886    1888    1882    1887
    1890    1889    1891    1890    1889    1892    1890    1889    1893
    1892    1889    1891    1893    1889    1891    1893    1889    1892
    1889    1890    1894    1889    1890    1895    1889    1890    1896
    1895    1890    1894    1896    1890    1894    1896    1890    1895
    1898    1897    1899    1898    1897    1900    1898    1897    1901
    1900    1897    1899    1901    1897    1899    1901    1897    1900
    1897    1898    1902    1897    1898    1903    1897    1898    1904
    1903    1898    1902    1904    1898    1902    1904    1898    1903
    1906    1905    1907    1906    1905    1908    1906    1905    1909
    1908    1905    1907    1909    1905    1907    1909    1905    1908
    1905    1906    1910    1905    1906    1911    1905    1906    1912
    1911    1906    1910    1912    1906    1910    1912    1906    1911
    1914    1913    1915    1914    1913    1916    1914    1913    1917
    1916    1913    1915    1917    1913    1915    1917    1913    1916
    1913    1914    1918    1913    1914    1919    1913    1914    1920
    1919    1914    1918    1920    1914    1918    1920    1914    1919
    1922    1921    1923    1922    1921    1924    1922    1921    1925
    1924    1921    1923    1925    1921    1923    1925    1921    1924
    1921    1922    1926    1921    1922    1927    1921    1922    1928
    1927    1922    1926    1928    1922    1926    1928    1922    1927
    1930    1929    1931    1930    1929    1932    1930    1929    1933
    1932    1929    1931    1933    1929    1931    1933    1929    1932
    1929    1930    1934    1929    1930    1935    1929    1930    1936
    1935    1930    1934    1936    1930    1934    1936    1930    1935
    1938    1937    1939    1938    1937    1940    1938    1937    1941
    1940    1937    1939    1941    1937    1939    1941    1937    1940
    1937    1938    1942    1937    1938    1943    1937    1938    1944
    1943    1938    1942    1944    1938    1942    1944    1938    1943
    1946    1945    1947    1946    1945    1948    1946    1945    1949
    1948    1945    1947    1949    1945    1947    1949    1945    1948
    1945    1946    1950    1945    1946    1951    1945    1946    1952
    1951    1946    1950    1952    1946    1950    1952    1946    1951
    1954    1953    1955    1954    1953    1956    1954    1953    1957
    1956    1953    1955    1957    1953    1955    1957    1953    1956
    1953    1954    1958    1953    1954    1959    1953    1954    1960
    1959    1954    1958    1960    1954    1958    1960    1954    1959
    1962    1961    1963    1962    1961    1964    1962    1961    1965
    1964    1961    1963    1965    1961    1963    1965    1961    1964
    1961    1962    1966    1961    1962    1967    1961    1962    1968
    1967    1962    1966    1968    1962    1966    1968    1962    1967
    1970    1969    1971    1970    1969    1972    1970    1969    1973
    1972    1969    1971    1973    1969    1971    1973    1969    1972
    1969    1970    1974    1969    1970    1975    1969    1970    1976
    1975    1970    1974    1976    1970    1974    1976    1970    1975
    1978    1977    1979    1978    1977    1980    1978    1977    1981
    1980    1977    1979    1981    1977    1979    1981    1977    1980
    1977    1978    1982    1977    1978    1983    1977    1978    1984
    1983    1978    1982    1984    1978    1982    1984    1978    1983
    1986    1985    1987    1986    1985    1988    1986    1985    1989
    1988    1985    1987    1989    1985    1987    1989    1985    1988
    1985    1986    1990    1985    1986    1991    1985    1986    1992
    1991    1986    1990    1992    1986    1990    1992    1986    1991
    1994    1993    1995    1994    1993    1996    1994    1993    1997
    1996    1993    1995    1997    1993    1995    1997    1993    1996
    1993    1994    1998    1993    1994    1999    1993    1994    2000
    1999    1994    1998    2000    1994    1998    2000    1994    1999
    2002    2001    2003    2002    2001    2004    2002    2001    2005
    2004    2001    2003    2005    2001    2003    2005    2001    2004
    2001    2002    2006    2001    2002    2007    2001    2002    2008
    2007    2002    2006    2008    2002    2006    2008    2002    2007
    2010    2009    2011    2010    2009    2012    2010    2009    2013
    2012    2009    2011    2013    2009    2011    2013    2009    2012
    2009    2010    2014    2009    2010    2015    2009    2010    2016
    2015    2010    2014    2016    2010    2014    2016    2010    2015
    2018    2017    2019    2018    2017    2020    2018    2017    2021
    2020    2017    2019    2021    2017    2019    2021    2017    2020
    2017    2018    2022    2017    2018    2023    2017    2018    2024
    2023    2018    2022    2024    2018    2022    2024    2018    2023
    2026    2025    2027    2026    2025    2028    2026    2025    2029
    2028    2025    2027    2029    2025    2027    2029    2025    2028
    2025    2026    2030    2025    2026    2031    2025    2026    2032
    2031    2026    2030    2032    2026    2030    2032    2026    2031
    2034    2033    2035    2034    2033    2036    2034    2033    2037
    2036    2033    2035    2037    2033    2035    2037    2033    2036
    2033    2034    2038    2033    2034    2039    2033    2034    2040
    2039    2034    2038    2040    2034    2038    2040    2034    2039
    2042    2041    2043    2042    2041    2044    2042    2041    2045
    2044    2041    2043    2045    2041    2043    2045    2041    2044
    2041    2042    2046    2041    2042    2047    2041    2042    2048
    2047    2042    2046    2048    2042    2046    2048    2042    2047
    2050    2049    2051    2050    2049    2052    2050    2049    2053
    2052    2049    2051    2053    2049    2051    2053    2049    2052
    2049    2050    2054    2049    2050    2055    2049    2050    2056
    2055    2050    2054    2056    2050    2054    2056    2050    2055
    2058    2057    2059    2058    2057    2060    2058    2057    2061
    2060    2057    2059    2061    2057    2059    2061    2057    2060
    2057    2058    2062    2057    2058    2063    2057    2058    2064
    2063    2058    2062    2064    2058    2062    2064    2058    2063
    2066    2065    2067    2066    2065    2068    2066    2065    2069
    2068    2065    2067    2069    2065    2067    2069    2065    2068
    2065    2066    2070    2065    2066    2071    2065    2066    2072
    2071    2066    2070    2072    2066    2070    2072    2066    2071
    2074    2073    2075    2074    2073    2076    2074    2073    2077
    2076    2073    2075    2077    2073    2075    2077    2073    2076
    2073    2074    2078    2073    2074    2079    2073    2074    2080
    2079    2074    2078    2080    2074    2078    2080    2074    2079
    2082    2081    2083    2082    2081    2084    2082    2081    2085
    2084    2081    2083    2085    2081    2083    2085    2081    2084
    2081    2082    2086    2081    2082    2087    2081    2082    2088
    2087    2082    2086    2088    2082    2086    2088    2082    2087
    2090    2089    2091    2090    2089    2092    2090    2089    2093
    2092    2089    2091    2093    2089    2091    2093    2089    2092
    2089    2090    2094    2089    2090    2095    2089    2090    2096
    2095    2090    2094    2096    2090    2094    2096    2090    2095
    2098    2097    2099    2098    2097    2100    2098    2097    2101
    2100    2097    2099    2101    2097    2099    2101    2097    2100
    2097    2098    2102    2097    2098    2103    2097    2098    2104
    2103    2098    2102    2104    2098    2102    2104    2098    2103
    2106    2105    2107    2106    2105    2108    2106    2105    2109
    2108    2105    2107    2109    2105    2107    2109    2105    2108
    2105    2106    2110    2105    2106    2111    2105    2106    2112
    2111    2106    2110    2112    2106    2110    2112    2106    2111
    2114    2113    2115    2114    2113    2116    2114    2113    2117
    2116    2113    2115    2117    2113    2115    2117    2113    2116
    2113    2114    2118    2113    2114    2119    2113    2114    2120
    2119    2114    2118    2120    2114    2118    2120    2114    2119
    2122    2121    2123    2122    2121    2124    2122    2121    2125
    2124    2121    2123    2125    2121    2123    2125    2121    2124
    2121    2122    2126    2121    2122    2127    2121    2122    2128
    2127    2122    2126    2128    2122    2126    2128    2122    2127
    2130    2129    2131    2130    2129    2132    2130    2129    2133
    2132    2129    2131    2133    2129    2131    2133    2129    2132
    2129    2130    2134    2129    2130    2135    2129    2130    2136
    2135    2130    2134    2136    2130    2134    2136    2130    2135
    2138    2137    2139    2138    2137    2140    2138    2137    2141
    2140    2137    2139    2141    2137    2139    2141    2137    2140
    2137    2138    2142    2137    2138    2143    2137    2138    2144
    2143    2138    2142    2144    2138    2142    2144    2138    2143
    2146    2145    2147    2146    2145    2148    2146    2145    2149
    2148    2145    2147    2149    2145    2147    2149    2145    2148
    2145    2146    2150    2145    2146    2151    2145    2146    2152
    2151    2146    2150    2152    2146    2150    2152    2146    2151
    2154    2153    2155    2154    2153    2156    2154    2153    2157
    2156    2153    2155    2157    2153    2155    2157    2153    2156
    2153    2154    2158    2153    2154    2159    2153    2154    2160
    2159    2154    2158    2160    2154    2158    2160    2154    2159
    2162    2161    2163    2162    2161    2164    2162    2161    2165
    2164    2161    2163    2165    2161    2163    2165    2161    2164
    2161    2162    2166    2161    2162    2167    2161    2162    2168
    2167    2162    2166    2168    2162    2166    2168    2162    2167
    2170    2169    2171    2170    2169    2172    2170    2169    2173
    2172    2169    2171    2173    2169    2171    2173    2169    2172
    2169    2170    2174    2169    2170    2175    2169    2170    2176
    2175    2170    2174    2176    2170    2174    2176    2170    2175
    2178    2177    2179    2178    2177    2180    2178    2177    2181
    2180    2177    2179    2181    2177    2179    2181    2177    2180
    2177    2178    2182    2177    2178    2183    2177    2178    2184
    2183    2178    2182    2184    2178    2182    2184    2178    2183
    2186    2185    2187    2186    2185    2188    2186    2185    2189
    2188    2185    2187    2189    2185    2187    2189    2185    2188
    2185    2186    2190    2185    2186    2191    2185    2186    2192
    2191    2186    2190    2192    2186    2190    2192    2186    2191
    2194    2193    2195    2194    2193    2196    2194    2193    2197
    2196    2193    2195    2197    2193    2195    2197    2193    2196
    2193    2194    2198    2193    2194    2199    2193    2194    2200
    2199    2194    2198    2200    2194    2198    2200    2194    2199
    2202    2201    2203    2202    2201    2204    2202    2201    2205
    2204    2201    2203    2205    2201    2203    2205    2201    2204
    2201    2202    2206    2201    2202    2207    2201    2202    2208
    2207    2202    2206    2208    2202    2206    2208    2202    2207
    2210    2209    2211    2210    2209    2212    2210    2209    2213
    2212    2209    2211    2213    2209    2211    2213    2209    2212
    2209    2210    2214    2209    2210    2215    2209    2210    2216
    2215    2210    2214    2216    2210    2214    2216    2210    2215
    2218    2217    2219    2218    2217    2220    2218    2217    2221
    2220    2217    2219    2221    2217    2219    2221    2217    2220
    2217    2218    2222    2217    2218    2223    2217    2218    2224
    2223    2218    2222    2224    2218    2222    2224    2218    2223
    2226    2225    2227    2226    2225    2228    2226    2225    2229
    2228    2225    2227    2229    2225    2227    2229    2225    2228
    2225    2226    2230    2225    2226    2231    2225    2226    2232
    2231    2226    2230    2232    2226    2230    2232    2226    2231
    2234    2233    2235    2234    2233    2236    2234    2233    2237
    2236    2233    2235    2237    2233    2235    2237    2233    2236
    2233    2234    2238    2233    2234    2239    2233    2234    2240
    2239    2234    2238    2240    2234    2238    2240    2234    2239
    2242    2241    2243    2242    2241    2244    2242    2241    2245
    2244    2241    2243    2245    2241    2243    2245    2241    2244
    2241    2242    2246    2241    2242    2247    2241    2242    2248
    2247    2242    2246    2248    2242    2246    2248    2242    2247
    2250    2249    2251    2250    2249    2252    2250    2249    2253
    2252    2249    2251    2253    2249    2251    2253    2249    2252
    2249    2250    2254    2249    2250    2255    2249    2250    2256
    2255    2250    2254    2256    2250    2254    2256    2250    2255
    2258    2257    2259    2258    2257    2260    2258    2257    2261
    2260    2257    2259    2261    2257    2259    2261    2257    2260
    2257    2258    2262    2257    2258    2263    2257    2258    2264
    2263    2258    2262    2264    2258    2262    2264    2258    2263
    2266    2265    2267    2266    2265    2268    2266    2265    2269
    2268    2265    2267    2269    2265    2267    2269    2265    2268
    2265    2266    2270    2265    2266    2271    2265    2266    2272
    2271    2266    2270    2272    2266    2270    2272    2266    2271
    2274    2273    2275    2274    2273    2276    2274    2273    2277
    2276    2273    2275    2277    2273    2275    2277    2273    2276
    2273    2274    2278    2273    2274    2279    2273    2274    2280
    2279    2274    2278    2280    2274    2278    2280    2274    2279
    2282    2281    2283    2282    2281    2284    2282    2281    2285
    2284    2281    2283    2285    2281    2283    2285    2281    2284
    2281    2282    2286    2281    2282    2287    2281    2282    2288
    2287    2282    2286    2288    2282    2286    2288    2282    2287
    2290    2289    2291    2290    2289    2292    2290    2289    2293
    2292    2289    2291    2293    2289    2291    2293    2289    2292
    2289    2290    2294    2289    2290    2295    2289    2290    2296
    2295    2290    2294    2296    2290    2294    2296    2290    2295
    2298    2297    2299    2298    2297    2300    2298    2297    2301
    2300    2297    2299    2301    2297    2299    2301    2297    2300
    2297    2298    2302    2297    2298    2303    2297    2298    2304
    2303    2298    2302    2304    2298    2302    2304    2298    2303
    2306    2305    2307    2306    2305    2308    2306    2305    2309
    2308    2305    2307    2309    2305    2307    2309    2305    2308
    2305    2306    2310    2305    2306    2311    2305    2306    2312
    2311    2306    2310    2312    2306    2310    2312    2306    2311
    2314    2313    2315    2314    2313    2316    2314    2313    2317
    2316    2313    2315    2317    2313    2315    2317    2313    2316
    2313    2314    2318    2313    2314    2319    2313    2314    2320
    2319    2314    2318    2320    2314    2318    2320    2314    2319
    2322    2321    2323    2322    2321    2324    2322    2321    2325
    2324    2321    2323    2325    2321    2323    2325    2321    2324
    2321    2322    2326    2321    2322    2327    2321    2322    2328
    2327    2322    2326    2328    2322    2326    2328    2322    2327
    2330    2329    2331    2330    2329    2332    2330    2329    2333
    2332    2329    2331    2333    2329    2331    2333    2329    2332
    2329    2330    2334    2329    2330    2335    2329    2330    2336
    2335    2330    2334    2336    2330    2334    2336    2330    2335
    2338    2337    2339    2338    2337    2340    2338    2337    2341
    2340    2337    2339    2341    2337    2339    2341    2337    2340
    2337    2338    2342    2337    2338    2343    2337    2338    2344
    2343    2338    2342    2344    2338    2342    2344    2338    2343
    2346    2345    2347    2346    2345    2348    2346    2345    2349
    2348    2345    2347    2349    2345    2347    2349    2345    2348
    2345    2346    2350    2345    2346    2351    2345    2346    2352
    2351    2346    2350    2352    2346    2350    2352    2346    2351
    2354    2353    2355    2354    2353    2356    2354    2353    2357
    2356    2353    2355    2357    2353    2355    2357    2353    2356
    2353    2354    2358    2353    2354    2359    2353    2354    2360
    2359    2354    2358    2360    2354    2358    2360    2354    2359
    2362    2361    2363    2362    2361    2364    2362    2361    2365
    2364    2361    2363    2365    2361    2363    2365    2361    2364
    2361    2362    2366    2361    2362    2367    2361    2362    2368
    2367    2362    2366    2368    2362    2366    2368    2362    2367
    2370    2369    2371    2370    2369    2372    2370    2369    2373
    2372    2369    2371    2373    2369    2371    2373    2369    2372
    2369    2370    2374    2369    2370    2375    2369    2370    2376
    2375    2370    2374    2376    2370    2374    2376    2370    2375
    2378    2377    2379    2378    2377    2380    2378    2377    2381
    2380    2377    2379    2381    2377    2379    2381    2377    2380
    2377    2378    2382    2377    2378    2383    2377    2378    2384
    2383    2378    2382    2384    2378    2382    2384    2378    2383
    2386    2385    2387    2386    2385    2388    2386    2385    2389
    2388    2385    2387    2389    2385    2387    2389    2385    2388
    2385    2386    2390    2385    2386    2391    2385    2386    2392
    2391    2386    2390    2392    2386    2390    2392    2386    2391
    2394    2393    2395    2394    2393    2396    2394    2393    2397
    2396    2393    2395    2397    2393    2395    2397    2393    2396
    2393    2394    2398    2393    2394    2399    2393    2394    2400
    2399    2394    2398    2400    2394    2398    2400    2394    2399
    2402    2401    2403    2402    2401    2404    2402    2401    2405
    2404    2401    2403    2405    2401    2403    2405    2401    2404
    2401    2402    2406    2401    2402    2407    2401    2402    2408
    2407    2402    2406    2408    2402    2406    2408    2402    2407
    2410    2409    2411    2410    2409    2412    2410    2409    2413
    2412    2409    2411    2413    2409    2411    2413    2409    2412
    2409    2410    2414    2409    2410    2415    2409    2410    2416
    2415    2410    2414    2416    2410    2414    2416    2410    2415
    2418    2417    2419    2418    2417    2420    2418    2417    2421
    2420    2417    2419    2421    2417    2419    2421    2417    2420
    2417    2418    2422    2417    2418    2423    2417    2418    2424
    2423    2418    2422    2424    2418    2422    2424    2418    2423
    2426    2425    2427    2426    2425    2428    2426    2425    2429
    2428    2425    2427    2429    2425    2427    2429    2425    2428
    2425    2426    2430    2425    2426    2431    2425    2426    2432
    2431    2426    2430    2432    2426    2430    2432    2426    2431
    2434    2433    2435    2434    2433    2436    2434    2433    2437
    2436    2433    2435    2437    2433    2435    2437    2433    2436
    2433    2434    2438    2433    2434    2439    2433    2434    2440
    2439    2434    2438    2440    2434    2438    2440    2434    2439
    2442    2441    2443    2442    2441    2444    2442    2441    2445
    2444    2441    2443    2445    2441    2443    2445    2441    2444
    2441    2442    2446    2441    2442    2447    2441    2442    2448
    2447    2442    2446    2448    2442    2446    2448    2442    2447
    2450    2449    2451    2450    2449    2452    2450    2449    2453
    2452    2449    2451    2453    2449    2451    2453    2449    2452
    2449    2450    2454    2449    2450    2455    2449    2450    2456
    2455    2450    2454    2456    2450    2454    2456    2450    2455
    2458    2457    2459    2458    2457    2460    2458    2457    2461
    2460    2457    2459    2461    2457    2459    2461    2457    2460
    2457    2458    2462    2457    2458    2463    2457    2458    2464
    2463    2458    2462    2464    2458    2462    2464    2458    2463
    2466    2465    2467    2466    2465    2468    2466    2465    2469
    2468    2465    2467    2469    2465    2467    2469    2465    2468
    2465    2466    2470    2465    2466    2471    2465    2466    2472
    2471    2466    2470    2472    2466    2470    2472    2466    2471
    2474    2473    2475    2474    2473    2476    2474    2473    2477
    2476    2473    2475    2477    2473    2475    2477    2473    2476
    2473    2474    2478    2473    2474    2479    2473    2474    2480
    2479    2474    2478    2480    2474    2478    2480    2474    2479
    2482    2481    2483    2482    2481    2484    2482    2481    2485
    2484    2481    2483    2485    2481    2483    2485    2481    2484
    2481    2482    2486    2481    2482    2487    2481    2482    2488
    2487    2482    2486    2488    2482    2486    2488    2482    2487
    2490    2489    2491    2490    2489    2492    2490    2489    2493
    2492    2489    2491    2493    2489    2491    2493    2489    2492
    2489    2490    2494    2489    2490    2495    2489    2490    2496
    2495    2490    2494    2496    2490    2494    2496    2490    2495
    2498    2497    2499    2498    2497    2500    2498    2497    2501
    2500    2497    2499    2501    2497    2499    2501    2497    2500
    2497    2498    2502    2497    2498    2503    2497    2498    2504
    2503    2498    2502    2504    2498    2502    2504    2498    2503
    2506    2505    2507    2506    2505    2508    2506    2505    2509
    2508    2505    2507    2509    2505    2507    2509    2505    2508
    2505    2506    2510    2505    2506    2511    2505    2506    2512
    2511    2506    2510    2512    2506    2510    2512    2506    2511
    2514    2513    2515    2514    2513    2516    2514    2513    2517
    2516    2513    2515    2517    2513    2515    2517    2513    2516
    2513    2514    2518    2513    2514    2519    2513    2514    2520
    2519    2514    2518    2520    2514    2518    2520    2514    2519
    2522    2521    2523    2522    2521    2524    2522    2521    2525
    2524    2521    2523    2525    2521    2523    2525    2521    2524
    2521    2522    2526    2521    2522    2527    2521    2522    2528
    2527    2522    2526    2528    2522    2526    2528    2522    2527
    2530    2529    2531    2530    2529    2532    2530    2529    2533
    2532    2529    2531    2533    2529    2531    2533    2529    2532
    2529    2530    2534    2529    2530    2535    2529    2530    2536
    2535    2530    2534    2536    2530    2534    2536    2530    2535
    2538    2537    2539    2538    2537    2540    2538    2537    2541
    2540    2537    2539    2541    2537    2539    2541    2537    2540
    2537    2538    2542    2537    2538    2543    2537    2538    2544
    2543    2538    2542    2544    2538    2542    2544    2538    2543
    2546    2545    2547    2546    2545    2548    2546    2545    2549
    2548    2545    2547    2549    2545    2547    2549    2545    2548
    2545    2546    2550    2545    2546    2551    2545    2546    2552
    2551    2546    2550    2552    2546    2550    2552    2546    2551
    2554    2553    2555    2554    2553    2556    2554    2553    2557
    2556    2553    2555    2557    2553    2555    2557    2553    2556
    2553    2554    2558    2553    2554    2559    2553    2554    2560
    2559    2554    2558    2560    2554    2558    2560    2554    2559
    2562    2561    2563    2562    2561    2564    2562    2561    2565
    2564    2561    2563    2565    2561    2563    2565    2561    2564
    2561    2562    2566    2561    2562    2567    2561    2562    2568
    2567    2562    2566    2568    2562    2566    2568    2562    2567
    2570    2569    2571    2570    2569    2572    2570    2569    2573
    2572    2569    2571    2573    2569    2571    2573    2569    2572
    2569    2570    2574    2569    2570    2575    2569    2570    2576
    2575    2570    2574    2576    2570    2574    2576    2570    2575
    2578    2577    2579    2578    2577    2580    2578    2577    2581
    2580    2577    2579    2581    2577    2579    2581    2577    2580
    2577    2578    2582    2577    2578    2583    2577    2578    2584
    2583    2578    2582    2584    2578    2582    2584    2578    2583
    2586    2585    2587    2586    2585    2588    2586    2585    2589
    2588    2585    2587    2589    2585    2587    2589    2585    2588
    2585    2586    2590    2585    2586    2591    2585    2586    2592
    2591    2586    2590    2592    2586    2590    2592    2586    2591
    2594    2593    2595    2594    2593    2596    2594    2593    2597
    2596    2593    2595    2597    2593    2595    2597    2593    2596
    2593    2594    2598    2593    2594    2599    2593    2594    2600
    2599    2594    2598    2600    2594    2598    2600    2594    2599
    2602    2601    2603    2602    2601    2604    2602    2601    2605
    2604    2601    2603    2605    2601    2603    2605    2601    2604
    2601    2602    2606    2601    2602    2607    2601    2602    2608
    2607    2602    2606    2608    2602    2606    2608    2602    2607
    2610    2609    2611    2610    2609    2612    2610    2609    2613
    2612    2609    2611    2613    2609    2611    2613    2609    2612
    2609    2610    2614    2609    2610    2615    2609    2610    2616
    2615    2610    2614    2616    2610    2614    2616    2610    2615
    2618    2617    2619    2618    2617    2620    2618    2617    2621
    2620    2617    2619    2621    2617    2619    2621    2617    2620
    2617    2618    2622    2617    2618    2623    2617    2618    2624
    2623    2618    2622    2624    2618    2622    2624    2618    2623
    2626    2625    2627    2626    2625    2628    2626    2625    2629
    2628    2625    2627    2629    2625    2627    2629    2625    2628
    2625    2626    2630    2625    2626    2631    2625    2626    2632
    2631    2626    2630    2632    2626    2630    2632    2626    2631
    2634    2633    2635    2634    2633    2636    2634    2633    2637
    2636    2633    2635    2637    2633    2635    2637    2633    2636
    2633    2634    2638    2633    2634    2639    2633    2634    2640
    2639    2634    2638    2640    2634    2638    2640    2634    2639
    2642    2641    2643    2642    2641    2644    2642    2641    2645
    2644    2641    2643    2645    2641    2643    2645    2641    2644
    2641    2642    2646    2641    2642    2647    2641    2642    2648
    2647    2642    2646    2648    2642    2646    2648    2642    2647
    2650    2649    2651    2650    2649    2652    2650    2649    2653
    2652    2649    2651    2653    2649    2651    2653    2649    2652
    2649    2650    2654    2649    2650    2655    2649    2650    2656
    2655    2650    2654    2656    2650    2654    2656    2650    2655
    2658    2657    2659    2658    2657    2660    2658    2657    2661
    2660    2657    2659    2661    2657    2659    2661    2657    2660
    2657    2658    2662    2657    2658    2663    2657    2658    2664
    2663    2658    2662    2664    2658    2662    2664    2658    2663
    2666    2665    2667    2666    2665    2668    2666    2665    2669
    2668    2665    2667    2669    2665    2667    2669    2665    2668
    2665    2666    2670    2665    2666    2671    2665    2666    2672
    2671    2666    2670    2672    2666    2670    2672    2666    2671
    2674    2673    2675    2674    2673    2676    2674    2673    2677
    2676    2673    2675    2677    2673    2675    2677    2673    2676
    2673    2674    2678    2673    2674    2679    2673    2674    2680
    2679    2674    2678    2680    2674    2678    2680    2674    2679
    2682    2681    2683    2682    2681    2684    2682    2681    2685
    2684    2681    2683    2685    2681    2683    2685    2681    2684
    2681    2682    2686    2681    2682    2687    2681    2682    2688
    2687    2682    2686    2688    2682    2686    2688    2682    2687
    2690    2689    2691    2690    2689    2692    2690    2689    2693
    2692    2689    2691    2693    2689    2691    2693    2689    2692
    2689    2690    2694    2689    2690    2695    2689    2690    2696
    2695    2690    2694    2696    2690    2694    2696    2690    2695
    2698    2697    2699    2698    2697    2700    2698    2697    2701
    2700    2697    2699    2701    2697    2699    2701    2697    2700
    2697    2698    2702    2697    2698    2703    2697    2698    2704
    2703    2698    2702    2704    2698    2702    2704    2698    2703
    2706    2705    2707    2706    2705    2708    2706    2705    2709
    2708    2705    2707    2709    2705    2707    2709    2705    2708
    2705    2706    2710    2705    2706    2711    2705    2706    2712
    2711    2706    2710    2712    2706    2710    2712    2706    2711
    2714    2713    2715    2714    2713    2716    2714    2713    2717
    2716    2713    2715    2717    2713    2715    2717    2713    2716
    2713    2714    2718    2713    2714    2719    2713    2714    2720
    2719    2714    2718    2720    2714    2718    2720    2714    2719
    2722    2721    2723    2722    2721    2724    2722    2721    2725
    2724    2721    2723    2725    2721    2723    2725    2721    2724
    2721    2722    2726    2721    2722    2727    2721    2722    2728
    2727    2722    2726    2728    2722    2726    2728    2722    2727
    2730    2729    2731    2730    2729    2732    2730    2729    2733
    2732    2729    2731    2733    2729    2731    2733    2729    2732
    2729    2730    2734    2729    2730    2735    2729    2730    2736
    2735    2730    2734    2736    2730    2734    2736    2730    2735
    2738    2737    2739    2738    2737    2740    2738    2737    2741
    2740    2737    2739    2741    2737    2739    2741    2737    2740
    2737    2738    2742    2737    2738    2743    2737    2738    2744
    2743    2738    2742    2744    2738    2742    2744    2738    2743
    2746    2745    2747    2746    2745    2748    2746    2745    2749
    2748    2745    2747    2749    2745    2747    2749    2745    2748
    2745    2746    2750    2745    2746    2751    2745    2746    2752
    2751    2746    2750    2752    2746    2750    2752    2746    2751
    2754    2753    2755    2754    2753    2756    2754    2753    2757
    2756    2753    2755    2757    2753    2755    2757    2753    2756
    2753    2754    2758    2753    2754    2759    2753    2754    2760
    2759    2754    2758    2760    2754    2758    2760    2754    2759
    2762    2761    2763    2762    2761    2764    2762    2761    2765
    2764    2761    2763    2765    2761    2763    2765    2761    2764
    2761    2762    2766    2761    2762    2767    2761    2762    2768
    2767    2762    2766    2768    2762    2766    2768    2762    2767
    2770    2769    2771    2770    2769    2772    2770    2769    2773
    2772    2769    2771    2773    2769    2771    2773    2769    2772
    2769    2770    2774    2769    2770    2775    2769    2770    2776
    2775    2770    2774    2776    2770    2774    2776    2770    2775
    2778    2777    2779    2778    2777    2780    2778    2777    2781
    2780    2777    2779    2781    2777    2779    2781    2777    2780
    2777    2778    2782    2777    2778    2783    2777    2778    2784
    2783    2778    2782    2784    2778    2782    2784    2778    2783
    2786    2785    2787    2786    2785    2788    2786    2785    2789
    2788    2785    2787    2789    2785    2787    2789    2785    2788
    2785    2786    2790    2785    2786    2791    2785    2786    2792
    2791    2786    2790    2792    2786    2790    2792    2786    2791
    2794    2793    2795    2794    2793    2796    2794    2793    2797
    2796    2793    2795    2797    2793    2795    2797    2793    2796
    2793    2794    2798    2793    2794    2799    2793    2794    2800
    2799    2794    2798    2800    2794    2798    2800    2794    2799
    2802    2801    2803    2802    2801    2804    2802    2801    2805
    2804    2801    2803    2805    2801    2803    2805    2801    2804
    2801    2802    2806    2801    2802    2807    2801    2802    2808
    2807    2802    2806    2808    2802    2806    2808    2802    2807
    2810    2809    2811    2810    2809    2812    2810    2809    2813
    2812    2809    2811    2813    2809    2811    2813    2809    2812
    2809    2810    2814    2809    2810    2815    2809    2810    2816
    2815    2810    2814    2816    2810    2814    2816    2810    2815
    2818    2817    2819    2818    2817    2820    2818    2817    2821
    2820    2817    2819    2821    2817    2819    2821    2817    2820
    2817    2818    2822    2817    2818    2823    2817    2818    2824
    2823    2818    2822    2824    2818    2822    2824    2818    2823
    2826    2825    2827    2826    2825    2828    2826    2825    2829
    2828    2825    2827    2829    2825    2827    2829    2825    2828
    2825    2826    2830    2825    2826    2831    2825    2826    2832
    2831    2826    2830    2832    2826    2830    2832    2826    2831
    2834    2833    2835    2834    2833    2836    2834    2833    2837
    2836    2833    2835    2837    2833    2835    2837    2833    2836
    2833    2834    2838    2833    2834    2839    2833    2834    2840
    2839    2834    2838    2840    2834    2838    2840    2834    2839
    2842    2841    2843    2842    2841    2844    2842    2841    2845
    2844    2841    2843    2845    2841    2843    2845    2841    2844
    2841    2842    2846    2841    2842    2847    2841    2842    2848
    2847    2842    2846    2848    2842    2846    2848    2842    2847
    2850    2849    2851    2850    2849    2852    2850    2849    2853
    2852    2849    2851    2853    2849    2851    2853    2849    2852
    2849    2850    2854    2849    2850    2855    2849    2850    2856
    2855    2850    2854    2856    2850    2854    2856    2850    2855
    2858    2857    2859    2858    2857    2860    2858    2857    2861
    2860    2857    2859    2861    2857    2859    2861    2857    2860
    2857    2858    2862    2857    2858    2863    2857    2858    2864
    2863    2858    2862    2864    2858    2862    2864    2858    2863
    2866    2865    2867    2866    2865    2868    2866    2865    2869
    2868    2865    2867    2869    2865    2867    2869    2865    2868
    2865    2866    2870    2865    2866    2871    2865    2866    2872
    2871    2866    2870    2872    2866    2870    2872    2866    2871
    2874    2873    2875    2874    2873    2876    2874    2873    2877
    2876    2873    2875    2877    2873    2875    2877    2873    2876
    2873    2874    2878    2873    2874    2879    2873    2874    2880
    2879    2874    2878    2880    2874    2878    2880    2874    2879
    2882    2881    2883    2882    2881    2884    2882    2881    2885
    2884    2881    2883    2885    2881    2883    2885    2881    2884
    2881    2882    2886    2881    2882    2887    2881    2882    2888
    2887    2882    2886    2888    2882    2886    2888    2882    2887
    2890    2889    2891    2890    2889    2892    2890    2889    2893
    2892    2889    2891    2893    2889    2891    2893    2889    2892
    2889    2890    2894    2889    2890    2895    2889    2890    2896
    2895    2890    2894    2896    2890    2894    2896    2890    2895
    2898    2897    2899    2898    2897    2900    2898    2897    2901
    2900    2897    2899    2901    2897    2899    2901    2897    2900
    2897    2898    2902    2897    2898    2903    2897    2898    2904
    2903    2898    2902    2904    2898    2902    2904    2898    2903
    2906    2905    2907    2906    2905    2908    2906    2905    2909
    2908    2905    2907    2909    2905    2907    2909    2905    2908
    2905    2906    2910    2905    2906    2911    2905    2906    2912
    2911    2906    2910    2912    2906    2910    2912    2906    2911
    2914    2913    2915    2914    2913    2916    2914    2913    2917
    2916    2913    2915    2917    2913    2915    2917    2913    2916
    2913    2914    2918    2913    2914    2919    2913    2914    2920
    2919    2914    2918    2920    2914    2918    2920    2914    2919
    2922    2921    2923    2922    2921    2924    2922    2921    2925
    2924    2921    2923    2925    2921    2923    2925    2921    2924
    2921    2922    2926    2921    2922    2927    2921    2922    2928
    2927    2922    2926    2928    2922    2926    2928    2922    2927
    2930    2929    2931    2930    2929    2932    2930    2929    2933
    2932    2929    2931    2933    2929    2931    2933    2929    2932
    2929    2930    2934    2929    2930    2935    2929    2930    2936
    2935    2930    2934    2936    2930    2934    2936    2930    2935
    2938    2937    2939    2938    2937    2940    2938    2937    2941
    2940    2937    2939    2941    2937    2939    2941    2937    2940
    2937    2938    2942    2937    2938    2943    2937    2938    2944
    2943    2938    2942    2944    2938    2942    2944    2938    2943
    2946    2945    2947    2946    2945    2948    2946    2945    2949
    2948    2945    2947    2949    2945    2947    2949    2945    2948
    2945    2946    2950    2945    2946    2951    2945    2946    2952
    2951    2946    2950    2952    2946    2950    2952    2946    2951
    2954    2953    2955    2954    2953    2956    2954    2953    2957
    2956    2953    2955    2957    2953    2955    2957    2953    2956
    2953    2954    2958    2953    2954    2959    2953    2954    2960
    2959    2954    2958    2960    2954    2958    2960    2954    2959
    2962    2961    2963    2962    2961    2964    2962    2961    2965
    2964    2961    2963    2965    2961    2963    2965    2961    2964
    2961    2962    2966    2961    2962    2967    2961    2962    2968
    2967    2962    2966    2968    2962    2966    2968    2962    2967
    2970    2969    2971    2970    2969    2972    2970    2969    2973
    2972    2969    2971    2973    2969    2971    2973    2969    2972
    2969    2970    2974    2969    2970    2975    2969    2970    2976
    2975    2970    2974    2976    2970    2974    2976    2970    2975
    2978    2977    2979    2978    2977    2980    2978    2977    2981
    2980    2977    2979    2981    2977    2979    2981    2977    2980
    2977    2978    2982    2977    2978    2983    2977    2978    2984
    2983    2978    2982    2984    2978    2982    2984    2978    2983
    2986    2985    2987    2986    2985    2988    2986    2985    2989
    2988    2985    2987    2989    2985    2987    2989    2985    2988
    2985    2986    2990    2985    2986    2991    2985    2986    2992
    2991    2986    2990    2992    2986    2990    2992    2986    2991
    2994    2993    2995    2994    2993    2996    2994    2993    2997
    2996    2993    2995    2997    2993    2995    2997    2993    2996
    2993    2994    2998    2993    2994    2999    2993    2994    3000
    2999    2994    2998    3000    2994    2998    3000    2994    2999
    3002    3001    3003    3002    3001    3004    3002    3001    3005
    3004    3001    3003    3005    3001    3003    3005    3001    3004
    3001    3002    3006    3001    3002    3007    3001    3002    3008
    3007    3002    3006    3008    3002    3006    3008    3002    3007
    3010    3009    3011    3010    3009    3012    3010    3009    3013
    3012    3009    3011    3013    3009    3011    3013    3009    3012
    3009    3010    3014    3009    3010    3015    3009    3010    3016
    3015    3010    3014    3016    3010    3014    3016    3010    3015
    3018    3017    3019    3018    3017    3020    3018    3017    3021
    3020    3017    3019    3021    3017    3019    3021    3017    3020
    3017    3018    3022    3017    3018    3023    3017    3018    3024
    3023    3018    3022    3024    3018    3022    3024    3018    3023
    3026    3025    3027    3026    3025    3028    3026    3025    3029
    3028    3025    3027    3029    3025    3027    3029    3025    3028
    3025    3026    3030    3025    3026    3031    3025    3026    3032
    3031    3026    3030    3032    3026    3030    3032    3026    3031
    3034    3033    3035    3034    3033    3036    3034    3033    3037
    3036    3033    3035    3037    3033    3035    3037    3033    3036
    3033    3034    3038    3033    3034    3039    3033    3034    3040
    3039    3034    3038    3040    3034    3038    3040    3034    3039
    3042    3041    3043    3042    3041    3044    3042    3041    3045
    3044    3041    3043    3045    3041    3043    3045    3041    3044
    3041    3042    3046    3041    3042    3047    3041    3042    3048
    3047    3042    3046    3048    3042    3046    3048    3042    3047
    3050    3049    3051    3050    3049    3052    3050    3049    3053
    3052    3049    3051    3053    3049    3051    3053    3049    3052
    3049    3050    3054    3049    3050    3055    3049    3050    3056
    3055    3050    3054    3056    3050    3054    3056    3050    3055
    3058    3057    3059    3058    3057    3060    3058    3057    3061
    3060    3057    3059    3061    3057    3059    3061    3057    3060
    3057    3058    3062    3057    3058    3063    3057    3058    3064
    3063    3058    3062    3064    3058    3062    3064    3058    3063
    3066    3065    3067    3066    3065    3068    3066    3065    3069
    3068    3065    3067    3069    3065    3067    3069    3065    3068
    3065    3066    3070    3065    3066    3071    3065    3066    3072
    3071    3066    3070    3072    3066    3070    3072    3066    3071
    3074    3073    3075    3074    3073    3076    3074    3073    3077
    3076    3073    3075    3077    3073    3075    3077    3073    3076
    3073    3074    3078    3073    3074    3079    3073    3074    3080
    3079    3074    3078    3080    3074    3078    3080    3074    3079
    3082    3081    3083    3082    3081    3084    3082    3081    3085
    3084    3081    3083    3085    3081    3083    3085    3081    3084
    3081    3082    3086    3081    3082    3087    3081    3082    3088
    3087    3082    3086    3088    3082    3086    3088    3082    3087
    3090    3089    3091    3090    3089    3092    3090    3089    3093
    3092    3089    3091    3093    3089    3091    3093    3089    3092
    3089    3090    3094    3089    3090    3095    3089    3090    3096
    3095    3090    3094    3096    3090    3094    3096    3090    3095
    3098    3097    3099    3098    3097    3100    3098    3097    3101
    3100    3097    3099    3101    3097    3099    3101    3097    3100
    3097    3098    3102    3097    3098    3103    3097    3098    3104
    3103    3098    3102    3104    3098    3102    3104    3098    3103
    3106    3105    3107    3106    3105    3108    3106    3105    3109
    3108    3105    3107    3109    3105    3107    3109    3105    3108
    3105    3106    3110    3105    3106    3111    3105    3106    3112
    3111    3106    3110    3112    3106    3110    3112    3106    3111
    3114    3113    3115    3114    3113    3116    3114    3113    3117
    3116    3113    3115    3117    3113    3115    3117    3113    3116
    3113    3114    3118    3113    3114    3119    3113    3114    3120
    3119    3114    3118    3120    3114    3118    3120    3114    3119
    3122    3121    3123    3122    3121    3124    3122    3121    3125
    3124    3121    3123    3125    3121    3123    3125    3121    3124
    3121    3122    3126    3121    3122    3127    3121    3122    3128
    3127    3122    3126    3128    3122    3126    3128    3122    3127
    3130    3129    3131    3130    3129    3132    3130    3129    3133
    3132    3129    3131    3133    3129    3131    3133    3129    3132
    3129    3130    3134    3129    3130    3135    3129    3130    3136
    3135    3130    3134    3136    3130    3134    3136    3130    3135
    3138    3137    3139    3138    3137    3140    3138    3137    3141
    3140    3137    3139    3141    3137    3139    3141    3137    3140
    3137    3138    3142    3137    3138    3143    3137    3138    3144
    3143    3138    3142    3144    3138    3142    3144    3138    3143
    3146    3145    3147    3146    3145    3148    3146    3145    3149
    3148    3145    3147    3149    3145    3147    3149    3145    3148
    3145    3146    3150    3145    3146    3151    3145    3146    3152
    3151    3146    3150    3152    3146    3150    3152    3146    3151
    3154    3153    3155    3154    3153    3156    3154    3153    3157
    3156    3153    3155    3157    3153    3155    3157    3153    3156
    3153    3154    3158    3153    3154    3159    3153    3154    3160
    3159    3154    3158    3160    3154    3158    3160    3154    3159
    3162    3161    3163    3162    3161    3164    3162    3161    3165
    3164    3161    3163    3165    3161    3163    3165    3161    3164
    3161    3162    3166    3161    3162    3167    3161    3162    3168
    3167    3162    3166    3168    3162    3166    3168    3162    3167
    3170    3169    3171    3170    3169    3172    3170    3169    3173
    3172    3169    3171    3173    3169    3171    3173    3169    3172
    3169    3170    3174    3169    3170    3175    3169    3170    3176
    3175    3170    3174    3176    3170    3174    3176    3170    3175
    3178    3177    3179    3178    3177    3180    3178    3177    3181
    3180    3177    3179    3181    3177    3179    3181    3177    3180
    3177    3178    3182    3177    3178    3183    3177    3178    3184
    3183    3178    3182    3184    3178    3182    3184    3178    3183
    3186    3185    3187    3186    3185    3188    3186    3185    3189
    3188    3185    3187    3189    3185    3187    3189    3185    3188
    3185    3186    3190    3185    3186    3191    3185    3186    3192
    3191    3186    3190    3192    3186    3190    3192    3186    3191
    3194    3193    3195    3194    3193    3196    3194    3193    3197
    3196    3193    3195    3197    3193    3195    3197    3193    3196
    3193    3194    3198    3193    3194    3199    3193    3194    3200
    3199    3194    3198    3200    3194    3198    3200    3194    3199
    3202    3201    3203    3202    3201    3204    3202    3201    3205
    3204    3201    3203    3205    3201    3203    3205    3201    3204
    3201    3202    3206    3201    3202    3207    3201    3202    3208
    3207    3202    3206    3208    3202    3206    3208    3202    3207
    3210    3209    3211    3210    3209    3212    3210    3209    3213
    3212    3209    3211    3213    3209    3211    3213    3209    3212
    3209    3210    3214    3209    3210    3215    3209    3210    3216
    3215    3210    3214    3216    3210    3214    3216    3210    3215
    3218    3217    3219    3218    3217    3220    3218    3217    3221
    3220    3217    3219    3221    3217    3219    3221    3217    3220
    3217    3218    3222    3217    3218    3223    3217    3218    3224
    3223    3218    3222    3224    3218    3222    3224    3218    3223
    3226    3225    3227    3226    3225    3228    3226    3225    3229
    3228    3225    3227    3229    3225    3227    3229    3225    3228
    3225    3226    3230    3225    3226    3231    3225    3226    3232
    3231    3226    3230    3232    3226    3230    3232    3226    3231
    3234    3233    3235    3234    3233    3236    3234    3233    3237
    3236    3233    3235    3237    3233    3235    3237    3233    3236
    3233    3234    3238    3233    3234    3239    3233    3234    3240
    3239    3234    3238    3240    3234    3238    3240    3234    3239
    3242    3241    3243    3242    3241    3244    3242    3241    3245
    3244    3241    3243    3245    3241    3243    3245    3241    3244
    3241    3242    3246    3241    3242    3247    3241    3242    3248
    3247    3242    3246    3248    3242    3246    3248    3242    3247
    3250    3249    3251    3250    3249    3252    3250    3249    3253
    3252    3249    3251    3253    3249    3251    3253    3249    3252
    3249    3250    3254    3249    3250    3255    3249    3250    3256
    3255    3250    3254    3256    3250    3254    3256    3250    3255
    3258    3257    3259    3258    3257    3260    3258    3257    3261
    3260    3257    3259    3261    3257    3259    3261    3257    3260
    3257    3258    3262    3257    3258    3263    3257    3258    3264
    3263    3258    3262    3264    3258    3262    3264    3258    3263
    3266    3265    3267    3266    3265    3268    3266    3265    3269
    3268    3265    3267    3269    3265    3267    3269    3265    3268
    3265    3266    3270    3265    3266    3271    3265    3266    3272
    3271    3266    3270    3272    3266    3270    3272    3266    3271
    3274    3273    3275    3274    3273    3276    3274    3273    3277
    3276    3273    3275    3277    3273    3275    3277    3273    3276
    3273    3274    3278    3273    3274    3279    3273    3274    3280
    3279    3274    3278    3280    3274    3278    3280    3274    3279
    3282    3281    3283    3282    3281    3284    3282    3281    3285
    3284    3281    3283    3285    3281    3283    3285    3281    3284
    3281    3282    3286    3281    3282    3287    3281    3282    3288
    3287    3282    3286    3288    3282    3286    3288    3282    3287
    3290    3289    3291    3290    3289    3292    3290    3289    3293
    3292    3289    3291    3293    3289    3291    3293    3289    3292
    3289    3290    3294    3289    3290    3295    3289    3290    3296
    3295    3290    3294    3296    3290    3294    3296    3290    3295
    3298    3297    3299    3298    3297    3300    3298    3297    3301
    3300    3297    3299    3301    3297    3299    3301    3297    3300
    3297    3298    3302    3297    3298    3303    3297    3298    3304
    3303    3298    3302    3304    3298    3302    3304    3298    3303
    3306    3305    3307    3306    3305    3308    3306    3305    3309
    3308    3305    3307    3309    3305    3307    3309    3305    3308
    3305    3306    3310    3305    3306    3311    3305    3306    3312
    3311    3306    3310    3312    3306    3310    3312    3306    3311
    3314    3313    3315    3314    3313    3316    3314    3313    3317
    3316    3313    3315    3317    3313    3315    3317    3313    3316
    3313    3314    3318    3313    3314    3319    3313    3314    3320
    3319    3314    3318    3320    3314    3318    3320    3314    3319
    3322    3321    3323    3322    3321    3324    3322    3321    3325
    3324    3321    3323    3325    3321    3323    3325    3321    3324
    3321    3322    3326    3321    3322    3327    3321    3322    3328
    3327    3322    3326    3328    3322    3326    3328    3322    3327
    3330    3329    3331    3330    3329    3332    3330    3329    3333
    3332    3329    3331    3333    3329    3331    3333    3329    3332
    3329    3330    3334    3329    3330    3335    3329    3330    3336
    3335    3330    3334    3336    3330    3334    3336    3330    3335
    3338    3337    3339    3338    3337    3340    3338    3337    3341
    3340    3337    3339    3341    3337    3339    3341    3337    3340
    3337    3338    3342    3337    3338    3343    3337    3338    3344
    3343    3338    3342    3344    3338    3342    3344    3338    3343
    3346    3345    3347    3346    3345    3348    3346    3345    3349
    3348    3345    3347    3349    3345    3347    3349    3345    3348
    3345    3346    3350    3345    3346    3351    3345    3346    3352
    3351    3346    3350    3352    3346    3350    3352    3346    3351
    3354    3353    3355    3354    3353    3356    3354    3353    3357
    3356    3353    3355    3357    3353    3355    3357    3353    3356
    3353    3354    3358    3353    3354    3359    3353    3354    3360
    3359    3354    3358    3360    3354    3358    3360    3354    3359
    3362    3361    3363    3362    3361    3364    3362    3361    3365
    3364    3361    3363    3365    3361    3363    3365    3361    3364
    3361    3362    3366    3361    3362    3367    3361    3362    3368
    3367    3362    3366    3368    3362    3366    3368    3362    3367
    3370    3369    3371    3370    3369    3372    3370    3369    3373
    3372    3369    3371    3373    3369    3371    3373    3369    3372
    3369    3370    3374    3369    3370    3375    3369    3370    3376
    3375    3370    3374    3376    3370    3374    3376    3370    3375
    3378    3377    3379    3378    3377    3380    3378    3377    3381
    3380    3377    3379    3381    3377    3379    3381    3377    3380
    3377    3378    3382    3377    3378    3383    3377    3378    3384
    3383    3378    3382    3384    3378    3382    3384    3378    3383
    3386    3385    3387    3386    3385    3388    3386    3385    3389
    3388    3385    3387    3389    3385    3387    3389    3385    3388
    3385    3386    3390    3385    3386    3391    3385    3386    3392
    3391    3386    3390    3392    3386    3390    3392    3386    3391
    3394    3393    3395    3394    3393    3396    3394    3393    3397
    3396    3393    3395    3397    3393    3395    3397    3393    3396
    3393    3394    3398    3393    3394    3399    3393    3394    3400
    3399    3394    3398    3400    3394    3398    3400    3394    3399
    3402    3401    3403    3402    3401    3404    3402    3401    3405
    3404    3401    3403    3405    3401    3403    3405    3401    3404
    3401    3402    3406    3401    3402    3407    3401    3402    3408
    3407    3402    3406    3408    3402    3406    3408    3402    3407
    3410    3409    3411    3410    3409    3412    3410    3409    3413
    3412    3409    3411    3413    3409    3411    3413    3409    3412
    3409    3410    3414    3409    3410    3415    3409    3410    3416
    3415    3410    3414    3416    3410    3414    3416    3410    3415
    3418    3417    3419    3418    3417    3420    3418    3417    3421
    3420    3417    3419    3421    3417    3419    3421    3417    3420
    3417    3418    3422    3417    3418    3423    3417    3418    3424
    3423    3418    3422    3424    3418    3422    3424    3418    3423
    3426    3425    3427    3426    3425    3428    3426    3425    3429
    3428    3425    3427    3429    3425    3427    3429    3425    3428
    3425    3426    3430    3425    3426    3431    3425    3426    3432
    3431    3426    3430    3432    3426    3430    3432    3426    3431
    3434    3433    3435    3434    3433    3436    3434    3433    3437
    3436    3433    3435    3437    3433    3435    3437    3433    3436
    3433    3434    3438    3433    3434    3439    3433    3434    3440
    3439    3434    3438    3440    3434    3438    3440    3434    3439
    3442    3441    3443    3442    3441    3444    3442    3441    3445
    3444    3441    3443    3445    3441    3443    3445    3441    3444
    3441    3442    3446    3441    3442    3447    3441    3442    3448
    3447    3442    3446    3448    3442    3446    3448    3442    3447
    3450    3449    3451    3450    3449    3452    3450    3449    3453
    3452    3449    3451    3453    3449    3451    3453    3449    3452
    3449    3450    3454    3449    3450    3455    3449    3450    3456
    3455    3450    3454    3456    3450    3454    3456    3450    3455
    3458    3457    3459    3458    3457    3460    3458    3457    3461
    3460    3457    3459    3461    3457    3459    3461    3457    3460
    3457    3458    3462    3457    3458    3463    3457    3458    3464
    3463    3458    3462    3464    3458    3462    3464    3458    3463
    3466    3465    3467    3466    3465    3468    3466    3465    3469
    3468    3465    3467    3469    3465    3467    3469    3465    3468
    3465    3466    3470    3465    3466    3471    3465    3466    3472
    3471    3466    3470    3472    3466    3470    3472    3466    3471
    3474    3473    3475    3474    3473    3476    3474    3473    3477
    3476    3473    3475    3477    3473    3475    3477    3473    3476
    3473    3474    3478    3473    3474    3479    3473    3474    3480
    3479    3474    3478    3480    3474    3478    3480    3474    3479
    3482    3481    3483    3482    3481    3484    3482    3481    3485
    3484    3481    3483    3485    3481    3483    3485    3481    3484
    3481    3482    3486    3481    3482    3487    3481    3482    3488
    3487    3482    3486    3488    3482    3486    3488    3482    3487
    3490    3489    3491    3490    3489    3492    3490    3489    3493
    3492    3489    3491    3493    3489    3491    3493    3489    3492
    3489    3490    3494    3489    3490    3495    3489    3490    3496
    3495    3490    3494    3496    3490    3494    3496    3490    3495
    3498    3497    3499    3498    3497    3500    3498    3497    3501
    3500    3497    3499    3501    3497    3499    3501    3497    3500
    3497    3498    3502    3497    3498    3503    3497    3498    3504
    3503    3498    3502    3504    3498    3502    3504    3498    3503
    3506    3505    3507    3506    3505    3508    3506    3505    3509
    3508    3505    3507    3509    3505    3507    3509    3505    3508
    3505    3506    3510    3505    3506    3511    3505    3506    3512
    3511    3506    3510    3512    3506    3510    3512    3506    3511
    3514    3513    3515    3514    3513    3516    3514    3513    3517
    3516    3513    3515    3517    3513    3515    3517    3513    3516
    3513    3514    3518    3513    3514    3519    3513    3514    3520
    3519    3514    3518    3520    3514    3518    3520    3514    3519
    3522    3521    3523    3522    3521    3524    3522    3521    3525
    3524    3521    3523    3525    3521    3523    3525    3521    3524
    3521    3522    3526    3521    3522    3527    3521    3522    3528
    3527    3522    3526    3528    3522    3526    3528    3522    3527
    3530    3529    3531    3530    3529    3532    3530    3529    3533
    3532    3529    3531    3533    3529    3531    3533    3529    3532
    3529    3530    3534    3529    3530    3535    3529    3530    3536
    3535    3530    3534    3536    3530    3534    3536    3530    3535
    3538    3537    3539    3538    3537    3540    3538    3537    3541
    3540    3537    3539    3541    3537    3539    3541    3537    3540
    3537    3538    3542    3537    3538    3543    3537    3538    3544
    3543    3538    3542    3544    3538    3542    3544    3538    3543
    3546    3545    3547    3546    3545    3548    3546    3545    3549
    3548    3545    3547    3549    3545    3547    3549    3545    3548
    3545    3546    3550    3545    3546    3551    3545    3546    3552
    3551    3546    3550    3552    3546    3550    3552    3546    3551
    3554    3553    3555    3554    3553    3556    3554    3553    3557
    3556    3553    3555    3557    3553    3555    3557    3553    3556
    3553    3554    3558    3553    3554    3559    3553    3554    3560
    3559    3554    3558    3560    3554    3558    3560    3554    3559
    3562    3561    3563    3562    3561    3564    3562    3561    3565
    3564    3561    3563    3565    3561    3563    3565    3561    3564
    3561    3562    3566    3561    3562    3567    3561    3562    3568
    3567    3562    3566    3568    3562    3566    3568    3562    3567
    3570    3569    3571    3570    3569    3572    3570    3569    3573
    3572    3569    3571    3573    3569    3571    3573    3569    3572
    3569    3570    3574    3569    3570    3575    3569    3570    3576
    3575    3570    3574    3576    3570    3574    3576    3570    3575
    3578    3577    3579    3578    3577    3580    3578    3577    3581
    3580    3577    3579    3581    3577    3579    3581    3577    3580
    3577    3578    3582    3577    3578    3583    3577    3578    3584
    3583    3578    3582    3584    3578    3582    3584    3578    3583
    3586    3585    3587    3586    3585    3588    3586    3585    3589
    3588    3585    3587    3589    3585    3587    3589    3585    3588
    3585    3586    3590    3585    3586    3591    3585    3586    3592
    3591    3586    3590    3592    3586    3590    3592    3586    3591
    3594    3593    3595    3594    3593    3596    3594    3593    3597
    3596    3593    3595    3597    3593    3595    3597    3593    3596
    3593    3594    3598    3593    3594    3599    3593    3594    3600
    3599    3594    3598    3600    3594    3598    3600    3594    3599
    3602    3601    3603    3602    3601    3604    3602    3601    3605
    3604    3601    3603    3605    3601    3603    3605    3601    3604
    3601    3602    3606    3601    3602    3607    3601    3602    3608
    3607    3602    3606    3608    3602    3606    3608    3602    3607
    3610    3609    3611    3610    3609    3612    3610    3609    3613
    3612    3609    3611    3613    3609    3611    3613    3609    3612
    3609    3610    3614    3609    3610    3615    3609    3610    3616
    3615    3610    3614    3616    3610    3614    3616    3610    3615
    3618    3617    3619    3618    3617    3620    3618    3617    3621
    3620    3617    3619    3621    3617    3619    3621    3617    3620
    3617    3618    3622    3617    3618    3623    3617    3618    3624
    3623    3618    3622    3624    3618    3622    3624    3618    3623
    3626    3625    3627    3626    3625    3628    3626    3625    3629
    3628    3625    3627    3629    3625    3627    3629    3625    3628
    3625    3626    3630    3625    3626    3631    3625    3626    3632
    3631    3626    3630    3632    3626    3630    3632    3626    3631
    3634    3633    3635    3634    3633    3636    3634    3633    3637
    3636    3633    3635    3637    3633    3635    3637    3633    3636
    3633    3634    3638    3633    3634    3639    3633    3634    3640
    3639    3634    3638    3640    3634    3638    3640    3634    3639
    3642    3641    3643    3642    3641    3644    3642    3641    3645
    3644    3641    3643    3645    3641    3643    3645    3641    3644
    3641    3642    3646    3641    3642    3647    3641    3642    3648
    3647    3642    3646    3648    3642    3646    3648    3642    3647
    3650    3649    3651    3650    3649    3652    3650    3649    3653
    3652    3649    3651    3653    3649    3651    3653    3649    3652
    3649    3650    3654    3649    3650    3655    3649    3650    3656
    3655    3650    3654    3656    3650    3654    3656    3650    3655
    3658    3657    3659    3658    3657    3660    3658    3657    3661
    3660    3657    3659    3661    3657    3659    3661    3657    3660
    3657    3658    3662    3657    3658    3663    3657    3658    3664
    3663    3658    3662    3664    3658    3662    3664    3658    3663
    3666    3665    3667    3666    3665    3668    3666    3665    3669
    3668    3665    3667    3669    3665    3667    3669    3665    3668
    3665    3666    3670    3665    3666    3671    3665    3666    3672
    3671    3666    3670    3672    3666    3670    3672    3666    3671
    3674    3673    3675    3674    3673    3676    3674    3673    3677
    3676    3673    3675    3677    3673    3675    3677    3673    3676
    3673    3674    3678    3673    3674    3679    3673    3674    3680
    3679    3674    3678    3680    3674    3678    3680    3674    3679
    3682    3681    3683    3682    3681    3684    3682    3681    3685
    3684    3681    3683    3685    3681    3683    3685    3681    3684
    3681    3682    3686    3681    3682    3687    3681    3682    3688
    3687    3682    3686    3688    3682    3686    3688    3682    3687
    3690    3689    3691    3690    3689    3692    3690    3689    3693
    3692    3689    3691    3693    3689    3691    3693    3689    3692
    3689    3690    3694    3689    3690    3695    3689    3690    3696
    3695    3690    3694    3696    3690    3694    3696    3690    3695
    3698    3697    3699    3698    3697    3700    3698    3697    3701
    3700    3697    3699    3701    3697    3699    3701    3697    3700
    3697    3698    3702    3697    3698    3703    3697    3698    3704
    3703    3698    3702    3704    3698    3702    3704    3698    3703
    3706    3705    3707    3706    3705    3708    3706    3705    3709
    3708    3705    3707    3709    3705    3707    3709    3705    3708
    3705    3706    3710    3705    3706    3711    3705    3706    3712
    3711    3706    3710    3712    3706    3710    3712    3706    3711
    3714    3713    3715    3714    3713    3716    3714    3713    3717
    3716    3713    3715    3717    3713    3715    3717    3713    3716
    3713    3714    3718    3713    3714    3719    3713    3714    3720
    3719    3714    3718    3720    3714    3718    3720    3714    3719
    3722    3721    3723    3722    3721    3724    3722    3721    3725
    3724    3721    3723    3725    3721    3723    3725    3721    3724
    3721    3722    3726    3721    3722    3727    3721    3722    3728
    3727    3722    3726    3728    3722    3726    3728    3722    3727
    3730    3729    3731    3730    3729    3732    3730    3729    3733
    3732    3729    3731    3733    3729    3731    3733    3729    3732
    3729    3730    3734    3729    3730    3735    3729    3730    3736
    3735    3730    3734    3736    3730    3734    3736    3730    3735
    3738    3737    3739    3738    3737    3740    3738    3737    3741
    3740    3737    3739    3741    3737    3739    3741    3737    3740
    3737    3738    3742    3737    3738    3743    3737    3738    3744
    3743    3738    3742    3744    3738    3742    3744    3738    3743
    3746    3745    3747    3746    3745    3748    3746    3745    3749
    3748    3745    3747    3749    3745    3747    3749    3745    3748
    3745    3746    3750    3745    3746    3751    3745    3746    3752
    3751    3746    3750    3752    3746    3750    3752    3746    3751
    3754    3753    3755    3754    3753    3756    3754    3753    3757
    3756    3753    3755    3757    3753    3755    3757    3753    3756
    3753    3754    3758    3753    3754    3759    3753    3754    3760
    3759    3754    3758    3760    3754    3758    3760    3754    3759
    3762    3761    3763    3762    3761    3764    3762    3761    3765
    3764    3761    3763    3765    3761    3763    3765    3761    3764
    3761    3762    3766    3761    3762    3767    3761    3762    3768
    3767    3762    3766    3768    3762    3766    3768    3762    3767
    3770    3769    3771    3770    3769    3772    3770    3769    3773
    3772    3769    3771    3773    3769    3771    3773    3769    3772
    3769    3770    3774    3769    3770    3775    3769    3770    3776
    3775    3770    3774    3776    3770    3774    3776    3770    3775
    3778    3777    3779    3778    3777    3780    3778    3777    3781
    3780    3777    3779    3781    3777    3779    3781    3777    3780
    3777    3778    3782    3777    3778    3783    3777    3778    3784
    3783    3778    3782    3784    3778    3782    3784    3778    3783
    3786    3785    3787    3786    3785    3788    3786    3785    3789
    3788    3785    3787    3789    3785    3787    3789    3785    3788
    3785    3786    3790    3785    3786    3791    3785    3786    3792
    3791    3786    3790    3792    3786    3790    3792    3786    3791
    3794    3793    3795    3794    3793    3796    3794    3793    3797
    3796    3793    3795    3797    3793    3795    3797    3793    3796
    3793    3794    3798    3793    3794    3799    3793    3794    3800
    3799    3794    3798    3800    3794    3798    3800    3794    3799
    3802    3801    3803    3802    3801    3804    3802    3801    3805
    3804    3801    3803    3805    3801    3803    3805    3801    3804
    3801    3802    3806    3801    3802    3807    3801    3802    3808
    3807    3802    3806    3808    3802    3806    3808    3802    3807
    3810    3809    3811    3810    3809    3812    3810    3809    3813
    3812    3809    3811    3813    3809    3811    3813    3809    3812
    3809    3810    3814    3809    3810    3815    3809    3810    3816
    3815    3810    3814    3816    3810    3814    3816    3810    3815
    3818    3817    3819    3818    3817    3820    3818    3817    3821
    3820    3817    3819    3821    3817    3819    3821    3817    3820
    3817    3818    3822    3817    3818    3823    3817    3818    3824
    3823    3818    3822    3824    3818    3822    3824    3818    3823
    3826    3825    3827    3826    3825    3828    3826    3825    3829
    3828    3825    3827    3829    3825    3827    3829    3825    3828
    3825    3826    3830    3825    3826    3831    3825    3826    3832
    3831    3826    3830    3832    3826    3830    3832    3826    3831
    3834    3833    3835    3834    3833    3836    3834    3833    3837
    3836    3833    3835    3837    3833    3835    3837    3833    3836
    3833    3834    3838    3833    3834    3839    3833    3834    3840
    3839    3834    3838    3840    3834    3838    3840    3834    3839
    3842    3841    3843    3842    3841    3844    3842    3841    3845
    3844    3841    3843    3845    3841    3843    3845    3841    3844
    3841    3842    3846    3841    3842    3847    3841    3842    3848
    3847    3842    3846    3848    3842    3846    3848    3842    3847
    3850    3849    3851    3850    3849    3852    3850    3849    3853
    3852    3849    3851    3853    3849    3851    3853    3849    3852
    3849    3850    3854    3849    3850    3855    3849    3850    3856
    3855    3850    3854    3856    3850    3854    3856    3850    3855
    3858    3857    3859    3858    3857    3860    3858    3857    3861
    3860    3857    3859    3861    3857    3859    3861    3857    3860
    3857    3858    3862    3857    3858    3863    3857    3858    3864
    3863    3858    3862    3864    3858    3862    3864    3858    3863
    3866    3865    3867    3866    3865    3868    3866    3865    3869
    3868    3865    3867    3869    3865    3867    3869    3865    3868
    3865    3866    3870    3865    3866    3871    3865    3866    3872
    3871    3866    3870    3872    3866    3870    3872    3866    3871
    3874    3873    3875    3874    3873    3876    3874    3873    3877
    3876    3873    3875    3877    3873    3875    3877    3873    3876
    3873    3874    3878    3873    3874    3879    3873    3874    3880
    3879    3874    3878    3880    3874    3878    3880    3874    3879
    3882    3881    3883    3882    3881    3884    3882    3881    3885
    3884    3881    3883    3885    3881    3883    3885    3881    3884
    3881    3882    3886    3881    3882    3887    3881    3882    3888
    3887    3882    3886    3888    3882    3886    3888    3882    3887
    3890    3889    3891    3890    3889    3892    3890    3889    3893
    3892    3889    3891    3893    3889    3891    3893    3889    3892
    3889    3890    3894    3889    3890    3895    3889    3890    3896
    3895    3890    3894    3896    3890    3894    3896    3890    3895
    3898    3897    3899    3898    3897    3900    3898    3897    3901
    3900    3897    3899    3901    3897    3899    3901    3897    3900
    3897    3898    3902    3897    3898    3903    3897    3898    3904
    3903    3898    3902    3904    3898    3902    3904    3898    3903
    3906    3905    3907    3906    3905    3908    3906    3905    3909
    3908    3905    3907    3909    3905    3907    3909    3905    3908
    3905    3906    3910    3905    3906    3911    3905    3906    3912
    3911    3906    3910    3912    3906    3910    3912    3906    3911
    3914    3913    3915    3914    3913    3916    3914    3913    3917
    3916    3913    3915    3917    3913    3915    3917    3913    3916
    3913    3914    3918    3913    3914    3919    3913    3914    3920
    3919    3914    3918    3920    3914    3918    3920    3914    3919
    3922    3921    3923    3922    3921    3924    3922    3921    3925
    3924    3921    3923    3925    3921    3923    3925    3921    3924
    3921    3922    3926    3921    3922    3927    3921    3922    3928
    3927    3922    3926    3928    3922    3926    3928    3922    3927
    3930    3929    3931    3930    3929    3932    3930    3929    3933
    3932    3929    3931    3933    3929    3931    3933    3929    3932
    3929    3930    3934    3929    3930    3935    3929    3930    3936
    3935    3930    3934    3936    3930    3934    3936    3930    3935
    3938    3937    3939    3938    3937    3940    3938    3937    3941
    3940    3937    3939    3941    3937    3939    3941    3937    3940
    3937    3938    3942    3937    3938    3943    3937    3938    3944
    3943    3938    3942    3944    3938    3942    3944    3938    3943
    3946    3945    3947    3946    3945    3948    3946    3945    3949
    3948    3945    3947    3949    3945    3947    3949    3945    3948
    3945    3946    3950    3945    3946    3951    3945    3946    3952
    3951    3946    3950    3952    3946    3950    3952    3946    3951
    3954    3953    3955    3954    3953    3956    3954    3953    3957
    3956    3953    3955    3957    3953    3955    3957    3953    3956
    3953    3954    3958    3953    3954    3959    3953    3954    3960
    3959    3954    3958    3960    3954    3958    3960    3954    3959
    3962    3961    3963    3962    3961    3964    3962    3961    3965
    3964    3961    3963    3965    3961    3963    3965    3961    3964
    3961    3962    3966    3961    3962    3967    3961    3962    3968
    3967    3962    3966    3968    3962    3966    3968    3962    3967
    3970    3969    3971    3970    3969    3972    3970    3969    3973
    3972    3969    3971    3973    3969    3971    3973    3969    3972
    3969    3970    3974    3969    3970    3975    3969    3970    3976
    3975    3970    3974    3976    3970    3974    3976    3970    3975
    3978    3977    3979    3978    3977    3980    3978    3977    3981
    3980    3977    3979    3981    3977    3979    3981    3977    3980
    3977    3978    3982    3977    3978    3983    3977    3978    3984
    3983    3978    3982    3984    3978    3982    3984    3978    3983
    3986    3985    3987    3986    3985    3988    3986    3985    3989
    3988    3985    3987    3989    3985    3987    3989    3985    3988
    3985    3986    3990    3985    3986    3991    3985    3986    3992
    3991    3986    3990    3992    3986    3990    3992    3986    3991
    3994    3993    3995    3994    3993    3996    3994    3993    3997
    3996    3993    3995    3997    3993    3995    3997    3993    3996
    3993    3994    3998    3993    3994    3999    3993    3994    4000
    3999    3994    3998    4000    3994    3998    4000    3994    3999
    4002    4001    4003    4002    4001    4004    4002    4001    4005
    4004    4001    4003    4005    4001    4003    4005    4001    4004
    4001    4002    4006    4001    4002    4007    4001    4002    4008
    4007    4002    4006    4008    4002    4006    4008    4002    4007
    4010    4009    4011    4010    4009    4012    4010    4009    4013
    4012    4009    4011    4013    4009    4011    4013    4009    4012
    4009    4010    4014    4009    4010    4015    4009    4010    4016
    4015    4010    4014    4016    4010    4014    4016    4010    4015
    4018    4017    4019    4018    4017    4020    4018    4017    4021
    4020    4017    4019    4021    4017    4019    4021    4017    4020
    4017    4018    4022    4017    4018    4023    4017    4018    4024
    4023    4018    4022    4024    4018    4022    4024    4018    4023
    4026    4025    4027    4026    4025    4028    4026    4025    4029
    4028    4025    4027    4029    4025    4027    4029    4025    4028
    4025    4026    4030    4025    4026    4031    4025    4026    4032
    4031    4026    4030    4032    4026    4030    4032    4026    4031
    4034    4033    4035    4034    4033    4036    4034    4033    4037
    4036    4033    4035    4037    4033    4035    4037    4033    4036
    4033    4034    4038    4033    4034    4039    4033    4034    4040
    4039    4034    4038    4040    4034    4038    4040    4034    4039
    4042    4041    4043    4042    4041    4044    4042    4041    4045
    4044    4041    4043    4045    4041    4043    4045    4041    4044
    4041    4042    4046    4041    4042    4047    4041    4042    4048
    4047    4042    4046    4048    4042    4046    4048    4042    4047
    4050    4049    4051    4050    4049    4052    4050    4049    4053
    4052    4049    4051    4053    4049    4051    4053    4049    4052
    4049    4050    4054    4049    4050    4055    4049    4050    4056
    4055    4050    4054    4056    4050    4054    4056    4050    4055
    4058    4057    4059    4058    4057    4060    4058    4057    4061
    4060    4057    4059    4061    4057    4059    4061    4057    4060
    4057    4058    4062    4057    4058    4063    4057    4058    4064
    4063    4058    4062    4064    4058    4062    4064    4058    4063
    4066    4065    4067    4066    4065    4068    4066    4065    4069
    4068    4065    4067    4069    4065    4067    4069    4065    4068
    4065    4066    4070    4065    4066    4071    4065    4066    4072
    4071    4066    4070    4072    4066    4070    4072    4066    4071
    4074    4073    4075    4074    4073    4076    4074    4073    4077
    4076    4073    4075    4077    4073    4075    4077    4073    4076
    4073    4074    4078    4073    4074    4079    4073    4074    4080
    4079    4074    4078    4080    4074    4078    4080    4074    4079
    4082    4081    4083    4082    4081    4084    4082    4081    4085
    4084    4081    4083    4085    4081    4083    4085    4081    4084
    4081    4082    4086    4081    4082    4087    4081    4082    4088
    4087    4082    4086    4088    4082    4086    4088    4082    4087
    4090    4089    4091    4090    4089    4092    4090    4089    4093
    4092    4089    4091    4093    4089    4091    4093    4089    4092
    4089    4090    4094    4089    4090    4095    4089    4090    4096
    4095    4090    4094    4096    4090    4094    4096    4090    4095
    4098    4097    4099    4098    4097    4100    4098    4097    4101
    4100    4097    4099    4101    4097    4099    4101    4097    4100
    4097    4098    4102    4097    4098    4103    4097    4098    4104
    4103    4098    4102    4104    4098    4102    4104    4098    4103
    4106    4105    4107    4106    4105    4108    4106    4105    4109
    4108    4105    4107    4109    4105    4107    4109    4105    4108
    4105    4106    4110    4105    4106    4111    4105    4106    4112
    4111    4106    4110    4112    4106    4110    4112    4106    4111
    4114    4113    4115    4114    4113    4116    4114    4113    4117
    4116    4113    4115    4117    4113    4115    4117    4113    4116
    4113    4114    4118    4113    4114    4119    4113    4114    4120
    4119    4114    4118    4120    4114    4118    4120    4114    4119
    4122    4121    4123    4122    4121    4124    4122    4121    4125
    4124    4121    4123    4125    4121    4123    4125    4121    4124
    4121    4122    4126    4121    4122    4127    4121    4122    4128
    4127    4122    4126    4128    4122    4126    4128    4122    4127
    4130    4129    4131    4130    4129    4132    4130    4129    4133
    4132    4129    4131    4133    4129    4131    4133    4129    4132
    4129    4130    4134    4129    4130    4135    4129    4130    4136
    4135    4130    4134    4136    4130    4134    4136    4130    4135
    4138    4137    4139    4138    4137    4140    4138    4137    4141
    4140    4137    4139    4141    4137    4139    4141    4137    4140
    4137    4138    4142    4137    4138    4143    4137    4138    4144
    4143    4138    4142    4144    4138    4142    4144    4138    4143
    4146    4145    4147    4146    4145    4148    4146    4145    4149
    4148    4145    4147    4149    4145    4147    4149    4145    4148
    4145    4146    4150    4145    4146    4151    4145    4146    4152
    4151    4146    4150    4152    4146    4150    4152    4146    4151
    4154    4153    4155    4154    4153    4156    4154    4153    4157
    4156    4153    4155    4157    4153    4155    4157    4153    4156
    4153    4154    4158    4153    4154    4159    4153    4154    4160
    4159    4154    4158    4160    4154    4158    4160    4154    4159
    4162    4161    4163    4162    4161    4164    4162    4161    4165
    4164    4161    4163    4165    4161    4163    4165    4161    4164
    4161    4162    4166    4161    4162    4167    4161    4162    4168
    4167    4162    4166    4168    4162    4166    4168    4162    4167
    4170    4169    4171    4170    4169    4172    4170    4169    4173
    4172    4169    4171    4173    4169    4171    4173    4169    4172
    4169    4170    4174    4169    4170    4175    4169    4170    4176
    4175    4170    4174    4176    4170    4174    4176    4170    4175
    4178    4177    4179    4178    4177    4180    4178    4177    4181
    4180    4177    4179    4181    4177    4179    4181    4177    4180
    4177    4178    4182    4177    4178    4183    4177    4178    4184
    4183    4178    4182    4184    4178    4182    4184    4178    4183
    4186    4185    4187    4186    4185    4188    4186    4185    4189
    4188    4185    4187    4189    4185    4187    4189    4185    4188
    4185    4186    4190    4185    4186    4191    4185    4186    4192
    4191    4186    4190    4192    4186    4190    4192    4186    4191
    4194    4193    4195    4194    4193    4196    4194    4193    4197
    4196    4193    4195    4197    4193    4195    4197    4193    4196
    4193    4194    4198    4193    4194    4199    4193    4194    4200
    4199    4194    4198    4200    4194    4198    4200    4194    4199
    4202    4201    4203    4202    4201    4204    4202    4201    4205
    4204    4201    4203    4205    4201    4203    4205    4201    4204
    4201    4202    4206    4201    4202    4207    4201    4202    4208
    4207    4202    4206    4208    4202    4206    4208    4202    4207
    4210    4209    4211    4210    4209    4212    4210    4209    4213
    4212    4209    4211    4213    4209    4211    4213    4209    4212
    4209    4210    4214    4209    4210    4215    4209    4210    4216
    4215    4210    4214    4216    4210    4214    4216    4210    4215
    4218    4217    4219    4218    4217    4220    4218    4217    4221
    4220    4217    4219    4221    4217    4219    4221    4217    4220
    4217    4218    4222    4217    4218    4223    4217    4218    4224
    4223    4218    4222    4224    4218    4222    4224    4218    4223
    4226    4225    4227    4226    4225    4228    4226    4225    4229
    4228    4225    4227    4229    4225    4227    4229    4225    4228
    4225    4226    4230    4225    4226    4231    4225    4226    4232
    4231    4226    4230    4232    4226    4230    4232    4226    4231
    4234    4233    4235    4234    4233    4236    4234    4233    4237
    4236    4233    4235    4237    4233    4235    4237    4233    4236
    4233    4234    4238    4233    4234    4239    4233    4234    4240
    4239    4234    4238    4240    4234    4238    4240    4234    4239
    4242    4241    4243    4242    4241    4244    4242    4241    4245
    4244    4241    4243    4245    4241    4243    4245    4241    4244
    4241    4242    4246    4241    4242    4247    4241    4242    4248
    4247    4242    4246    4248    4242    4246    4248    4242    4247
    4250    4249    4251    4250    4249    4252    4250    4249    4253
    4252    4249    4251    4253    4249    4251    4253    4249    4252
    4249    4250    4254    4249    4250    4255    4249    4250    4256
    4255    4250    4254    4256    4250    4254    4256    4250    4255
    4258    4257    4259    4258    4257    4260    4258    4257    4261
    4260    4257    4259    4261    4257    4259    4261    4257    4260
    4257    4258    4262    4257    4258    4263    4257    4258    4264
    4263    4258    4262    4264    4258    4262    4264    4258    4263
    4266    4265    4267    4266    4265    4268    4266    4265    4269
    4268    4265    4267    4269    4265    4267    4269    4265    4268
    4265    4266    4270    4265    4266    4271    4265    4266    4272
    4271    4266    4270    4272    4266    4270    4272    4266    4271
    4274    4273    4275    4274    4273    4276    4274    4273    4277
    4276    4273    4275    4277    4273    4275    4277    4273    4276
    4273    4274    4278    4273    4274    4279    4273    4274    4280
    4279    4274    4278    4280    4274    4278    4280    4274    4279
    4282    4281    4283    4282    4281    4284    4282    4281    4285
    4284    4281    4283    4285    4281    4283    4285    4281    4284
    4281    4282    4286    4281    4282    4287    4281    4282    4288
    4287    4282    4286    4288    4282    4286    4288    4282    4287
    4290    4289    4291    4290    4289    4292    4290    4289    4293
    4292    4289    4291    4293    4289    4291    4293    4289    4292
    4289    4290    4294    4289    4290    4295    4289    4290    4296
    4295    4290    4294    4296    4290    4294    4296    4290    4295
    4298    4297    4299    4298    4297    4300    4298    4297    4301
    4300    4297    4299    4301    4297    4299    4301    4297    4300
    4297    4298    4302    4297    4298    4303    4297    4298    4304
    4303    4298    4302    4304    4298    4302    4304    4298    4303
    4306    4305    4307    4306    4305    4308    4306    4305    4309
    4308    4305    4307    4309    4305    4307    4309    4305    4308
    4305    4306    4310    4305    4306    4311    4305    4306    4312
    4311    4306    4310    4312    4306    4310    4312    4306    4311
    4314    4313    4315    4314    4313    4316    4314    4313    4317
    4316    4313    4315    4317    4313    4315    4317    4313    4316
    4313    4314    4318    4313    4314    4319    4313    4314    4320
    4319    4314    4318    4320    4314    4318    4320    4314    4319
    4322    4321    4323    4322    4321    4324    4322    4321    4325
    4324    4321    4323    4325    4321    4323    4325    4321    4324
    4321    4322    4326    4321    4322    4327    4321    4322    4328
    4327    4322    4326    4328    4322    4326    4328    4322    4327
    4330    4329    4331    4330    4329    4332    4330    4329    4333
    4332    4329    4331    4333    4329    4331    4333    4329    4332
    4329    4330    4334    4329    4330    4335    4329    4330    4336
    4335    4330    4334    4336    4330    4334    4336    4330    4335
    4338    4337    4339    4338    4337    4340    4338    4337    4341
    4340    4337    4339    4341    4337    4339    4341    4337    4340
    4337    4338    4342    4337    4338    4343    4337    4338    4344
    4343    4338    4342    4344    4338    4342    4344    4338    4343
    4346    4345    4347    4346    4345    4348    4346    4345    4349
    4348    4345    4347    4349    4345    4347    4349    4345    4348
    4345    4346    4350    4345    4346    4351    4345    4346    4352
    4351    4346    4350    4352    4346    4350    4352    4346    4351
    4354    4353    4355    4354    4353    4356    4354    4353    4357
    4356    4353    4355    4357    4353    4355    4357    4353    4356
    4353    4354    4358    4353    4354    4359    4353    4354    4360
    4359    4354    4358    4360    4354    4358    4360    4354    4359
    4362    4361    4363    4362    4361    4364    4362    4361    4365
    4364    4361    4363    4365    4361    4363    4365    4361    4364
    4361    4362    4366    4361    4362    4367    4361    4362    4368
    4367    4362    4366    4368    4362    4366    4368    4362    4367
    4370    4369    4371    4370    4369    4372    4370    4369    4373
    4372    4369    4371    4373    4369    4371    4373    4369    4372
    4369    4370    4374    4369    4370    4375    4369    4370    4376
    4375    4370    4374    4376    4370    4374    4376    4370    4375
    4378    4377    4379    4378    4377    4380    4378    4377    4381
    4380    4377    4379    4381    4377    4379    4381    4377    4380
    4377    4378    4382    4377    4378    4383    4377    4378    4384
    4383    4378    4382    4384    4378    4382    4384    4378    4383
    4386    4385    4387    4386    4385    4388    4386    4385    4389
    4388    4385    4387    4389    4385    4387    4389    4385    4388
    4385    4386    4390    4385    4386    4391    4385    4386    4392
    4391    4386    4390    4392    4386    4390    4392    4386    4391
    4394    4393    4395    4394    4393    4396    4394    4393    4397
    4396    4393    4395    4397    4393    4395    4397    4393    4396
    4393    4394    4398    4393    4394    4399    4393    4394    4400
    4399    4394    4398    4400    4394    4398    4400    4394    4399
    4402    4401    4403    4402    4401    4404    4402    4401    4405
    4404    4401    4403    4405    4401    4403    4405    4401    4404
    4401    4402    4406    4401    4402    4407    4401    4402    4408
    4407    4402    4406    4408    4402    4406    4408    4402    4407
    4410    4409    4411    4410    4409    4412    4410    4409    4413
    4412    4409    4411    4413    4409    4411    4413    4409    4412
    4409    4410    4414    4409    4410    4415    4409    4410    4416
    4415    4410    4414    4416    4410    4414    4416    4410    4415
    4418    4417    4419    4418    4417    4420    4418    4417    4421
    4420    4417    4419    4421    4417    4419    4421    4417    4420
    4417    4418    4422    4417    4418    4423    4417    4418    4424
    4423    4418    4422    4424    4418    4422    4424    4418    4423
    4426    4425    4427    4426    4425    4428    4426    4425    4429
    4428    4425    4427    4429    4425    4427    4429    4425    4428
    4425    4426    4430    4425    4426    4431    4425    4426    4432
    4431    4426    4430    4432    4426    4430    4432    4426    4431
    4434    4433    4435    4434    4433    4436    4434    4433    4437
    4436    4433    4435    4437    4433    4435    4437    4433    4436
    4433    4434    4438    4433    4434    4439    4433    4434    4440
    4439    4434    4438    4440    4434    4438    4440    4434    4439
    4442    4441    4443    4442    4441    4444    4442    4441    4445
    4444    4441    4443    4445    4441    4443    4445    4441    4444
    4441    4442    4446    4441    4442    4447    4441    4442    4448
    4447    4442    4446    4448    4442    4446    4448    4442    4447
    4450    4449    4451    4450    4449    4452    4450    4449    4453
    4452    4449    4451    4453    4449    4451    4453    4449    4452
    4449    4450    4454    4449    4450    4455    4449    4450    4456
    4455    4450    4454    4456    4450    4454    4456    4450    4455
    4458    4457    4459    4458    4457    4460    4458    4457    4461
    4460    4457    4459    4461    4457    4459    4461    4457    4460
    4457    4458    4462    4457    4458    4463    4457    4458    4464
    4463    4458    4462    4464    4458    4462    4464    4458    4463
    4466    4465    4467    4466    4465    4468    4466    4465    4469
    4468    4465    4467    4469    4465    4467    4469    4465    4468
    4465    4466    4470    4465    4466    4471    4465    4466    4472
    4471    4466    4470    4472    4466    4470    4472    4466    4471
    4474    4473    4475    4474    4473    4476    4474    4473    4477
    4476    4473    4475    4477    4473    4475    4477    4473    4476
    4473    4474    4478    4473    4474    4479    4473    4474    4480
    4479    4474    4478    4480    4474    4478    4480    4474    4479
    4482    4481    4483    4482    4481    4484    4482    4481    4485
    4484    4481    4483    4485    4481    4483    4485    4481    4484
    4481    4482    4486    4481    4482    4487    4481    4482    4488
    4487    4482    4486    4488    4482    4486    4488    4482    4487
    4490    4489    4491    4490    4489    4492    4490    4489    4493
    4492    4489    4491    4493    4489    4491    4493    4489    4492
    4489    4490    4494    4489    4490    4495    4489    4490    4496
    4495    4490    4494    4496    4490    4494    4496    4490    4495
    4498    4497    4499    4498    4497    4500    4498    4497    4501
    4500    4497    4499    4501    4497    4499    4501    4497    4500
    4497    4498    4502    4497    4498    4503    4497    4498    4504
    4503    4498    4502    4504    4498    4502    4504    4498    4503
    4506    4505    4507    4506    4505    4508    4506    4505    4509
    4508    4505    4507    4509    4505    4507    4509    4505    4508
    4505    4506    4510    4505    4506    4511    4505    4506    4512
    4511    4506    4510    4512    4506    4510    4512    4506    4511
    4514    4513    4515    4514    4513    4516    4514    4513    4517
    4516    4513    4515    4517    4513    4515    4517    4513    4516
    4513    4514    4518    4513    4514    4519    4513    4514    4520
    4519    4514    4518    4520    4514    4518    4520    4514    4519
    4522    4521    4523    4522    4521    4524    4522    4521    4525
    4524    4521    4523    4525    4521    4523    4525    4521    4524
    4521    4522    4526    4521    4522    4527    4521    4522    4528
    4527    4522    4526    4528    4522    4526    4528    4522    4527
    4530    4529    4531    4530    4529    4532    4530    4529    4533
    4532    4529    4531    4533    4529    4531    4533    4529    4532
    4529    4530    4534    4529    4530    4535    4529    4530    4536
    4535    4530    4534    4536    4530    4534    4536    4530    4535
    4538    4537    4539    4538    4537    4540    4538    4537    4541
    4540    4537    4539    4541    4537    4539    4541    4537    4540
    4537    4538    4542    4537    4538    4543    4537    4538    4544
    4543    4538    4542    4544    4538    4542    4544    4538    4543
    4546    4545    4547    4546    4545    4548    4546    4545    4549
    4548    4545    4547    4549    4545    4547    4549    4545    4548
    4545    4546    4550    4545    4546    4551    4545    4546    4552
    4551    4546    4550    4552    4546    4550    4552    4546    4551
    4554    4553    4555    4554    4553    4556    4554    4553    4557
    4556    4553    4555    4557    4553    4555    4557    4553    4556
    4553    4554    4558    4553    4554    4559    4553    4554    4560
    4559    4554    4558    4560    4554    4558    4560    4554    4559
    4562    4561    4563    4562    4561    4564    4562    4561    4565
    4564    4561    4563    4565    4561    4563    4565    4561    4564
    4561    4562    4566    4561    4562    4567    4561    4562    4568
    4567    4562    4566    4568    4562    4566    4568    4562    4567
    4570    4569    4571    4570    4569    4572    4570    4569    4573
    4572    4569    4571    4573    4569    4571    4573    4569    4572
    4569    4570    4574    4569    4570    4575    4569    4570    4576
    4575    4570    4574    4576    4570    4574    4576    4570    4575
    4578    4577    4579    4578    4577    4580    4578    4577    4581
    4580    4577    4579    4581    4577    4579    4581    4577    4580
    4577    4578    4582    4577    4578    4583    4577    4578    4584
    4583    4578    4582    4584    4578    4582    4584    4578    4583
    4586    4585    4587    4586    4585    4588    4586    4585    4589
    4588    4585    4587    4589    4585    4587    4589    4585    4588
    4585    4586    4590    4585    4586    4591    4585    4586    4592
    4591    4586    4590    4592    4586    4590    4592    4586    4591
    4594    4593    4595    4594    4593    4596    4594    4593    4597
    4596    4593    4595    4597    4593    4595    4597    4593    4596
    4593    4594    4598    4593    4594    4599    4593    4594    4600
    4599    4594    4598    4600    4594    4598    4600    4594    4599
    4602    4601    4603    4602    4601    4604    4602    4601    4605
    4604    4601    4603    4605    4601    4603    4605    4601    4604
    4601    4602    4606    4601    4602    4607    4601    4602    4608
    4607    4602    4606    4608    4602    4606    4608    4602    4607
    4610    4609    4611    4610    4609    4612    4610    4609    4613
    4612    4609    4611    4613    4609    4611    4613    4609    4612
    4609    4610    4614    4609    4610    4615    4609    4610    4616
    4615    4610    4614    4616    4610    4614    4616    4610    4615
    4618    4617    4619    4618    4617    4620    4618    4617    4621
    4620    4617    4619    4621    4617    4619    4621    4617    4620
    4617    4618    4622    4617    4618    4623    4617    4618    4624
    4623    4618    4622    4624    4618    4622    4624    4618    4623
    4626    4625    4627    4626    4625    4628    4626    4625    4629
    4628    4625    4627    4629    4625    4627    4629    4625    4628
    4625    4626    4630    4625    4626    4631    4625    4626    4632
    4631    4626    4630    4632    4626    4630    4632    4626    4631
    4634    4633    4635    4634    4633    4636    4634    4633    4637
    4636    4633    4635    4637    4633    4635    4637    4633    4636
    4633    4634    4638    4633    4634    4639    4633    4634    4640
    4639    4634    4638    4640    4634    4638    4640    4634    4639
    4642    4641    4643    4642    4641    4644    4642    4641    4645
    4644    4641    4643    4645    4641    4643    4645    4641    4644
    4641    4642    4646    4641    4642    4647    4641    4642    4648
    4647    4642    4646    4648    4642    4646    4648    4642    4647
    4650    4649    4651    4650    4649    4652    4650    4649    4653
    4652    4649    4651    4653    4649    4651    4653    4649    4652
    4649    4650    4654    4649    4650    4655    4649    4650    4656
    4655    4650    4654    4656    4650    4654    4656    4650    4655
    4658    4657    4659    4658    4657    4660    4658    4657    4661
    4660    4657    4659    4661    4657    4659    4661    4657    4660
    4657    4658    4662    4657    4658    4663    4657    4658    4664
    4663    4658    4662    4664    4658    4662    4664    4658    4663
    4666    4665    4667    4666    4665    4668    4666    4665    4669
    4668    4665    4667    4669    4665    4667    4669    4665    4668
    4665    4666    4670    4665    4666    4671    4665    4666    4672
    4671    4666    4670    4672    4666    4670    4672    4666    4671
    4674    4673    4675    4674    4673    4676    4674    4673    4677
    4676    4673    4675    4677    4673    4675    4677    4673    4676
    4673    4674    4678    4673    4674    4679    4673    4674    4680
    4679    4674    4678    4680    4674    4678    4680    4674    4679
    4682    4681    4683    4682    4681    4684    4682    4681    4685
    4684    4681    4683    4685    4681    4683    4685    4681    4684
    4681    4682    4686    4681    4682    4687    4681    4682    4688
    4687    4682    4686    4688    4682    4686    4688    4682    4687
    4690    4689    4691    4690    4689    4692    4690    4689    4693
    4692    4689    4691    4693    4689    4691    4693    4689    4692
    4689    4690    4694    4689    4690    4695    4689    4690    4696
    4695    4690    4694    4696    4690    4694    4696    4690    4695
    4698    4697    4699    4698    4697    4700    4698    4697    4701
    4700    4697    4699    4701    4697    4699    4701    4697    4700
    4697    4698    4702    4697    4698    4703    4697    4698    4704
    4703    4698    4702    4704    4698    4702    4704    4698    4703
    4706    4705    4707    4706    4705    4708    4706    4705    4709
    4708    4705    4707    4709    4705    4707    4709    4705    4708
    4705    4706    4710    4705    4706    4711    4705    4706    4712
    4711    4706    4710    4712    4706    4710    4712    4706    4711
    4714    4713    4715    4714    4713    4716    4714    4713    4717
    4716    4713    4715    4717    4713    4715    4717    4713    4716
    4713    4714    4718    4713    4714    4719    4713    4714    4720
    4719    4714    4718    4720    4714    4718    4720    4714    4719
    4722    4721    4723    4722    4721    4724    4722    4721    4725
    4724    4721    4723    4725    4721    4723    4725    4721    4724
    4721    4722    4726    4721    4722    4727    4721    4722    4728
    4727    4722    4726    4728    4722    4726    4728    4722    4727
    4730    4729    4731    4730    4729    4732    4730    4729    4733
    4732    4729    4731    4733    4729    4731    4733    4729    4732
    4729    4730    4734    4729    4730    4735    4729    4730    4736
    4735    4730    4734    4736    4730    4734    4736    4730    4735
    4738    4737    4739    4738    4737    4740    4738    4737    4741
    4740    4737    4739    4741    4737    4739    4741    4737    4740
    4737    4738    4742    4737    4738    4743    4737    4738    4744
    4743    4738    4742    4744    4738    4742    4744    4738    4743
    4746    4745    4747    4746    4745    4748    4746    4745    4749
    4748    4745    4747    4749    4745    4747    4749    4745    4748
    4745    4746    4750    4745    4746    4751    4745    4746    4752
    4751    4746    4750    4752    4746    4750    4752    4746    4751
    4754    4753    4755    4754    4753    4756    4754    4753    4757
    4756    4753    4755    4757    4753    4755    4757    4753    4756
    4753    4754    4758    4753    4754    4759    4753    4754    4760
    4759    4754    4758    4760    4754    4758    4760    4754    4759
    4762    4761    4763    4762    4761    4764    4762    4761    4765
    4764    4761    4763    4765    4761    4763    4765    4761    4764
    4761    4762    4766    4761    4762    4767    4761    4762    4768
    4767    4762    4766    4768    4762    4766    4768    4762    4767
    4770    4769    4771    4770    4769    4772    4770    4769    4773
    4772    4769    4771    4773    4769    4771    4773    4769    4772
    4769    4770    4774    4769    4770    4775    4769    4770    4776
    4775    4770    4774    4776    4770    4774    4776    4770    4775
    4778    4777    4779    4778    4777    4780    4778    4777    4781
    4780    4777    4779    4781    4777    4779    4781    4777    4780
    4777    4778    4782    4777    4778    4783    4777    4778    4784
    4783    4778    4782    4784    4778    4782    4784    4778    4783
    4786    4785    4787    4786    4785    4788    4786    4785    4789
    4788    4785    4787    4789    4785    4787    4789    4785    4788
    4785    4786    4790    4785    4786    4791    4785    4786    4792
    4791    4786    4790    4792    4786    4790    4792    4786    4791
    4794    4793    4795    4794    4793    4796    4794    4793    4797
    4796    4793    4795    4797    4793    4795    4797    4793    4796
    4793    4794    4798    4793    4794    4799    4793    4794    4800
    4799    4794    4798    4800    4794    4798    4800    4794    4799
    4802    4801    4803    4802    4801    4804    4802    4801    4805
    4804    4801    4803    4805    4801    4803    4805    4801    4804
    4801    4802    4806    4801    4802    4807    4801    4802    4808
    4807    4802    4806    4808    4802    4806    4808    4802    4807
    4810    4809    4811    4810    4809    4812    4810    4809    4813
    4812    4809    4811    4813    4809    4811    4813    4809    4812
    4809    4810    4814    4809    4810    4815    4809    4810    4816
    4815    4810    4814    4816    4810    4814    4816    4810    4815
    4818    4817    4819    4818    4817    4820    4818    4817    4821
    4820    4817    4819    4821    4817    4819    4821    4817    4820
    4817    4818    4822    4817    4818    4823    4817    4818    4824
    4823    4818    4822    4824    4818    4822    4824    4818    4823
    4826    4825    4827    4826    4825    4828    4826    4825    4829
    4828    4825    4827    4829    4825    4827    4829    4825    4828
    4825    4826    4830    4825    4826    4831    4825    4826    4832
    4831    4826    4830    4832    4826    4830    4832    4826    4831
    4834    4833    4835    4834    4833    4836    4834    4833    4837
    4836    4833    4835    4837    4833    4835    4837    4833    4836
    4833    4834    4838    4833    4834    4839    4833    4834    4840
    4839    4834    4838    4840    4834    4838    4840    4834    4839
    4842    4841    4843    4842    4841    4844    4842    4841    4845
    4844    4841    4843    4845    4841    4843    4845    4841    4844
    4841    4842    4846    4841    4842    4847    4841    4842    4848
    4847    4842    4846    4848    4842    4846    4848    4842    4847
    4850    4849    4851    4850    4849    4852    4850    4849    4853
    4852    4849    4851    4853    4849    4851    4853    4849    4852
    4849    4850    4854    4849    4850    4855    4849    4850    4856
    4855    4850    4854    4856    4850    4854    4856    4850    4855
    4858    4857    4859    4858    4857    4860    4858    4857    4861
    4860    4857    4859    4861    4857    4859    4861    4857    4860
    4857    4858    4862    4857    4858    4863    4857    4858    4864
    4863    4858    4862    4864    4858    4862    4864    4858    4863
    4866    4865    4867    4866    4865    4868    4866    4865    4869
    4868    4865    4867    4869    4865    4867    4869    4865    4868
    4865    4866    4870    4865    4866    4871    4865    4866    4872
    4871    4866    4870    4872    4866    4870    4872    4866    4871
    4874    4873    4875    4874    4873    4876    4874    4873    4877
    4876    4873    4875    4877    4873    4875    4877    4873    4876
    4873    4874    4878    4873    4874    4879    4873    4874    4880
    4879    4874    4878    4880    4874    4878    4880    4874    4879
    4882    4881    4883    4882    4881    4884    4882    4881    4885
    4884    4881    4883    4885    4881    4883    4885    4881    4884
    4881    4882    4886    4881    4882    4887    4881    4882    4888
    4887    4882    4886    4888    4882    4886    4888    4882    4887
    4890    4889    4891    4890    4889    4892    4890    4889    4893
    4892    4889    4891    4893    4889    4891    4893    4889    4892
    4889    4890    4894    4889    4890    4895    4889    4890    4896
    4895    4890    4894    4896    4890    4894    4896    4890    4895
    4898    4897    4899    4898    4897    4900    4898    4897    4901
    4900    4897    4899    4901    4897    4899    4901    4897    4900
    4897    4898    4902    4897    4898    4903    4897    4898    4904
    4903    4898    4902    4904    4898    4902    4904    4898    4903
    4906    4905    4907    4906    4905    4908    4906    4905    4909
    4908    4905    4907    4909    4905    4907    4909    4905    4908
    4905    4906    4910    4905    4906    4911    4905    4906    4912
    4911    4906    4910    4912    4906    4910    4912    4906    4911
    4914    4913    4915    4914    4913    4916    4914    4913    4917
    4916    4913    4915    4917    4913    4915    4917    4913    4916
    4913    4914    4918    4913    4914    4919    4913    4914    4920
    4919    4914    4918    4920    4914    4918    4920    4914    4919
    4922    4921    4923    4922    4921    4924    4922    4921    4925
    4924    4921    4923    4925    4921    4923    4925    4921    4924
    4921    4922    4926    4921    4922    4927    4921    4922    4928
    4927    4922    4926    4928    4922    4926    4928    4922    4927
    4930    4929    4931    4930    4929    4932    4930    4929    4933
    4932    4929    4931    4933    4929    4931    4933    4929    4932
    4929    4930    4934    4929    4930    4935    4929    4930    4936
    4935    4930    4934    4936    4930    4934    4936    4930    4935
    4938    4937    4939    4938    4937    4940    4938    4937    4941
    4940    4937    4939    4941    4937    4939    4941    4937    4940
    4937    4938    4942    4937    4938    4943    4937    4938    4944
    4943    4938    4942    4944    4938    4942    4944    4938    4943
    4946    4945    4947    4946    4945    4948    4946    4945    4949
    4948    4945    4947    4949    4945    4947    4949    4945    4948
    4945    4946    4950    4945    4946    4951    4945    4946    4952
    4951    4946    4950    4952    4946    4950    4952    4946    4951
    4954    4953    4955    4954    4953    4956    4954    4953    4957
    4956    4953    4955    4957    4953    4955    4957    4953    4956
    4953    4954    4958    4953    4954    4959    4953    4954    4960
    4959    4954    4958    4960    4954    4958    4960    4954    4959
    4962    4961    4963    4962    4961    4964    4962    4961    4965
    4964    4961    4963    4965    4961    4963    4965    4961    4964
    4961    4962    4966    4961    4962    4967    4961    4962    4968
    4967    4962    4966    4968    4962    4966    4968    4962    4967
    4970    4969    4971    4970    4969    4972    4970    4969    4973
    4972    4969    4971    4973    4969    4971    4973    4969    4972
    4969    4970    4974    4969    4970    4975    4969    4970    4976
    4975    4970    4974    4976    4970    4974    4976    4970    4975
    4978    4977    4979    4978    4977    4980    4978    4977    4981
    4980    4977    4979    4981    4977    4979    4981    4977    4980
    4977    4978    4982    4977    4978    4983    4977    4978    4984
    4983    4978    4982    4984    4978    4982    4984    4978    4983
    4986    4985    4987    4986    4985    4988    4986    4985    4989
    4988    4985    4987    4989    4985    4987    4989    4985    4988
    4985    4986    4990    4985    4986    4991    4985    4986    4992
    4991    4986    4990    4992    4986    4990    4992    4986    4991
    4994    4993    4995    4994    4993    4996    4994    4993    4997
    4996    4993    4995    4997    4993    4995    4997    4993    4996
    4993    4994    4998    4993    4994    4999    4993    4994    5000
    4999    4994    4998    5000    4994    4998    5000    4994    4999
    5002    5001    5003    5002    5001    5004    5002    5001    5005
    5004    5001    5003    5005    5001    5003    5005    5001    5004
    5001    5002    5006    5001    5002    5007    5001    5002    5008
    5007    5002    5006    5008    5002    5006    5008    5002    5007
    5010    5009    5011    5010    5009    5012    5010    5009    5013
    5012    5009    5011    5013    5009    5011    5013    5009    5012
    5009    5010    5014    5009    5010    5015    5009    5010    5016
    5015    5010    5014    5016    5010    5014    5016    5010    5015
    5018    5017    5019    5018    5017    5020    5018    5017    5021
    5020    5017    5019    5021    5017    5019    5021    5017    5020
    5017    5018    5022    5017    5018    5023    5017    5018    5024
    5023    5018    5022    5024    5018    5022    5024    5018    5023
    5026    5025    5027    5026    5025    5028    5026    5025    5029
    5028    5025    5027    5029    5025    5027    5029    5025    5028
    5025    5026    5030    5025    5026    5031    5025    5026    5032
    5031    5026    5030    5032    5026    5030    5032    5026    5031
    5034    5033    5035    5034    5033    5036    5034    5033    5037
    5036    5033    5035    5037    5033    5035    5037    5033    5036
    5033    5034    5038    5033    5034    5039    5033    5034    5040
    5039    5034    5038    5040    5034    5038    5040    5034    5039
    5042    5041    5043    5042    5041    5044    5042    5041    5045
    5044    5041    5043    5045    5041    5043    5045    5041    5044
    5041    5042    5046    5041    5042    5047    5041    5042    5048
    5047    5042    5046    5048    5042    5046    5048    5042    5047
    5050    5049    5051    5050    5049    5052    5050    5049    5053
    5052    5049    5051    5053    5049    5051    5053    5049    5052
    5049    5050    5054    5049    5050    5055    5049    5050    5056
    5055    5050    5054    5056    5050    5054    5056    5050    5055
    5058    5057    5059    5058    5057    5060    5058    5057    5061
    5060    5057    5059    5061    5057    5059    5061    5057    5060
    5057    5058    5062    5057    5058    5063    5057    5058    5064
    5063    5058    5062    5064    5058    5062    5064    5058    5063
    5066    5065    5067    5066    5065    5068    5066    5065    5069
    5068    5065    5067    5069    5065    5067    5069    5065    5068
    5065    5066    5070    5065    5066    5071    5065    5066    5072
    5071    5066    5070    5072    5066    5070    5072    5066    5071
    5074    5073    5075    5074    5073    5076    5074    5073    5077
    5076    5073    5075    5077    5073    5075    5077    5073    5076
    5073    5074    5078    5073    5074    5079    5073    5074    5080
    5079    5074    5078    5080    5074    5078    5080    5074    5079
    5082    5081    5083    5082    5081    5084    5082    5081    5085
    5084    5081    5083    5085    5081    5083    5085    5081    5084
    5081    5082    5086    5081    5082    5087    5081    5082    5088
    5087    5082    5086    5088    5082    5086    5088    5082    5087
    5090    5089    5091    5090    5089    5092    5090    5089    5093
    5092    5089    5091    5093    5089    5091    5093    5089    5092
    5089    5090    5094    5089    5090    5095    5089    5090    5096
    5095    5090    5094    5096    5090    5094    5096    5090    5095
    5098    5097    5099    5098    5097    5100    5098    5097    5101
    5100    5097    5099    5101    5097    5099    5101    5097    5100
    5097    5098    5102    5097    5098    5103    5097    5098    5104
    5103    5098    5102    5104    5098    5102    5104    5098    5103
    5106    5105    5107    5106    5105    5108    5106    5105    5109
    5108    5105    5107    5109    5105    5107    5109    5105    5108
    5105    5106    5110    5105    5106    5111    5105    5106    5112
    5111    5106    5110    5112    5106    5110    5112    5106    5111
    5114    5113    5115    5114    5113    5116    5114    5113    5117
    5116    5113    5115    5117    5113    5115    5117    5113    5116
    5113    5114    5118    5113    5114    5119    5113    5114    5120
    5119    5114    5118    5120    5114    5118    5120    5114    5119
    5122    5121    5123    5122    5121    5124    5122    5121    5125
    5124    5121    5123    5125    5121    5123    5125    5121    5124
    5121    5122    5126    5121    5122    5127    5121    5122    5128
    5127    5122    5126    5128    5122    5126    5128    5122    5127
    5130    5129    5131    5130    5129    5132    5130    5129    5133
    5132    5129    5131    5133    5129    5131    5133    5129    5132
    5129    5130    5134    5129    5130    5135    5129    5130    5136
    5135    5130    5134    5136    5130    5134    5136    5130    5135
    5138    5137    5139    5138    5137    5140    5138    5137    5141
    5140    5137    5139    5141    5137    5139    5141    5137    5140
    5137    5138    5142    5137    5138    5143    5137    5138    5144
    5143    5138    5142    5144    5138    5142    5144    5138    5143
    5146    5145    5147    5146    5145    5148    5146    5145    5149
    5148    5145    5147    5149    5145    5147    5149    5145    5148
    5145    5146    5150    5145    5146    5151    5145    5146    5152
    5151    5146    5150    5152    5146    5150    5152    5146    5151
    5154    5153    5155    5154    5153    5156    5154    5153    5157
    5156    5153    5155    5157    5153    5155    5157    5153    5156
    5153    5154    5158    5153    5154    5159    5153    5154    5160
    5159    5154    5158    5160    5154    5158    5160    5154    5159
    5162    5161    5163    5162    5161    5164    5162    5161    5165
    5164    5161    5163    5165    5161    5163    5165    5161    5164
    5161    5162    5166    5161    5162    5167    5161    5162    5168
    5167    5162    5166    5168    5162    5166    5168    5162    5167
    5170    5169    5171    5170    5169    5172    5170    5169    5173
    5172    5169    5171    5173    5169    5171    5173    5169    5172
    5169    5170    5174    5169    5170    5175    5169    5170    5176
    5175    5170    5174    5176    5170    5174    5176    5170    5175
    5178    5177    5179    5178    5177    5180    5178    5177    5181
    5180    5177    5179    5181    5177    5179    5181    5177    5180
    5177    5178    5182    5177    5178    5183    5177    5178    5184
    5183    5178    5182    5184    5178    5182    5184    5178    5183
    5186    5185    5187    5186    5185    5188    5186    5185    5189
    5188    5185    5187    5189    5185    5187    5189    5185    5188
    5185    5186    5190    5185    5186    5191    5185    5186    5192
    5191    5186    5190    5192    5186    5190    5192    5186    5191
    5194    5193    5195    5194    5193    5196    5194    5193    5197
    5196    5193    5195    5197    5193    5195    5197    5193    5196
    5193    5194    5198    5193    5194    5199    5193    5194    5200
    5199    5194    5198    5200    5194    5198    5200    5194    5199
    5202    5201    5203    5202    5201    5204    5202    5201    5205
    5204    5201    5203    5205    5201    5203    5205    5201    5204
    5201    5202    5206    5201    5202    5207    5201    5202    5208
    5207    5202    5206    5208    5202    5206    5208    5202    5207
    5210    5209    5211    5210    5209    5212    5210    5209    5213
    5212    5209    5211    5213    5209    5211    5213    5209    5212
    5209    5210    5214    5209    5210    5215    5209    5210    5216
    5215    5210    5214    5216    5210    5214    5216    5210    5215
    5218    5217    5219    5218    5217    5220    5218    5217    5221
    5220    5217    5219    5221    5217    5219    5221    5217    5220
    5217    5218    5222    5217    5218    5223    5217    5218    5224
    5223    5218    5222    5224    5218    5222    5224    5218    5223
    5226    5225    5227    5226    5225    5228    5226    5225    5229
    5228    5225    5227    5229    5225    5227    5229    5225    5228
    5225    5226    5230    5225    5226    5231    5225    5226    5232
    5231    5226    5230    5232    5226    5230    5232    5226    5231
    5234    5233    5235    5234    5233    5236    5234    5233    5237
    5236    5233    5235    5237    5233    5235    5237    5233    5236
    5233    5234    5238    5233    5234    5239    5233    5234    5240
    5239    5234    5238    5240    5234    5238    5240    5234    5239
    5242    5241    5243    5242    5241    5244    5242    5241    5245
    5244    5241    5243    5245    5241    5243    5245    5241    5244
    5241    5242    5246    5241    5242    5247    5241    5242    5248
    5247    5242    5246    5248    5242    5246    5248    5242    5247
    5250    5249    5251    5250    5249    5252    5250    5249    5253
    5252    5249    5251    5253    5249    5251    5253    5249    5252
    5249    5250    5254    5249    5250    5255    5249    5250    5256
    5255    5250    5254    5256    5250    5254    5256    5250    5255
    5258    5257    5259    5258    5257    5260    5258    5257    5261
    5260    5257    5259    5261    5257    5259    5261    5257    5260
    5257    5258    5262    5257    5258    5263    5257    5258    5264
    5263    5258    5262    5264    5258    5262    5264    5258    5263
    5266    5265    5267    5266    5265    5268    5266    5265    5269
    5268    5265    5267    5269    5265    5267    5269    5265    5268
    5265    5266    5270    5265    5266    5271    5265    5266    5272
    5271    5266    5270    5272    5266    5270    5272    5266    5271
    5274    5273    5275    5274    5273    5276    5274    5273    5277
    5276    5273    5275    5277    5273    5275    5277    5273    5276
    5273    5274    5278    5273    5274    5279    5273    5274    5280
    5279    5274    5278    5280    5274    5278    5280    5274    5279
    5282    5281    5283    5282    5281    5284    5282    5281    5285
    5284    5281    5283    5285    5281    5283    5285    5281    5284
    5281    5282    5286    5281    5282    5287    5281    5282    5288
    5287    5282    5286    5288    5282    5286    5288    5282    5287
    5290    5289    5291    5290    5289    5292    5290    5289    5293
    5292    5289    5291    5293    5289    5291    5293    5289    5292
    5289    5290    5294    5289    5290    5295    5289    5290    5296
    5295    5290    5294    5296    5290    5294    5296    5290    5295
    5298    5297    5299    5298    5297    5300    5298    5297    5301
    5300    5297    5299    5301    5297    5299    5301    5297    5300
    5297    5298    5302    5297    5298    5303    5297    5298    5304
    5303    5298    5302    5304    5298    5302    5304    5298    5303
    5306    5305    5307    5306    5305    5308    5306    5305    5309
    5308    5305    5307    5309    5305    5307    5309    5305    5308
    5305    5306    5310    5305    5306    5311    5305    5306    5312
    5311    5306    5310    5312    5306    5310    5312    5306    5311
    5314    5313    5315    5314    5313    5316    5314    5313    5317
    5316    5313    5315    5317    5313    5315    5317    5313    5316
    5313    5314    5318    5313    5314    5319    5313    5314    5320
    5319    5314    5318    5320    5314    5318    5320    5314    5319
    5322    5321    5323    5322    5321    5324    5322    5321    5325
    5324    5321    5323    5325    5321    5323    5325    5321    5324
    5321    5322    5326    5321    5322    5327    5321    5322    5328
    5327    5322    5326    5328    5322    5326    5328    5322    5327
    5330    5329    5331    5330    5329    5332    5330    5329    5333
    5332    5329    5331    5333    5329    5331    5333    5329    5332
    5329    5330    5334    5329    5330    5335    5329    5330    5336
    5335    5330    5334    5336    5330    5334    5336    5330    5335
    5338    5337    5339    5338    5337    5340    5338    5337    5341
    5340    5337    5339    5341    5337    5339    5341    5337    5340
    5337    5338    5342    5337    5338    5343    5337    5338    5344
    5343    5338    5342    5344    5338    5342    5344    5338    5343
    5346    5345    5347    5346    5345    5348    5346    5345    5349
    5348    5345    5347    5349    5345    5347    5349    5345    5348
    5345    5346    5350    5345    5346    5351    5345    5346    5352
    5351    5346    5350    5352    5346    5350    5352    5346    5351
    5354    5353    5355    5354    5353    5356    5354    5353    5357
    5356    5353    5355    5357    5353    5355    5357    5353    5356
    5353    5354    5358    5353    5354    5359    5353    5354    5360
    5359    5354    5358    5360    5354    5358    5360    5354    5359
    5362    5361    5363    5362    5361    5364    5362    5361    5365
    5364    5361    5363    5365    5361    5363    5365    5361    5364
    5361    5362    5366    5361    5362    5367    5361    5362    5368
    5367    5362    5366    5368    5362    5366    5368    5362    5367
    5370    5369    5371    5370    5369    5372    5370    5369    5373
    5372    5369    5371    5373    5369    5371    5373    5369    5372
    5369    5370    5374    5369    5370    5375    5369    5370    5376
    5375    5370    5374    5376    5370    5374    5376    5370    5375
    5378    5377    5379    5378    5377    5380    5378    5377    5381
    5380    5377    5379    5381    5377    5379    5381    5377    5380
    5377    5378    5382    5377    5378    5383    5377    5378    5384
    5383    5378    5382    5384    5378    5382    5384    5378    5383
    5386    5385    5387    5386    5385    5388    5386    5385    5389
    5388    5385    5387    5389    5385    5387    5389    5385    5388
    5385    5386    5390    5385    5386    5391    5385    5386    5392
    5391    5386    5390    5392    5386    5390    5392    5386    5391
    5394    5393    5395    5394    5393    5396    5394    5393    5397
    5396    5393    5395    5397    5393    5395    5397    5393    5396
    5393    5394    5398    5393    5394    5399    5393    5394    5400
    5399    5394    5398    5400    5394    5398    5400    5394    5399
    5402    5401    5403    5402    5401    5404    5402    5401    5405
    5404    5401    5403    5405    5401    5403    5405    5401    5404
    5401    5402    5406    5401    5402    5407    5401    5402    5408
    5407    5402    5406    5408    5402    5406    5408    5402    5407
    5410    5409    5411    5410    5409    5412    5410    5409    5413
    5412    5409    5411    5413    5409    5411    5413    5409    5412
    5409    5410    5414    5409    5410    5415    5409    5410    5416
    5415    5410    5414    5416    5410    5414    5416    5410    5415
    5418    5417    5419    5418    5417    5420    5418    5417    5421
    5420    5417    5419    5421    5417    5419    5421    5417    5420
    5417    5418    5422    5417    5418    5423    5417    5418    5424
    5423    5418    5422    5424    5418    5422    5424    5418    5423
    5426    5425    5427    5426    5425    5428    5426    5425    5429
    5428    5425    5427    5429    5425    5427    5429    5425    5428
    5425    5426    5430    5425    5426    5431    5425    5426    5432
    5431    5426    5430    5432    5426    5430    5432    5426    5431
    5434    5433    5435    5434    5433    5436    5434    5433    5437
    5436    5433    5435    5437    5433    5435    5437    5433    5436
    5433    5434    5438    5433    5434    5439    5433    5434    5440
    5439    5434    5438    5440    5434    5438    5440    5434    5439
    5442    5441    5443    5442    5441    5444    5442    5441    5445
    5444    5441    5443    5445    5441    5443    5445    5441    5444
    5441    5442    5446    5441    5442    5447    5441    5442    5448
    5447    5442    5446    5448    5442    5446    5448    5442    5447
    5450    5449    5451    5450    5449    5452    5450    5449    5453
    5452    5449    5451    5453    5449    5451    5453    5449    5452
    5449    5450    5454    5449    5450    5455    5449    5450    5456
    5455    5450    5454    5456    5450    5454    5456    5450    5455
    5458    5457    5459    5458    5457    5460    5458    5457    5461
    5460    5457    5459    5461    5457    5459    5461    5457    5460
    5457    5458    5462    5457    5458    5463    5457    5458    5464
    5463    5458    5462    5464    5458    5462    5464    5458    5463
    5466    5465    5467    5466    5465    5468    5466    5465    5469
    5468    5465    5467    5469    5465    5467    5469    5465    5468
    5465    5466    5470    5465    5466    5471    5465    5466    5472
    5471    5466    5470    5472    5466    5470    5472    5466    5471
    5474    5473    5475    5474    5473    5476    5474    5473    5477
    5476    5473    5475    5477    5473    5475    5477    5473    5476
    5473    5474    5478    5473    5474    5479    5473    5474    5480
    5479    5474    5478    5480    5474    5478    5480    5474    5479
    5482    5481    5483    5482    5481    5484    5482    5481    5485
    5484    5481    5483    5485    5481    5483    5485    5481    5484
    5481    5482    5486    5481    5482    5487    5481    5482    5488
    5487    5482    5486    5488    5482    5486    5488    5482    5487
    5490    5489    5491    5490    5489    5492    5490    5489    5493
    5492    5489    5491    5493    5489    5491    5493    5489    5492
    5489    5490    5494    5489    5490    5495    5489    5490    5496
    5495    5490    5494    5496    5490    5494    5496    5490    5495
    5498    5497    5499    5498    5497    5500    5498    5497    5501
    5500    5497    5499    5501    5497    5499    5501    5497    5500
    5497    5498    5502    5497    5498    5503    5497    5498    5504
    5503    5498    5502    5504    5498    5502    5504    5498    5503
    5506    5505    5507    5506    5505    5508    5506    5505    5509
    5508    5505    5507    5509    5505    5507    5509    5505    5508
    5505    5506    5510    5505    5506    5511    5505    5506    5512
    5511    5506    5510    5512    5506    5510    5512    5506    5511
    5514    5513    5515    5514    5513    5516    5514    5513    5517
    5516    5513    5515    5517    5513    5515    5517    5513    5516
    5513    5514    5518    5513    5514    5519    5513    5514    5520
    5519    5514    5518    5520    5514    5518    5520    5514    5519
    5522    5521    5523    5522    5521    5524    5522    5521    5525
    5524    5521    5523    5525    5521    5523    5525    5521    5524
    5521    5522    5526    5521    5522    5527    5521    5522    5528
    5527    5522    5526    5528    5522    5526    5528    5522    5527
    5530    5529    5531    5530    5529    5532    5530    5529    5533
    5532    5529    5531    5533    5529    5531    5533    5529    5532
    5529    5530    5534    5529    5530    5535    5529    5530    5536
    5535    5530    5534    5536    5530    5534    5536    5530    5535
    5538    5537    5539    5538    5537    5540    5538    5537    5541
    5540    5537    5539    5541    5537    5539    5541    5537    5540
    5537    5538    5542    5537    5538    5543    5537    5538    5544
    5543    5538    5542    5544    5538    5542    5544    5538    5543
    5546    5545    5547    5546    5545    5548    5546    5545    5549
    5548    5545    5547    5549    5545    5547    5549    5545    5548
    5545    5546    5550    5545    5546    5551    5545    5546    5552
    5551    5546    5550    5552    5546    5550    5552    5546    5551
    5554    5553    5555    5554    5553    5556    5554    5553    5557
    5556    5553    5555    5557    5553    5555    5557    5553    5556
    5553    5554    5558    5553    5554    5559    5553    5554    5560
    5559    5554    5558    5560    5554    5558    5560    5554    5559
    5562    5561    5563    5562    5561    5564    5562    5561    5565
    5564    5561    5563    5565    5561    5563    5565    5561    5564
    5561    5562    5566    5561    5562    5567    5561    5562    5568
    5567    5562    5566    5568    5562    5566    5568    5562    5567
    5570    5569    5571    5570    5569    5572    5570    5569    5573
    5572    5569    5571    5573    5569    5571    5573    5569    5572
    5569    5570    5574    5569    5570    5575    5569    5570    5576
    5575    5570    5574    5576    5570    5574    5576    5570    5575
    5578    5577    5579    5578    5577    5580    5578    5577    5581
    5580    5577    5579    5581    5577    5579    5581    5577    5580
    5577    5578    5582    5577    5578    5583    5577    5578    5584
    5583    5578    5582    5584    5578    5582    5584    5578    5583
    5586    5585    5587    5586    5585    5588    5586    5585    5589
    5588    5585    5587    5589    5585    5587    5589    5585    5588
    5585    5586    5590    5585    5586    5591    5585    5586    5592
    5591    5586    5590    5592    5586    5590    5592    5586    5591
    5594    5593    5595    5594    5593    5596    5594    5593    5597
    5596    5593    5595    5597    5593    5595    5597    5593    5596
    5593    5594    5598    5593    5594    5599    5593    5594    5600
    5599    5594    5598    5600    5594    5598    5600    5594    5599
    5602    5601    5603    5602    5601    5604    5602    5601    5605
    5604    5601    5603    5605    5601    5603    5605    5601    5604
    5601    5602    5606    5601    5602    5607    5601    5602    5608
    5607    5602    5606    5608    5602    5606    5608    5602    5607
    5610    5609    5611    5610    5609    5612    5610    5609    5613
    5612    5609    5611    5613    5609    5611    5613    5609    5612
    5609    5610    5614    5609    5610    5615    5609    5610    5616
    5615    5610    5614    5616    5610    5614    5616    5610    5615
    5618    5617    5619    5618    5617    5620    5618    5617    5621
    5620    5617    5619    5621    5617    5619    5621    5617    5620
    5617    5618    5622    5617    5618    5623    5617    5618    5624
    5623    5618    5622    5624    5618    5622    5624    5618    5623
    5626    5625    5627    5626    5625    5628    5626    5625    5629
    5628    5625    5627    5629    5625    5627    5629    5625    5628
    5625    5626    5630    5625    5626    5631    5625    5626    5632
    5631    5626    5630    5632    5626    5630    5632    5626    5631
    5634    5633    5635    5634    5633    5636    5634    5633    5637
    5636    5633    5635    5637    5633    5635    5637    5633    5636
    5633    5634    5638    5633    5634    5639    5633    5634    5640
    5639    5634    5638    5640    5634    5638    5640    5634    5639
    5642    5641    5643    5642    5641    5644    5642    5641    5645
    5644    5641    5643    5645    5641    5643    5645    5641    5644
    5641    5642    5646    5641    5642    5647    5641    5642    5648
    5647    5642    5646    5648    5642    5646    5648    5642    5647
    5650    5649    5651    5650    5649    5652    5650    5649    5653
    5652    5649    5651    5653    5649    5651    5653    5649    5652
    5649    5650    5654    5649    5650    5655    5649    5650    5656
    5655    5650    5654    5656    5650    5654    5656    5650    5655


    6363 !NPHI: dihedrals 
       6       2       1       3       7       2       1       3
       8       2       1       3       6       2       1       4
       7       2       1       4       8       2       1       4
       6       2       1       5       7       2       1       5
       8       2       1       5      14      10       9      11
      15      10       9      11      16      10       9      11
      14      10       9      12      15      10       9      12
      16      10       9      12      14      10       9      13
      15      10       9      13      16      10       9      13
      22      18      17      19      23      18      17      19
      24      18      17      19      22      18      17      20
      23      18      17      20      24      18      17      20
      22      18      17      21      23      18      17      21
      24      18      17      21      30      26      25      27
      31      26      25      27      32      26      25      27
      30      26      25      28      31      26      25      28
      32      26      25      28      30      26      25      29
      31      26      25      29      32      26      25      29
      38      34      33      35      39      34      33      35
      40      34      33      35      38      34      33      36
      39      34      33      36      40      34      33      36
      38      34      33      37      39      34      33      37
      40      34      33      37      46      42      41      43
      47      42      41      43      48      42      41      43
      46      42      41      44      47      42      41      44
      48      42      41      44      46      42      41      45
      47      42      41      45      48      42      41      45
      54      50      49      51      55      50      49      51
      56      50      49      51      54      50      49      52
      55      50      49      52      56      50      49      52
      54      50      49      53      55      50      49      53
      56      50      49      53      62      58      57      59
      63      58      57      59      64      58      57      59
      62      58      57      60      63      58      57      60
      64      58      57      60      62      58      57      61
      63      58      57      61      64      58      57      61
      70      66      65      67      71      66      65      67
      72      66      65      67      70      66      65      68
      71      66      65      68      72      66      65      68
      70      66      65      69      71      66      65      69
      72      66      65      69      78      74      73      75
      79      74      73      75      80      74      73      75
      78      74      73      76      79      74      73      76
      80      74      73      76      78      74      73      77
      79      74      73      77      80      74      73      77
      86      82      81      83      87      82      81      83
      88      82      81      83      86      82      81      84
      87      82      81      84      88      82      81      84
      86      82      81      85      87      82      81      85
      88      82      81      85      94      90      89      91
      95      90      89      91      96      90      89      91
      94      90      89      92      95      90      89      92
      96      90      89      92      94      90      89      93
      95      90      89      93      96      90      89      93
     102      98      97      99     103      98      97      99
     104      98      97      99     102      98      97     100
     103      98      97     100     104      98      97     100
     102      98      97     101     103      98      97     101
     104      98      97     101     110     106     105     107
     111     106     105     107     112     106     105     107
     110     106     105     108     111     106     105     108
     112     106     105     108     110     106     105     109
     111     106     105     109     112     106     105     109
     118     114     113     115     119     114     113     115
     120     114     113     115     118     114     113     116
     119     114     113     116     120     114     113     116
     118     114     113     117     119     114     113     117
     120     114     113     117     126     122     121     123
     127     122     121     123     128     122     121     123
     126     122     121     124     127     122     121     124
     128     122     121     124     126     122     121     125
     127     122     121     125     128     122     121     125
     134     130     129     131     135     130     129     131
     136     130     129     131     134     130     129     132
     135     130     129     132     136     130     129     132
     134     130     129     133     135     130     129     133
     136     130     129     133     142     138     137     139
     143     138     137     139     144     138     137     139
     142     138     137     140     143     138     137     140
     144     138     137     140     142     138     137     141
     143     138     137     141     144     138     137     141
     150     146     145     147     151     146     145     147
     152     146     145     147     150     146     145     148
     151     146     145     148     152     146     145     148
     150     146     145     149     151     146     145     149
     152     146     145     149     158     154     153     155
     159     154     153     155     160     154     153     155
     158     154     153     156     159     154     153     156
     160     154     153     156     158     154     153     157
     159     154     153     157     160     154     153     157
     166     162     161     163     167     162     161     163
     168     162     161     163     166     162     161     164
     167     162     161     164     168     162     161     164
     166     162     161     165     167     162     161     165
     168     162     161     165     174     170     169     171
     175     170     169     171     176     170     169     171
     174     170     169     172     175     170     169     172
     176     170     169     172     174     170     169     173
     175     170     169     173     176     170     169     173
     182     178     177     179     183     178     177     179
     184     178     177     179     182     178     177     180
     183     178     177     180     184     178     177     180
     182     178     177     181     183     178     177     181
     184     178     177     181     190     186     185     187
     191     186     185     187     192     186     185     187
     190     186     185     188     191     186     185     188
     192     186     185     188     190     186     185     189
     191     186     185     189     192     186     185     189
     198     194     193     195     199     194     193     195
     200     194     193     195     198     194     193     196
     199     194     193     196     200     194     193     196
     198     194     193     197     199     194     193     197
     200     194     193     197     206     202     201     203
     207     202     201     203     208     202     201     203
     206     202     201     204     207     202     201     204
     208     202     201     204     206     202     201     205
     207     202     201     205     208     202     201     205
     214     210     209     211     215     210     209     211
     216     210     209     211     214     210     209     212
     215     210     209     212     216     210     209     212
     214     210     209     213     215     210     209     213
     216     210     209     213     222     218     217     219
     223     218     217     219     224     218     217     219
     222     218     217     220     223     218     217     220
     224     218     217     220     222     218     217     221
     223     218     217     221     224     218     217     221
     230     226     225     227     231     226     225     227
     232     226     225     227     230     226     225     228
     231     226     225     228     232     226     225     228
     230     226     225     229     231     226     225     229
     232     226     225     229     238     234     233     235
     239     234     233     235     240     234     233     235
     238     234     233     236     239     234     233     236
     240     234     233     236     238     234     233     237
     239     234     233     237     240     234     233     237
     246     242     241     243     247     242     241     243
     248     242     241     243     246     242     241     244
     247     242     241     244     248     242     241     244
     246     242     241     245     247     242     241     245
     248     242     241     245     254     250     249     251
     255     250     249     251     256     250     249     251
     254     250     249     252     255     250     249     252
     256     250     249     252     254     250     249     253
     255     250     249     253     256     250     249     253
     262     258     257     259     263     258     257     259
     264     258     257     259     262     258     257     260
     263     258     257     260     264     258     257     260
     262     258     257     261     263     258     257     261
     264     258     257     261     270     266     265     267
     271     266     265     267     272     266     265     267
     270     266     265     268     271     266     265     268
     272     266     265     268     270     266     265     269
     271     266     265     269     272     266     265     269
     278     274     273     275     279     274     273     275
     280     274     273     275     278     274     273     276
     279     274     273     276     280     274     273     276
     278     274     273     277     279     274     273     277
     280     274     273     277     286     282     281     283
     287     282     281     283     288     282     281     283
     286     282     281     284     287     282     281     284
     288     282     281     284     286     282     281     285
     287     282     281     285     288     282     281     285
     294     290     289     291     295     290     289     291
     296     290     289     291     294     290     289     292
     295     290     289     292     296     290     289     292
     294     290     289     293     295     290     289     293
     296     290     289     293     302     298     297     299
     303     298     297     299     304     298     297     299
     302     298     297     300     303     298     297     300
     304     298     297     300     302     298     297     301
     303     298     297     301     304     298     297     301
     310     306     305     307     311     306     305     307
     312     306     305     307     310     306     305     308
     311     306     305     308     312     306     305     308
     310     306     305     309     311     306     305     309
     312     306     305     309     318     314     313     315
     319     314     313     315     320     314     313     315
     318     314     313     316     319     314     313     316
     320     314     313     316     318     314     313     317
     319     314     313     317     320     314     313     317
     326     322     321     323     327     322     321     323
     328     322     321     323     326     322     321     324
     327     322     321     324     328     322     321     324
     326     322     321     325     327     322     321     325
     328     322     321     325     334     330     329     331
     335     330     329     331     336     330     329     331
     334     330     329     332     335     330     329     332
     336     330     329     332     334     330     329     333
     335     330     329     333     336     330     329     333
     342     338     337     339     343     338     337     339
     344     338     337     339     342     338     337     340
     343     338     337     340     344     338     337     340
     342     338     337     341     343     338     337     341
     344     338     337     341     350     346     345     347
     351     346     345     347     352     346     345     347
     350     346     345     348     351     346     345     348
     352     346     345     348     350     346     345     349
     351     346     345     349     352     346     345     349
     358     354     353     355     359     354     353     355
     360     354     353     355     358     354     353     356
     359     354     353     356     360     354     353     356
     358     354     353     357     359     354     353     357
     360     354     353     357     366     362     361     363
     367     362     361     363     368     362     361     363
     366     362     361     364     367     362     361     364
     368     362     361     364     366     362     361     365
     367     362     361     365     368     362     361     365
     374     370     369     371     375     370     369     371
     376     370     369     371     374     370     369     372
     375     370     369     372     376     370     369     372
     374     370     369     373     375     370     369     373
     376     370     369     373     382     378     377     379
     383     378     377     379     384     378     377     379
     382     378     377     380     383     378     377     380
     384     378     377     380     382     378     377     381
     383     378     377     381     384     378     377     381
     390     386     385     387     391     386     385     387
     392     386     385     387     390     386     385     388
     391     386     385     388     392     386     385     388
     390     386     385     389     391     386     385     389
     392     386     385     389     398     394     393     395
     399     394     393     395     400     394     393     395
     398     394     393     396     399     394     393     396
     400     394     393     396     398     394     393     397
     399     394     393     397     400     394     393     397
     406     402     401     403     407     402     401     403
     408     402     401     403     406     402     401     404
     407     402     401     404     408     402     401     404
     406     402     401     405     407     402     401     405
     408     402     401     405     414     410     409     411
     415     410     409     411     416     410     409     411
     414     410     409     412     415     410     409     412
     416     410     409     412     414     410     409     413
     415     410     409     413     416     410     409     413
     422     418     417     419     423     418     417     419
     424     418     417     419     422     418     417     420
     423     418     417     420     424     418     417     420
     422     418     417     421     423     418     417     421
     424     418     417     421     430     426     425     427
     431     426     425     427     432     426     425     427
     430     426     425     428     431     426     425     428
     432     426     425     428     430     426     425     429
     431     426     425     429     432     426     425     429
     438     434     433     435     439     434     433     435
     440     434     433     435     438     434     433     436
     439     434     433     436     440     434     433     436
     438     434     433     437     439     434     433     437
     440     434     433     437     446     442     441     443
     447     442     441     443     448     442     441     443
     446     442     441     444     447     442     441     444
     448     442     441     444     446     442     441     445
     447     442     441     445     448     442     441     445
     454     450     449     451     455     450     449     451
     456     450     449     451     454     450     449     452
     455     450     449     452     456     450     449     452
     454     450     449     453     455     450     449     453
     456     450     449     453     462     458     457     459
     463     458     457     459     464     458     457     459
     462     458     457     460     463     458     457     460
     464     458     457     460     462     458     457     461
     463     458     457     461     464     458     457     461
     470     466     465     467     471     466     465     467
     472     466     465     467     470     466     465     468
     471     466     465     468     472     466     465     468
     470     466     465     469     471     466     465     469
     472     466     465     469     478     474     473     475
     479     474     473     475     480     474     473     475
     478     474     473     476     479     474     473     476
     480     474     473     476     478     474     473     477
     479     474     473     477     480     474     473     477
     486     482     481     483     487     482     481     483
     488     482     481     483     486     482     481     484
     487     482     481     484     488     482     481     484
     486     482     481     485     487     482     481     485
     488     482     481     485     494     490     489     491
     495     490     489     491     496     490     489     491
     494     490     489     492     495     490     489     492
     496     490     489     492     494     490     489     493
     495     490     489     493     496     490     489     493
     502     498     497     499     503     498     497     499
     504     498     497     499     502     498     497     500
     503     498     497     500     504     498     497     500
     502     498     497     501     503     498     497     501
     504     498     497     501     510     506     505     507
     511     506     505     507     512     506     505     507
     510     506     505     508     511     506     505     508
     512     506     505     508     510     506     505     509
     511     506     505     509     512     506     505     509
     518     514     513     515     519     514     513     515
     520     514     513     515     518     514     513     516
     519     514     513     516     520     514     513     516
     518     514     513     517     519     514     513     517
     520     514     513     517     526     522     521     523
     527     522     521     523     528     522     521     523
     526     522     521     524     527     522     521     524
     528     522     521     524     526     522     521     525
     527     522     521     525     528     522     521     525
     534     530     529     531     535     530     529     531
     536     530     529     531     534     530     529     532
     535     530     529     532     536     530     529     532
     534     530     529     533     535     530     529     533
     536     530     529     533     542     538     537     539
     543     538     537     539     544     538     537     539
     542     538     537     540     543     538     537     540
     544     538     537     540     542     538     537     541
     543     538     537     541     544     538     537     541
     550     546     545     547     551     546     545     547
     552     546     545     547     550     546     545     548
     551     546     545     548     552     546     545     548
     550     546     545     549     551     546     545     549
     552     546     545     549     558     554     553     555
     559     554     553     555     560     554     553     555
     558     554     553     556     559     554     553     556
     560     554     553     556     558     554     553     557
     559     554     553     557     560     554     553     557
     566     562     561     563     567     562     561     563
     568     562     561     563     566     562     561     564
     567     562     561     564     568     562     561     564
     566     562     561     565     567     562     561     565
     568     562     561     565     574     570     569     571
     575     570     569     571     576     570     569     571
     574     570     569     572     575     570     569     572
     576     570     569     572     574     570     569     573
     575     570     569     573     576     570     569     573
     582     578     577     579     583     578     577     579
     584     578     577     579     582     578     577     580
     583     578     577     580     584     578     577     580
     582     578     577     581     583     578     577     581
     584     578     577     581     590     586     585     587
     591     586     585     587     592     586     585     587
     590     586     585     588     591     586     585     588
     592     586     585     588     590     586     585     589
     591     586     585     589     592     586     585     589
     598     594     593     595     599     594     593     595
     600     594     593     595     598     594     593     596
     599     594     593     596     600     594     593     596
     598     594     593     597     599     594     593     597
     600     594     593     597     606     602     601     603
     607     602     601     603     608     602     601     603
     606     602     601     604     607     602     601     604
     608     602     601     604     606     602     601     605
     607     602     601     605     608     602     601     605
     614     610     609     611     615     610     609     611
     616     610     609     611     614     610     609     612
     615     610     609     612     616     610     609     612
     614     610     609     613     615     610     609     613
     616     610     609     613     622     618     617     619
     623     618     617     619     624     618     617     619
     622     618     617     620     623     618     617     620
     624     618     617     620     622     618     617     621
     623     618     617     621     624     618     617     621
     630     626     625     627     631     626     625     627
     632     626     625     627     630     626     625     628
     631     626     625     628     632     626     625     628
     630     626     625     629     631     626     625     629
     632     626     625     629     638     634     633     635
     639     634     633     635     640     634     633     635
     638     634     633     636     639     634     633     636
     640     634     633     636     638     634     633     637
     639     634     633     637     640     634     633     637
     646     642     641     643     647     642     641     643
     648     642     641     643     646     642     641     644
     647     642     641     644     648     642     641     644
     646     642     641     645     647     642     641     645
     648     642     641     645     654     650     649     651
     655     650     649     651     656     650     649     651
     654     650     649     652     655     650     649     652
     656     650     649     652     654     650     649     653
     655     650     649     653     656     650     649     653
     662     658     657     659     663     658     657     659
     664     658     657     659     662     658     657     660
     663     658     657     660     664     658     657     660
     662     658     657     661     663     658     657     661
     664     658     657     661     670     666     665     667
     671     666     665     667     672     666     665     667
     670     666     665     668     671     666     665     668
     672     666     665     668     670     666     665     669
     671     666     665     669     672     666     665     669
     678     674     673     675     679     674     673     675
     680     674     673     675     678     674     673     676
     679     674     673     676     680     674     673     676
     678     674     673     677     679     674     673     677
     680     674     673     677     686     682     681     683
     687     682     681     683     688     682     681     683
     686     682     681     684     687     682     681     684
     688     682     681     684     686     682     681     685
     687     682     681     685     688     682     681     685
     694     690     689     691     695     690     689     691
     696     690     689     691     694     690     689     692
     695     690     689     692     696     690     689     692
     694     690     689     693     695     690     689     693
     696     690     689     693     702     698     697     699
     703     698     697     699     704     698     697     699
     702     698     697     700     703     698     697     700
     704     698     697     700     702     698     697     701
     703     698     697     701     704     698     697     701
     710     706     705     707     711     706     705     707
     712     706     705     707     710     706     705     708
     711     706     705     708     712     706     705     708
     710     706     705     709     711     706     705     709
     712     706     705     709     718     714     713     715
     719     714     713     715     720     714     713     715
     718     714     713     716     719     714     713     716
     720     714     713     716     718     714     713     717
     719     714     713     717     720     714     713     717
     726     722     721     723     727     722     721     723
     728     722     721     723     726     722     721     724
     727     722     721     724     728     722     721     724
     726     722     721     725     727     722     721     725
     728     722     721     725     734     730     729     731
     735     730     729     731     736     730     729     731
     734     730     729     732     735     730     729     732
     736     730     729     732     734     730     729     733
     735     730     729     733     736     730     729     733
     742     738     737     739     743     738     737     739
     744     738     737     739     742     738     737     740
     743     738     737     740     744     738     737     740
     742     738     737     741     743     738     737     741
     744     738     737     741     750     746     745     747
     751     746     745     747     752     746     745     747
     750     746     745     748     751     746     745     748
     752     746     745     748     750     746     745     749
     751     746     745     749     752     746     745     749
     758     754     753     755     759     754     753     755
     760     754     753     755     758     754     753     756
     759     754     753     756     760     754     753     756
     758     754     753     757     759     754     753     757
     760     754     753     757     766     762     761     763
     767     762     761     763     768     762     761     763
     766     762     761     764     767     762     761     764
     768     762     761     764     766     762     761     765
     767     762     761     765     768     762     761     765
     774     770     769     771     775     770     769     771
     776     770     769     771     774     770     769     772
     775     770     769     772     776     770     769     772
     774     770     769     773     775     770     769     773
     776     770     769     773     782     778     777     779
     783     778     777     779     784     778     777     779
     782     778     777     780     783     778     777     780
     784     778     777     780     782     778     777     781
     783     778     777     781     784     778     777     781
     790     786     785     787     791     786     785     787
     792     786     785     787     790     786     785     788
     791     786     785     788     792     786     785     788
     790     786     785     789     791     786     785     789
     792     786     785     789     798     794     793     795
     799     794     793     795     800     794     793     795
     798     794     793     796     799     794     793     796
     800     794     793     796     798     794     793     797
     799     794     793     797     800     794     793     797
     806     802     801     803     807     802     801     803
     808     802     801     803     806     802     801     804
     807     802     801     804     808     802     801     804
     806     802     801     805     807     802     801     805
     808     802     801     805     814     810     809     811
     815     810     809     811     816     810     809     811
     814     810     809     812     815     810     809     812
     816     810     809     812     814     810     809     813
     815     810     809     813     816     810     809     813
     822     818     817     819     823     818     817     819
     824     818     817     819     822     818     817     820
     823     818     817     820     824     818     817     820
     822     818     817     821     823     818     817     821
     824     818     817     821     830     826     825     827
     831     826     825     827     832     826     825     827
     830     826     825     828     831     826     825     828
     832     826     825     828     830     826     825     829
     831     826     825     829     832     826     825     829
     838     834     833     835     839     834     833     835
     840     834     833     835     838     834     833     836
     839     834     833     836     840     834     833     836
     838     834     833     837     839     834     833     837
     840     834     833     837     846     842     841     843
     847     842     841     843     848     842     841     843
     846     842     841     844     847     842     841     844
     848     842     841     844     846     842     841     845
     847     842     841     845     848     842     841     845
     854     850     849     851     855     850     849     851
     856     850     849     851     854     850     849     852
     855     850     849     852     856     850     849     852
     854     850     849     853     855     850     849     853
     856     850     849     853     862     858     857     859
     863     858     857     859     864     858     857     859
     862     858     857     860     863     858     857     860
     864     858     857     860     862     858     857     861
     863     858     857     861     864     858     857     861
     870     866     865     867     871     866     865     867
     872     866     865     867     870     866     865     868
     871     866     865     868     872     866     865     868
     870     866     865     869     871     866     865     869
     872     866     865     869     878     874     873     875
     879     874     873     875     880     874     873     875
     878     874     873     876     879     874     873     876
     880     874     873     876     878     874     873     877
     879     874     873     877     880     874     873     877
     886     882     881     883     887     882     881     883
     888     882     881     883     886     882     881     884
     887     882     881     884     888     882     881     884
     886     882     881     885     887     882     881     885
     888     882     881     885     894     890     889     891
     895     890     889     891     896     890     889     891
     894     890     889     892     895     890     889     892
     896     890     889     892     894     890     889     893
     895     890     889     893     896     890     889     893
     902     898     897     899     903     898     897     899
     904     898     897     899     902     898     897     900
     903     898     897     900     904     898     897     900
     902     898     897     901     903     898     897     901
     904     898     897     901     910     906     905     907
     911     906     905     907     912     906     905     907
     910     906     905     908     911     906     905     908
     912     906     905     908     910     906     905     909
     911     906     905     909     912     906     905     909
     918     914     913     915     919     914     913     915
     920     914     913     915     918     914     913     916
     919     914     913     916     920     914     913     916
     918     914     913     917     919     914     913     917
     920     914     913     917     926     922     921     923
     927     922     921     923     928     922     921     923
     926     922     921     924     927     922     921     924
     928     922     921     924     926     922     921     925
     927     922     921     925     928     922     921     925
     934     930     929     931     935     930     929     931
     936     930     929     931     934     930     929     932
     935     930     929     932     936     930     929     932
     934     930     929     933     935     930     929     933
     936     930     929     933     942     938     937     939
     943     938     937     939     944     938     937     939
     942     938     937     940     943     938     937     940
     944     938     937     940     942     938     937     941
     943     938     937     941     944     938     937     941
     950     946     945     947     951     946     945     947
     952     946     945     947     950     946     945     948
     951     946     945     948     952     946     945     948
     950     946     945     949     951     946     945     949
     952     946     945     949     958     954     953     955
     959     954     953     955     960     954     953     955
     958     954     953     956     959     954     953     956
     960     954     953     956     958     954     953     957
     959     954     953     957     960     954     953     957
     966     962     961     963     967     962     961     963
     968     962     961     963     966     962     961     964
     967     962     961     964     968     962     961     964
     966     962     961     965     967     962     961     965
     968     962     961     965     974     970     969     971
     975     970     969     971     976     970     969     971
     974     970     969     972     975     970     969     972
     976     970     969     972     974     970     969     973
     975     970     969     973     976     970     969     973
     982     978     977     979     983     978     977     979
     984     978     977     979     982     978     977     980
     983     978     977     980     984     978     977     980
     982     978     977     981     983     978     977     981
     984     978     977     981     990     986     985     987
     991     986     985     987     992     986     985     987
     990     986     985     988     991     986     985     988
     992     986     985     988     990     986     985     989
     991     986     985     989     992     986     985     989
     998     994     993     995     999     994     993     995
    1000     994     993     995     998     994     993     996
     999     994     993     996    1000     994     993     996
     998     994     993     997     999     994     993     997
    1000     994     993     997    1006    1002    1001    1003
    1007    1002    1001    1003    1008    1002    1001    1003
    1006    1002    1001    1004    1007    1002    1001    1004
    1008    1002    1001    1004    1006    1002    1001    1005
    1007    1002    1001    1005    1008    1002    1001    1005
    1014    1010    1009    1011    1015    1010    1009    1011
    1016    1010    1009    1011    1014    1010    1009    1012
    1015    1010    1009    1012    1016    1010    1009    1012
    1014    1010    1009    1013    1015    1010    1009    1013
    1016    1010    1009    1013    1022    1018    1017    1019
    1023    1018    1017    1019    1024    1018    1017    1019
    1022    1018    1017    1020    1023    1018    1017    1020
    1024    1018    1017    1020    1022    1018    1017    1021
    1023    1018    1017    1021    1024    1018    1017    1021
    1030    1026    1025    1027    1031    1026    1025    1027
    1032    1026    1025    1027    1030    1026    1025    1028
    1031    1026    1025    1028    1032    1026    1025    1028
    1030    1026    1025    1029    1031    1026    1025    1029
    1032    1026    1025    1029    1038    1034    1033    1035
    1039    1034    1033    1035    1040    1034    1033    1035
    1038    1034    1033    1036    1039    1034    1033    1036
    1040    1034    1033    1036    1038    1034    1033    1037
    1039    1034    1033    1037    1040    1034    1033    1037
    1046    1042    1041    1043    1047    1042    1041    1043
    1048    1042    1041    1043    1046    1042    1041    1044
    1047    1042    1041    1044    1048    1042    1041    1044
    1046    1042    1041    1045    1047    1042    1041    1045
    1048    1042    1041    1045    1054    1050    1049    1051
    1055    1050    1049    1051    1056    1050    1049    1051
    1054    1050    1049    1052    1055    1050    1049    1052
    1056    1050    1049    1052    1054    1050    1049    1053
    1055    1050    1049    1053    1056    1050    1049    1053
    1062    1058    1057    1059    1063    1058    1057    1059
    1064    1058    1057    1059    1062    1058    1057    1060
    1063    1058    1057    1060    1064    1058    1057    1060
    1062    1058    1057    1061    1063    1058    1057    1061
    1064    1058    1057    1061    1070    1066    1065    1067
    1071    1066    1065    1067    1072    1066    1065    1067
    1070    1066    1065    1068    1071    1066    1065    1068
    1072    1066    1065    1068    1070    1066    1065    1069
    1071    1066    1065    1069    1072    1066    1065    1069
    1078    1074    1073    1075    1079    1074    1073    1075
    1080    1074    1073    1075    1078    1074    1073    1076
    1079    1074    1073    1076    1080    1074    1073    1076
    1078    1074    1073    1077    1079    1074    1073    1077
    1080    1074    1073    1077    1086    1082    1081    1083
    1087    1082    1081    1083    1088    1082    1081    1083
    1086    1082    1081    1084    1087    1082    1081    1084
    1088    1082    1081    1084    1086    1082    1081    1085
    1087    1082    1081    1085    1088    1082    1081    1085
    1094    1090    1089    1091    1095    1090    1089    1091
    1096    1090    1089    1091    1094    1090    1089    1092
    1095    1090    1089    1092    1096    1090    1089    1092
    1094    1090    1089    1093    1095    1090    1089    1093
    1096    1090    1089    1093    1102    1098    1097    1099
    1103    1098    1097    1099    1104    1098    1097    1099
    1102    1098    1097    1100    1103    1098    1097    1100
    1104    1098    1097    1100    1102    1098    1097    1101
    1103    1098    1097    1101    1104    1098    1097    1101
    1110    1106    1105    1107    1111    1106    1105    1107
    1112    1106    1105    1107    1110    1106    1105    1108
    1111    1106    1105    1108    1112    1106    1105    1108
    1110    1106    1105    1109    1111    1106    1105    1109
    1112    1106    1105    1109    1118    1114    1113    1115
    1119    1114    1113    1115    1120    1114    1113    1115
    1118    1114    1113    1116    1119    1114    1113    1116
    1120    1114    1113    1116    1118    1114    1113    1117
    1119    1114    1113    1117    1120    1114    1113    1117
    1126    1122    1121    1123    1127    1122    1121    1123
    1128    1122    1121    1123    1126    1122    1121    1124
    1127    1122    1121    1124    1128    1122    1121    1124
    1126    1122    1121    1125    1127    1122    1121    1125
    1128    1122    1121    1125    1134    1130    1129    1131
    1135    1130    1129    1131    1136    1130    1129    1131
    1134    1130    1129    1132    1135    1130    1129    1132
    1136    1130    1129    1132    1134    1130    1129    1133
    1135    1130    1129    1133    1136    1130    1129    1133
    1142    1138    1137    1139    1143    1138    1137    1139
    1144    1138    1137    1139    1142    1138    1137    1140
    1143    1138    1137    1140    1144    1138    1137    1140
    1142    1138    1137    1141    1143    1138    1137    1141
    1144    1138    1137    1141    1150    1146    1145    1147
    1151    1146    1145    1147    1152    1146    1145    1147
    1150    1146    1145    1148    1151    1146    1145    1148
    1152    1146    1145    1148    1150    1146    1145    1149
    1151    1146    1145    1149    1152    1146    1145    1149
    1158    1154    1153    1155    1159    1154    1153    1155
    1160    1154    1153    1155    1158    1154    1153    1156
    1159    1154    1153    1156    1160    1154    1153    1156
    1158    1154    1153    1157    1159    1154    1153    1157
    1160    1154    1153    1157    1166    1162    1161    1163
    1167    1162    1161    1163    1168    1162    1161    1163
    1166    1162    1161    1164    1167    1162    1161    1164
    1168    1162    1161    1164    1166    1162    1161    1165
    1167    1162    1161    1165    1168    1162    1161    1165
    1174    1170    1169    1171    1175    1170    1169    1171
    1176    1170    1169    1171    1174    1170    1169    1172
    1175    1170    1169    1172    1176    1170    1169    1172
    1174    1170    1169    1173    1175    1170    1169    1173
    1176    1170    1169    1173    1182    1178    1177    1179
    1183    1178    1177    1179    1184    1178    1177    1179
    1182    1178    1177    1180    1183    1178    1177    1180
    1184    1178    1177    1180    1182    1178    1177    1181
    1183    1178    1177    1181    1184    1178    1177    1181
    1190    1186    1185    1187    1191    1186    1185    1187
    1192    1186    1185    1187    1190    1186    1185    1188
    1191    1186    1185    1188    1192    1186    1185    1188
    1190    1186    1185    1189    1191    1186    1185    1189
    1192    1186    1185    1189    1198    1194    1193    1195
    1199    1194    1193    1195    1200    1194    1193    1195
    1198    1194    1193    1196    1199    1194    1193    1196
    1200    1194    1193    1196    1198    1194    1193    1197
    1199    1194    1193    1197    1200    1194    1193    1197
    1206    1202    1201    1203    1207    1202    1201    1203
    1208    1202    1201    1203    1206    1202    1201    1204
    1207    1202    1201    1204    1208    1202    1201    1204
    1206    1202    1201    1205    1207    1202    1201    1205
    1208    1202    1201    1205    1214    1210    1209    1211
    1215    1210    1209    1211    1216    1210    1209    1211
    1214    1210    1209    1212    1215    1210    1209    1212
    1216    1210    1209    1212    1214    1210    1209    1213
    1215    1210    1209    1213    1216    1210    1209    1213
    1222    1218    1217    1219    1223    1218    1217    1219
    1224    1218    1217    1219    1222    1218    1217    1220
    1223    1218    1217    1220    1224    1218    1217    1220
    1222    1218    1217    1221    1223    1218    1217    1221
    1224    1218    1217    1221    1230    1226    1225    1227
    1231    1226    1225    1227    1232    1226    1225    1227
    1230    1226    1225    1228    1231    1226    1225    1228
    1232    1226    1225    1228    1230    1226    1225    1229
    1231    1226    1225    1229    1232    1226    1225    1229
    1238    1234    1233    1235    1239    1234    1233    1235
    1240    1234    1233    1235    1238    1234    1233    1236
    1239    1234    1233    1236    1240    1234    1233    1236
    1238    1234    1233    1237    1239    1234    1233    1237
    1240    1234    1233    1237    1246    1242    1241    1243
    1247    1242    1241    1243    1248    1242    1241    1243
    1246    1242    1241    1244    1247    1242    1241    1244
    1248    1242    1241    1244    1246    1242    1241    1245
    1247    1242    1241    1245    1248    1242    1241    1245
    1254    1250    1249    1251    1255    1250    1249    1251
    1256    1250    1249    1251    1254    1250    1249    1252
    1255    1250    1249    1252    1256    1250    1249    1252
    1254    1250    1249    1253    1255    1250    1249    1253
    1256    1250    1249    1253    1262    1258    1257    1259
    1263    1258    1257    1259    1264    1258    1257    1259
    1262    1258    1257    1260    1263    1258    1257    1260
    1264    1258    1257    1260    1262    1258    1257    1261
    1263    1258    1257    1261    1264    1258    1257    1261
    1270    1266    1265    1267    1271    1266    1265    1267
    1272    1266    1265    1267    1270    1266    1265    1268
    1271    1266    1265    1268    1272    1266    1265    1268
    1270    1266    1265    1269    1271    1266    1265    1269
    1272    1266    1265    1269    1278    1274    1273    1275
    1279    1274    1273    1275    1280    1274    1273    1275
    1278    1274    1273    1276    1279    1274    1273    1276
    1280    1274    1273    1276    1278    1274    1273    1277
    1279    1274    1273    1277    1280    1274    1273    1277
    1286    1282    1281    1283    1287    1282    1281    1283
    1288    1282    1281    1283    1286    1282    1281    1284
    1287    1282    1281    1284    1288    1282    1281    1284
    1286    1282    1281    1285    1287    1282    1281    1285
    1288    1282    1281    1285    1294    1290    1289    1291
    1295    1290    1289    1291    1296    1290    1289    1291
    1294    1290    1289    1292    1295    1290    1289    1292
    1296    1290    1289    1292    1294    1290    1289    1293
    1295    1290    1289    1293    1296    1290    1289    1293
    1302    1298    1297    1299    1303    1298    1297    1299
    1304    1298    1297    1299    1302    1298    1297    1300
    1303    1298    1297    1300    1304    1298    1297    1300
    1302    1298    1297    1301    1303    1298    1297    1301
    1304    1298    1297    1301    1310    1306    1305    1307
    1311    1306    1305    1307    1312    1306    1305    1307
    1310    1306    1305    1308    1311    1306    1305    1308
    1312    1306    1305    1308    1310    1306    1305    1309
    1311    1306    1305    1309    1312    1306    1305    1309
    1318    1314    1313    1315    1319    1314    1313    1315
    1320    1314    1313    1315    1318    1314    1313    1316
    1319    1314    1313    1316    1320    1314    1313    1316
    1318    1314    1313    1317    1319    1314    1313    1317
    1320    1314    1313    1317    1326    1322    1321    1323
    1327    1322    1321    1323    1328    1322    1321    1323
    1326    1322    1321    1324    1327    1322    1321    1324
    1328    1322    1321    1324    1326    1322    1321    1325
    1327    1322    1321    1325    1328    1322    1321    1325
    1334    1330    1329    1331    1335    1330    1329    1331
    1336    1330    1329    1331    1334    1330    1329    1332
    1335    1330    1329    1332    1336    1330    1329    1332
    1334    1330    1329    1333    1335    1330    1329    1333
    1336    1330    1329    1333    1342    1338    1337    1339
    1343    1338    1337    1339    1344    1338    1337    1339
    1342    1338    1337    1340    1343    1338    1337    1340
    1344    1338    1337    1340    1342    1338    1337    1341
    1343    1338    1337    1341    1344    1338    1337    1341
    1350    1346    1345    1347    1351    1346    1345    1347
    1352    1346    1345    1347    1350    1346    1345    1348
    1351    1346    1345    1348    1352    1346    1345    1348
    1350    1346    1345    1349    1351    1346    1345    1349
    1352    1346    1345    1349    1358    1354    1353    1355
    1359    1354    1353    1355    1360    1354    1353    1355
    1358    1354    1353    1356    1359    1354    1353    1356
    1360    1354    1353    1356    1358    1354    1353    1357
    1359    1354    1353    1357    1360    1354    1353    1357
    1366    1362    1361    1363    1367    1362    1361    1363
    1368    1362    1361    1363    1366    1362    1361    1364
    1367    1362    1361    1364    1368    1362    1361    1364
    1366    1362    1361    1365    1367    1362    1361    1365
    1368    1362    1361    1365    1374    1370    1369    1371
    1375    1370    1369    1371    1376    1370    1369    1371
    1374    1370    1369    1372    1375    1370    1369    1372
    1376    1370    1369    1372    1374    1370    1369    1373
    1375    1370    1369    1373    1376    1370    1369    1373
    1382    1378    1377    1379    1383    1378    1377    1379
    1384    1378    1377    1379    1382    1378    1377    1380
    1383    1378    1377    1380    1384    1378    1377    1380
    1382    1378    1377    1381    1383    1378    1377    1381
    1384    1378    1377    1381    1390    1386    1385    1387
    1391    1386    1385    1387    1392    1386    1385    1387
    1390    1386    1385    1388    1391    1386    1385    1388
    1392    1386    1385    1388    1390    1386    1385    1389
    1391    1386    1385    1389    1392    1386    1385    1389
    1398    1394    1393    1395    1399    1394    1393    1395
    1400    1394    1393    1395    1398    1394    1393    1396
    1399    1394    1393    1396    1400    1394    1393    1396
    1398    1394    1393    1397    1399    1394    1393    1397
    1400    1394    1393    1397    1406    1402    1401    1403
    1407    1402    1401    1403    1408    1402    1401    1403
    1406    1402    1401    1404    1407    1402    1401    1404
    1408    1402    1401    1404    1406    1402    1401    1405
    1407    1402    1401    1405    1408    1402    1401    1405
    1414    1410    1409    1411    1415    1410    1409    1411
    1416    1410    1409    1411    1414    1410    1409    1412
    1415    1410    1409    1412    1416    1410    1409    1412
    1414    1410    1409    1413    1415    1410    1409    1413
    1416    1410    1409    1413    1422    1418    1417    1419
    1423    1418    1417    1419    1424    1418    1417    1419
    1422    1418    1417    1420    1423    1418    1417    1420
    1424    1418    1417    1420    1422    1418    1417    1421
    1423    1418    1417    1421    1424    1418    1417    1421
    1430    1426    1425    1427    1431    1426    1425    1427
    1432    1426    1425    1427    1430    1426    1425    1428
    1431    1426    1425    1428    1432    1426    1425    1428
    1430    1426    1425    1429    1431    1426    1425    1429
    1432    1426    1425    1429    1438    1434    1433    1435
    1439    1434    1433    1435    1440    1434    1433    1435
    1438    1434    1433    1436    1439    1434    1433    1436
    1440    1434    1433    1436    1438    1434    1433    1437
    1439    1434    1433    1437    1440    1434    1433    1437
    1446    1442    1441    1443    1447    1442    1441    1443
    1448    1442    1441    1443    1446    1442    1441    1444
    1447    1442    1441    1444    1448    1442    1441    1444
    1446    1442    1441    1445    1447    1442    1441    1445
    1448    1442    1441    1445    1454    1450    1449    1451
    1455    1450    1449    1451    1456    1450    1449    1451
    1454    1450    1449    1452    1455    1450    1449    1452
    1456    1450    1449    1452    1454    1450    1449    1453
    1455    1450    1449    1453    1456    1450    1449    1453
    1462    1458    1457    1459    1463    1458    1457    1459
    1464    1458    1457    1459    1462    1458    1457    1460
    1463    1458    1457    1460    1464    1458    1457    1460
    1462    1458    1457    1461    1463    1458    1457    1461
    1464    1458    1457    1461    1470    1466    1465    1467
    1471    1466    1465    1467    1472    1466    1465    1467
    1470    1466    1465    1468    1471    1466    1465    1468
    1472    1466    1465    1468    1470    1466    1465    1469
    1471    1466    1465    1469    1472    1466    1465    1469
    1478    1474    1473    1475    1479    1474    1473    1475
    1480    1474    1473    1475    1478    1474    1473    1476
    1479    1474    1473    1476    1480    1474    1473    1476
    1478    1474    1473    1477    1479    1474    1473    1477
    1480    1474    1473    1477    1486    1482    1481    1483
    1487    1482    1481    1483    1488    1482    1481    1483
    1486    1482    1481    1484    1487    1482    1481    1484
    1488    1482    1481    1484    1486    1482    1481    1485
    1487    1482    1481    1485    1488    1482    1481    1485
    1494    1490    1489    1491    1495    1490    1489    1491
    1496    1490    1489    1491    1494    1490    1489    1492
    1495    1490    1489    1492    1496    1490    1489    1492
    1494    1490    1489    1493    1495    1490    1489    1493
    1496    1490    1489    1493    1502    1498    1497    1499
    1503    1498    1497    1499    1504    1498    1497    1499
    1502    1498    1497    1500    1503    1498    1497    1500
    1504    1498    1497    1500    1502    1498    1497    1501
    1503    1498    1497    1501    1504    1498    1497    1501
    1510    1506    1505    1507    1511    1506    1505    1507
    1512    1506    1505    1507    1510    1506    1505    1508
    1511    1506    1505    1508    1512    1506    1505    1508
    1510    1506    1505    1509    1511    1506    1505    1509
    1512    1506    1505    1509    1518    1514    1513    1515
    1519    1514    1513    1515    1520    1514    1513    1515
    1518    1514    1513    1516    1519    1514    1513    1516
    1520    1514    1513    1516    1518    1514    1513    1517
    1519    1514    1513    1517    1520    1514    1513    1517
    1526    1522    1521    1523    1527    1522    1521    1523
    1528    1522    1521    1523    1526    1522    1521    1524
    1527    1522    1521    1524    1528    1522    1521    1524
    1526    1522    1521    1525    1527    1522    1521    1525
    1528    1522    1521    1525    1534    1530    1529    1531
    1535    1530    1529    1531    1536    1530    1529    1531
    1534    1530    1529    1532    1535    1530    1529    1532
    1536    1530    1529    1532    1534    1530    1529    1533
    1535    1530    1529    1533    1536    1530    1529    1533
    1542    1538    1537    1539    1543    1538    1537    1539
    1544    1538    1537    1539    1542    1538    1537    1540
    1543    1538    1537    1540    1544    1538    1537    1540
    1542    1538    1537    1541    1543    1538    1537    1541
    1544    1538    1537    1541    1550    1546    1545    1547
    1551    1546    1545    1547    1552    1546    1545    1547
    1550    1546    1545    1548    1551    1546    1545    1548
    1552    1546    1545    1548    1550    1546    1545    1549
    1551    1546    1545    1549    1552    1546    1545    1549
    1558    1554    1553    1555    1559    1554    1553    1555
    1560    1554    1553    1555    1558    1554    1553    1556
    1559    1554    1553    1556    1560    1554    1553    1556
    1558    1554    1553    1557    1559    1554    1553    1557
    1560    1554    1553    1557    1566    1562    1561    1563
    1567    1562    1561    1563    1568    1562    1561    1563
    1566    1562    1561    1564    1567    1562    1561    1564
    1568    1562    1561    1564    1566    1562    1561    1565
    1567    1562    1561    1565    1568    1562    1561    1565
    1574    1570    1569    1571    1575    1570    1569    1571
    1576    1570    1569    1571    1574    1570    1569    1572
    1575    1570    1569    1572    1576    1570    1569    1572
    1574    1570    1569    1573    1575    1570    1569    1573
    1576    1570    1569    1573    1582    1578    1577    1579
    1583    1578    1577    1579    1584    1578    1577    1579
    1582    1578    1577    1580    1583    1578    1577    1580
    1584    1578    1577    1580    1582    1578    1577    1581
    1583    1578    1577    1581    1584    1578    1577    1581
    1590    1586    1585    1587    1591    1586    1585    1587
    1592    1586    1585    1587    1590    1586    1585    1588
    1591    1586    1585    1588    1592    1586    1585    1588
    1590    1586    1585    1589    1591    1586    1585    1589
    1592    1586    1585    1589    1598    1594    1593    1595
    1599    1594    1593    1595    1600    1594    1593    1595
    1598    1594    1593    1596    1599    1594    1593    1596
    1600    1594    1593    1596    1598    1594    1593    1597
    1599    1594    1593    1597    1600    1594    1593    1597
    1606    1602    1601    1603    1607    1602    1601    1603
    1608    1602    1601    1603    1606    1602    1601    1604
    1607    1602    1601    1604    1608    1602    1601    1604
    1606    1602    1601    1605    1607    1602    1601    1605
    1608    1602    1601    1605    1614    1610    1609    1611
    1615    1610    1609    1611    1616    1610    1609    1611
    1614    1610    1609    1612    1615    1610    1609    1612
    1616    1610    1609    1612    1614    1610    1609    1613
    1615    1610    1609    1613    1616    1610    1609    1613
    1622    1618    1617    1619    1623    1618    1617    1619
    1624    1618    1617    1619    1622    1618    1617    1620
    1623    1618    1617    1620    1624    1618    1617    1620
    1622    1618    1617    1621    1623    1618    1617    1621
    1624    1618    1617    1621    1630    1626    1625    1627
    1631    1626    1625    1627    1632    1626    1625    1627
    1630    1626    1625    1628    1631    1626    1625    1628
    1632    1626    1625    1628    1630    1626    1625    1629
    1631    1626    1625    1629    1632    1626    1625    1629
    1638    1634    1633    1635    1639    1634    1633    1635
    1640    1634    1633    1635    1638    1634    1633    1636
    1639    1634    1633    1636    1640    1634    1633    1636
    1638    1634    1633    1637    1639    1634    1633    1637
    1640    1634    1633    1637    1646    1642    1641    1643
    1647    1642    1641    1643    1648    1642    1641    1643
    1646    1642    1641    1644    1647    1642    1641    1644
    1648    1642    1641    1644    1646    1642    1641    1645
    1647    1642    1641    1645    1648    1642    1641    1645
    1654    1650    1649    1651    1655    1650    1649    1651
    1656    1650    1649    1651    1654    1650    1649    1652
    1655    1650    1649    1652    1656    1650    1649    1652
    1654    1650    1649    1653    1655    1650    1649    1653
    1656    1650    1649    1653    1662    1658    1657    1659
    1663    1658    1657    1659    1664    1658    1657    1659
    1662    1658    1657    1660    1663    1658    1657    1660
    1664    1658    1657    1660    1662    1658    1657    1661
    1663    1658    1657    1661    1664    1658    1657    1661
    1670    1666    1665    1667    1671    1666    1665    1667
    1672    1666    1665    1667    1670    1666    1665    1668
    1671    1666    1665    1668    1672    1666    1665    1668
    1670    1666    1665    1669    1671    1666    1665    1669
    1672    1666    1665    1669    1678    1674    1673    1675
    1679    1674    1673    1675    1680    1674    1673    1675
    1678    1674    1673    1676    1679    1674    1673    1676
    1680    1674    1673    1676    1678    1674    1673    1677
    1679    1674    1673    1677    1680    1674    1673    1677
    1686    1682    1681    1683    1687    1682    1681    1683
    1688    1682    1681    1683    1686    1682    1681    1684
    1687    1682    1681    1684    1688    1682    1681    1684
    1686    1682    1681    1685    1687    1682    1681    1685
    1688    1682    1681    1685    1694    1690    1689    1691
    1695    1690    1689    1691    1696    1690    1689    1691
    1694    1690    1689    1692    1695    1690    1689    1692
    1696    1690    1689    1692    1694    1690    1689    1693
    1695    1690    1689    1693    1696    1690    1689    1693
    1702    1698    1697    1699    1703    1698    1697    1699
    1704    1698    1697    1699    1702    1698    1697    1700
    1703    1698    1697    1700    1704    1698    1697    1700
    1702    1698    1697    1701    1703    1698    1697    1701
    1704    1698    1697    1701    1710    1706    1705    1707
    1711    1706    1705    1707    1712    1706    1705    1707
    1710    1706    1705    1708    1711    1706    1705    1708
    1712    1706    1705    1708    1710    1706    1705    1709
    1711    1706    1705    1709    1712    1706    1705    1709
    1718    1714    1713    1715    1719    1714    1713    1715
    1720    1714    1713    1715    1718    1714    1713    1716
    1719    1714    1713    1716    1720    1714    1713    1716
    1718    1714    1713    1717    1719    1714    1713    1717
    1720    1714    1713    1717    1726    1722    1721    1723
    1727    1722    1721    1723    1728    1722    1721    1723
    1726    1722    1721    1724    1727    1722    1721    1724
    1728    1722    1721    1724    1726    1722    1721    1725
    1727    1722    1721    1725    1728    1722    1721    1725
    1734    1730    1729    1731    1735    1730    1729    1731
    1736    1730    1729    1731    1734    1730    1729    1732
    1735    1730    1729    1732    1736    1730    1729    1732
    1734    1730    1729    1733    1735    1730    1729    1733
    1736    1730    1729    1733    1742    1738    1737    1739
    1743    1738    1737    1739    1744    1738    1737    1739
    1742    1738    1737    1740    1743    1738    1737    1740
    1744    1738    1737    1740    1742    1738    1737    1741
    1743    1738    1737    1741    1744    1738    1737    1741
    1750    1746    1745    1747    1751    1746    1745    1747
    1752    1746    1745    1747    1750    1746    1745    1748
    1751    1746    1745    1748    1752    1746    1745    1748
    1750    1746    1745    1749    1751    1746    1745    1749
    1752    1746    1745    1749    1758    1754    1753    1755
    1759    1754    1753    1755    1760    1754    1753    1755
    1758    1754    1753    1756    1759    1754    1753    1756
    1760    1754    1753    1756    1758    1754    1753    1757
    1759    1754    1753    1757    1760    1754    1753    1757
    1766    1762    1761    1763    1767    1762    1761    1763
    1768    1762    1761    1763    1766    1762    1761    1764
    1767    1762    1761    1764    1768    1762    1761    1764
    1766    1762    1761    1765    1767    1762    1761    1765
    1768    1762    1761    1765    1774    1770    1769    1771
    1775    1770    1769    1771    1776    1770    1769    1771
    1774    1770    1769    1772    1775    1770    1769    1772
    1776    1770    1769    1772    1774    1770    1769    1773
    1775    1770    1769    1773    1776    1770    1769    1773
    1782    1778    1777    1779    1783    1778    1777    1779
    1784    1778    1777    1779    1782    1778    1777    1780
    1783    1778    1777    1780    1784    1778    1777    1780
    1782    1778    1777    1781    1783    1778    1777    1781
    1784    1778    1777    1781    1790    1786    1785    1787
    1791    1786    1785    1787    1792    1786    1785    1787
    1790    1786    1785    1788    1791    1786    1785    1788
    1792    1786    1785    1788    1790    1786    1785    1789
    1791    1786    1785    1789    1792    1786    1785    1789
    1798    1794    1793    1795    1799    1794    1793    1795
    1800    1794    1793    1795    1798    1794    1793    1796
    1799    1794    1793    1796    1800    1794    1793    1796
    1798    1794    1793    1797    1799    1794    1793    1797
    1800    1794    1793    1797    1806    1802    1801    1803
    1807    1802    1801    1803    1808    1802    1801    1803
    1806    1802    1801    1804    1807    1802    1801    1804
    1808    1802    1801    1804    1806    1802    1801    1805
    1807    1802    1801    1805    1808    1802    1801    1805
    1814    1810    1809    1811    1815    1810    1809    1811
    1816    1810    1809    1811    1814    1810    1809    1812
    1815    1810    1809    1812    1816    1810    1809    1812
    1814    1810    1809    1813    1815    1810    1809    1813
    1816    1810    1809    1813    1822    1818    1817    1819
    1823    1818    1817    1819    1824    1818    1817    1819
    1822    1818    1817    1820    1823    1818    1817    1820
    1824    1818    1817    1820    1822    1818    1817    1821
    1823    1818    1817    1821    1824    1818    1817    1821
    1830    1826    1825    1827    1831    1826    1825    1827
    1832    1826    1825    1827    1830    1826    1825    1828
    1831    1826    1825    1828    1832    1826    1825    1828
    1830    1826    1825    1829    1831    1826    1825    1829
    1832    1826    1825    1829    1838    1834    1833    1835
    1839    1834    1833    1835    1840    1834    1833    1835
    1838    1834    1833    1836    1839    1834    1833    1836
    1840    1834    1833    1836    1838    1834    1833    1837
    1839    1834    1833    1837    1840    1834    1833    1837
    1846    1842    1841    1843    1847    1842    1841    1843
    1848    1842    1841    1843    1846    1842    1841    1844
    1847    1842    1841    1844    1848    1842    1841    1844
    1846    1842    1841    1845    1847    1842    1841    1845
    1848    1842    1841    1845    1854    1850    1849    1851
    1855    1850    1849    1851    1856    1850    1849    1851
    1854    1850    1849    1852    1855    1850    1849    1852
    1856    1850    1849    1852    1854    1850    1849    1853
    1855    1850    1849    1853    1856    1850    1849    1853
    1862    1858    1857    1859    1863    1858    1857    1859
    1864    1858    1857    1859    1862    1858    1857    1860
    1863    1858    1857    1860    1864    1858    1857    1860
    1862    1858    1857    1861    1863    1858    1857    1861
    1864    1858    1857    1861    1870    1866    1865    1867
    1871    1866    1865    1867    1872    1866    1865    1867
    1870    1866    1865    1868    1871    1866    1865    1868
    1872    1866    1865    1868    1870    1866    1865    1869
    1871    1866    1865    1869    1872    1866    1865    1869
    1878    1874    1873    1875    1879    1874    1873    1875
    1880    1874    1873    1875    1878    1874    1873    1876
    1879    1874    1873    1876    1880    1874    1873    1876
    1878    1874    1873    1877    1879    1874    1873    1877
    1880    1874    1873    1877    1886    1882    1881    1883
    1887    1882    1881    1883    1888    1882    1881    1883
    1886    1882    1881    1884    1887    1882    1881    1884
    1888    1882    1881    1884    1886    1882    1881    1885
    1887    1882    1881    1885    1888    1882    1881    1885
    1894    1890    1889    1891    1895    1890    1889    1891
    1896    1890    1889    1891    1894    1890    1889    1892
    1895    1890    1889    1892    1896    1890    1889    1892
    1894    1890    1889    1893    1895    1890    1889    1893
    1896    1890    1889    1893    1902    1898    1897    1899
    1903    1898    1897    1899    1904    1898    1897    1899
    1902    1898    1897    1900    1903    1898    1897    1900
    1904    1898    1897    1900    1902    1898    1897    1901
    1903    1898    1897    1901    1904    1898    1897    1901
    1910    1906    1905    1907    1911    1906    1905    1907
    1912    1906    1905    1907    1910    1906    1905    1908
    1911    1906    1905    1908    1912    1906    1905    1908
    1910    1906    1905    1909    1911    1906    1905    1909
    1912    1906    1905    1909    1918    1914    1913    1915
    1919    1914    1913    1915    1920    1914    1913    1915
    1918    1914    1913    1916    1919    1914    1913    1916
    1920    1914    1913    1916    1918    1914    1913    1917
    1919    1914    1913    1917    1920    1914    1913    1917
    1926    1922    1921    1923    1927    1922    1921    1923
    1928    1922    1921    1923    1926    1922    1921    1924
    1927    1922    1921    1924    1928    1922    1921    1924
    1926    1922    1921    1925    1927    1922    1921    1925
    1928    1922    1921    1925    1934    1930    1929    1931
    1935    1930    1929    1931    1936    1930    1929    1931
    1934    1930    1929    1932    1935    1930    1929    1932
    1936    1930    1929    1932    1934    1930    1929    1933
    1935    1930    1929    1933    1936    1930    1929    1933
    1942    1938    1937    1939    1943    1938    1937    1939
    1944    1938    1937    1939    1942    1938    1937    1940
    1943    1938    1937    1940    1944    1938    1937    1940
    1942    1938    1937    1941    1943    1938    1937    1941
    1944    1938    1937    1941    1950    1946    1945    1947
    1951    1946    1945    1947    1952    1946    1945    1947
    1950    1946    1945    1948    1951    1946    1945    1948
    1952    1946    1945    1948    1950    1946    1945    1949
    1951    1946    1945    1949    1952    1946    1945    1949
    1958    1954    1953    1955    1959    1954    1953    1955
    1960    1954    1953    1955    1958    1954    1953    1956
    1959    1954    1953    1956    1960    1954    1953    1956
    1958    1954    1953    1957    1959    1954    1953    1957
    1960    1954    1953    1957    1966    1962    1961    1963
    1967    1962    1961    1963    1968    1962    1961    1963
    1966    1962    1961    1964    1967    1962    1961    1964
    1968    1962    1961    1964    1966    1962    1961    1965
    1967    1962    1961    1965    1968    1962    1961    1965
    1974    1970    1969    1971    1975    1970    1969    1971
    1976    1970    1969    1971    1974    1970    1969    1972
    1975    1970    1969    1972    1976    1970    1969    1972
    1974    1970    1969    1973    1975    1970    1969    1973
    1976    1970    1969    1973    1982    1978    1977    1979
    1983    1978    1977    1979    1984    1978    1977    1979
    1982    1978    1977    1980    1983    1978    1977    1980
    1984    1978    1977    1980    1982    1978    1977    1981
    1983    1978    1977    1981    1984    1978    1977    1981
    1990    1986    1985    1987    1991    1986    1985    1987
    1992    1986    1985    1987    1990    1986    1985    1988
    1991    1986    1985    1988    1992    1986    1985    1988
    1990    1986    1985    1989    1991    1986    1985    1989
    1992    1986    1985    1989    1998    1994    1993    1995
    1999    1994    1993    1995    2000    1994    1993    1995
    1998    1994    1993    1996    1999    1994    1993    1996
    2000    1994    1993    1996    1998    1994    1993    1997
    1999    1994    1993    1997    2000    1994    1993    1997
    2006    2002    2001    2003    2007    2002    2001    2003
    2008    2002    2001    2003    2006    2002    2001    2004
    2007    2002    2001    2004    2008    2002    2001    2004
    2006    2002    2001    2005    2007    2002    2001    2005
    2008    2002    2001    2005    2014    2010    2009    2011
    2015    2010    2009    2011    2016    2010    2009    2011
    2014    2010    2009    2012    2015    2010    2009    2012
    2016    2010    2009    2012    2014    2010    2009    2013
    2015    2010    2009    2013    2016    2010    2009    2013
    2022    2018    2017    2019    2023    2018    2017    2019
    2024    2018    2017    2019    2022    2018    2017    2020
    2023    2018    2017    2020    2024    2018    2017    2020
    2022    2018    2017    2021    2023    2018    2017    2021
    2024    2018    2017    2021    2030    2026    2025    2027
    2031    2026    2025    2027    2032    2026    2025    2027
    2030    2026    2025    2028    2031    2026    2025    2028
    2032    2026    2025    2028    2030    2026    2025    2029
    2031    2026    2025    2029    2032    2026    2025    2029
    2038    2034    2033    2035    2039    2034    2033    2035
    2040    2034    2033    2035    2038    2034    2033    2036
    2039    2034    2033    2036    2040    2034    2033    2036
    2038    2034    2033    2037    2039    2034    2033    2037
    2040    2034    2033    2037    2046    2042    2041    2043
    2047    2042    2041    2043    2048    2042    2041    2043
    2046    2042    2041    2044    2047    2042    2041    2044
    2048    2042    2041    2044    2046    2042    2041    2045
    2047    2042    2041    2045    2048    2042    2041    2045
    2054    2050    2049    2051    2055    2050    2049    2051
    2056    2050    2049    2051    2054    2050    2049    2052
    2055    2050    2049    2052    2056    2050    2049    2052
    2054    2050    2049    2053    2055    2050    2049    2053
    2056    2050    2049    2053    2062    2058    2057    2059
    2063    2058    2057    2059    2064    2058    2057    2059
    2062    2058    2057    2060    2063    2058    2057    2060
    2064    2058    2057    2060    2062    2058    2057    2061
    2063    2058    2057    2061    2064    2058    2057    2061
    2070    2066    2065    2067    2071    2066    2065    2067
    2072    2066    2065    2067    2070    2066    2065    2068
    2071    2066    2065    2068    2072    2066    2065    2068
    2070    2066    2065    2069    2071    2066    2065    2069
    2072    2066    2065    2069    2078    2074    2073    2075
    2079    2074    2073    2075    2080    2074    2073    2075
    2078    2074    2073    2076    2079    2074    2073    2076
    2080    2074    2073    2076    2078    2074    2073    2077
    2079    2074    2073    2077    2080    2074    2073    2077
    2086    2082    2081    2083    2087    2082    2081    2083
    2088    2082    2081    2083    2086    2082    2081    2084
    2087    2082    2081    2084    2088    2082    2081    2084
    2086    2082    2081    2085    2087    2082    2081    2085
    2088    2082    2081    2085    2094    2090    2089    2091
    2095    2090    2089    2091    2096    2090    2089    2091
    2094    2090    2089    2092    2095    2090    2089    2092
    2096    2090    2089    2092    2094    2090    2089    2093
    2095    2090    2089    2093    2096    2090    2089    2093
    2102    2098    2097    2099    2103    2098    2097    2099
    2104    2098    2097    2099    2102    2098    2097    2100
    2103    2098    2097    2100    2104    2098    2097    2100
    2102    2098    2097    2101    2103    2098    2097    2101
    2104    2098    2097    2101    2110    2106    2105    2107
    2111    2106    2105    2107    2112    2106    2105    2107
    2110    2106    2105    2108    2111    2106    2105    2108
    2112    2106    2105    2108    2110    2106    2105    2109
    2111    2106    2105    2109    2112    2106    2105    2109
    2118    2114    2113    2115    2119    2114    2113    2115
    2120    2114    2113    2115    2118    2114    2113    2116
    2119    2114    2113    2116    2120    2114    2113    2116
    2118    2114    2113    2117    2119    2114    2113    2117
    2120    2114    2113    2117    2126    2122    2121    2123
    2127    2122    2121    2123    2128    2122    2121    2123
    2126    2122    2121    2124    2127    2122    2121    2124
    2128    2122    2121    2124    2126    2122    2121    2125
    2127    2122    2121    2125    2128    2122    2121    2125
    2134    2130    2129    2131    2135    2130    2129    2131
    2136    2130    2129    2131    2134    2130    2129    2132
    2135    2130    2129    2132    2136    2130    2129    2132
    2134    2130    2129    2133    2135    2130    2129    2133
    2136    2130    2129    2133    2142    2138    2137    2139
    2143    2138    2137    2139    2144    2138    2137    2139
    2142    2138    2137    2140    2143    2138    2137    2140
    2144    2138    2137    2140    2142    2138    2137    2141
    2143    2138    2137    2141    2144    2138    2137    2141
    2150    2146    2145    2147    2151    2146    2145    2147
    2152    2146    2145    2147    2150    2146    2145    2148
    2151    2146    2145    2148    2152    2146    2145    2148
    2150    2146    2145    2149    2151    2146    2145    2149
    2152    2146    2145    2149    2158    2154    2153    2155
    2159    2154    2153    2155    2160    2154    2153    2155
    2158    2154    2153    2156    2159    2154    2153    2156
    2160    2154    2153    2156    2158    2154    2153    2157
    2159    2154    2153    2157    2160    2154    2153    2157
    2166    2162    2161    2163    2167    2162    2161    2163
    2168    2162    2161    2163    2166    2162    2161    2164
    2167    2162    2161    2164    2168    2162    2161    2164
    2166    2162    2161    2165    2167    2162    2161    2165
    2168    2162    2161    2165    2174    2170    2169    2171
    2175    2170    2169    2171    2176    2170    2169    2171
    2174    2170    2169    2172    2175    2170    2169    2172
    2176    2170    2169    2172    2174    2170    2169    2173
    2175    2170    2169    2173    2176    2170    2169    2173
    2182    2178    2177    2179    2183    2178    2177    2179
    2184    2178    2177    2179    2182    2178    2177    2180
    2183    2178    2177    2180    2184    2178    2177    2180
    2182    2178    2177    2181    2183    2178    2177    2181
    2184    2178    2177    2181    2190    2186    2185    2187
    2191    2186    2185    2187    2192    2186    2185    2187
    2190    2186    2185    2188    2191    2186    2185    2188
    2192    2186    2185    2188    2190    2186    2185    2189
    2191    2186    2185    2189    2192    2186    2185    2189
    2198    2194    2193    2195    2199    2194    2193    2195
    2200    2194    2193    2195    2198    2194    2193    2196
    2199    2194    2193    2196    2200    2194    2193    2196
    2198    2194    2193    2197    2199    2194    2193    2197
    2200    2194    2193    2197    2206    2202    2201    2203
    2207    2202    2201    2203    2208    2202    2201    2203
    2206    2202    2201    2204    2207    2202    2201    2204
    2208    2202    2201    2204    2206    2202    2201    2205
    2207    2202    2201    2205    2208    2202    2201    2205
    2214    2210    2209    2211    2215    2210    2209    2211
    2216    2210    2209    2211    2214    2210    2209    2212
    2215    2210    2209    2212    2216    2210    2209    2212
    2214    2210    2209    2213    2215    2210    2209    2213
    2216    2210    2209    2213    2222    2218    2217    2219
    2223    2218    2217    2219    2224    2218    2217    2219
    2222    2218    2217    2220    2223    2218    2217    2220
    2224    2218    2217    2220    2222    2218    2217    2221
    2223    2218    2217    2221    2224    2218    2217    2221
    2230    2226    2225    2227    2231    2226    2225    2227
    2232    2226    2225    2227    2230    2226    2225    2228
    2231    2226    2225    2228    2232    2226    2225    2228
    2230    2226    2225    2229    2231    2226    2225    2229
    2232    2226    2225    2229    2238    2234    2233    2235
    2239    2234    2233    2235    2240    2234    2233    2235
    2238    2234    2233    2236    2239    2234    2233    2236
    2240    2234    2233    2236    2238    2234    2233    2237
    2239    2234    2233    2237    2240    2234    2233    2237
    2246    2242    2241    2243    2247    2242    2241    2243
    2248    2242    2241    2243    2246    2242    2241    2244
    2247    2242    2241    2244    2248    2242    2241    2244
    2246    2242    2241    2245    2247    2242    2241    2245
    2248    2242    2241    2245    2254    2250    2249    2251
    2255    2250    2249    2251    2256    2250    2249    2251
    2254    2250    2249    2252    2255    2250    2249    2252
    2256    2250    2249    2252    2254    2250    2249    2253
    2255    2250    2249    2253    2256    2250    2249    2253
    2262    2258    2257    2259    2263    2258    2257    2259
    2264    2258    2257    2259    2262    2258    2257    2260
    2263    2258    2257    2260    2264    2258    2257    2260
    2262    2258    2257    2261    2263    2258    2257    2261
    2264    2258    2257    2261    2270    2266    2265    2267
    2271    2266    2265    2267    2272    2266    2265    2267
    2270    2266    2265    2268    2271    2266    2265    2268
    2272    2266    2265    2268    2270    2266    2265    2269
    2271    2266    2265    2269    2272    2266    2265    2269
    2278    2274    2273    2275    2279    2274    2273    2275
    2280    2274    2273    2275    2278    2274    2273    2276
    2279    2274    2273    2276    2280    2274    2273    2276
    2278    2274    2273    2277    2279    2274    2273    2277
    2280    2274    2273    2277    2286    2282    2281    2283
    2287    2282    2281    2283    2288    2282    2281    2283
    2286    2282    2281    2284    2287    2282    2281    2284
    2288    2282    2281    2284    2286    2282    2281    2285
    2287    2282    2281    2285    2288    2282    2281    2285
    2294    2290    2289    2291    2295    2290    2289    2291
    2296    2290    2289    2291    2294    2290    2289    2292
    2295    2290    2289    2292    2296    2290    2289    2292
    2294    2290    2289    2293    2295    2290    2289    2293
    2296    2290    2289    2293    2302    2298    2297    2299
    2303    2298    2297    2299    2304    2298    2297    2299
    2302    2298    2297    2300    2303    2298    2297    2300
    2304    2298    2297    2300    2302    2298    2297    2301
    2303    2298    2297    2301    2304    2298    2297    2301
    2310    2306    2305    2307    2311    2306    2305    2307
    2312    2306    2305    2307    2310    2306    2305    2308
    2311    2306    2305    2308    2312    2306    2305    2308
    2310    2306    2305    2309    2311    2306    2305    2309
    2312    2306    2305    2309    2318    2314    2313    2315
    2319    2314    2313    2315    2320    2314    2313    2315
    2318    2314    2313    2316    2319    2314    2313    2316
    2320    2314    2313    2316    2318    2314    2313    2317
    2319    2314    2313    2317    2320    2314    2313    2317
    2326    2322    2321    2323    2327    2322    2321    2323
    2328    2322    2321    2323    2326    2322    2321    2324
    2327    2322    2321    2324    2328    2322    2321    2324
    2326    2322    2321    2325    2327    2322    2321    2325
    2328    2322    2321    2325    2334    2330    2329    2331
    2335    2330    2329    2331    2336    2330    2329    2331
    2334    2330    2329    2332    2335    2330    2329    2332
    2336    2330    2329    2332    2334    2330    2329    2333
    2335    2330    2329    2333    2336    2330    2329    2333
    2342    2338    2337    2339    2343    2338    2337    2339
    2344    2338    2337    2339    2342    2338    2337    2340
    2343    2338    2337    2340    2344    2338    2337    2340
    2342    2338    2337    2341    2343    2338    2337    2341
    2344    2338    2337    2341    2350    2346    2345    2347
    2351    2346    2345    2347    2352    2346    2345    2347
    2350    2346    2345    2348    2351    2346    2345    2348
    2352    2346    2345    2348    2350    2346    2345    2349
    2351    2346    2345    2349    2352    2346    2345    2349
    2358    2354    2353    2355    2359    2354    2353    2355
    2360    2354    2353    2355    2358    2354    2353    2356
    2359    2354    2353    2356    2360    2354    2353    2356
    2358    2354    2353    2357    2359    2354    2353    2357
    2360    2354    2353    2357    2366    2362    2361    2363
    2367    2362    2361    2363    2368    2362    2361    2363
    2366    2362    2361    2364    2367    2362    2361    2364
    2368    2362    2361    2364    2366    2362    2361    2365
    2367    2362    2361    2365    2368    2362    2361    2365
    2374    2370    2369    2371    2375    2370    2369    2371
    2376    2370    2369    2371    2374    2370    2369    2372
    2375    2370    2369    2372    2376    2370    2369    2372
    2374    2370    2369    2373    2375    2370    2369    2373
    2376    2370    2369    2373    2382    2378    2377    2379
    2383    2378    2377    2379    2384    2378    2377    2379
    2382    2378    2377    2380    2383    2378    2377    2380
    2384    2378    2377    2380    2382    2378    2377    2381
    2383    2378    2377    2381    2384    2378    2377    2381
    2390    2386    2385    2387    2391    2386    2385    2387
    2392    2386    2385    2387    2390    2386    2385    2388
    2391    2386    2385    2388    2392    2386    2385    2388
    2390    2386    2385    2389    2391    2386    2385    2389
    2392    2386    2385    2389    2398    2394    2393    2395
    2399    2394    2393    2395    2400    2394    2393    2395
    2398    2394    2393    2396    2399    2394    2393    2396
    2400    2394    2393    2396    2398    2394    2393    2397
    2399    2394    2393    2397    2400    2394    2393    2397
    2406    2402    2401    2403    2407    2402    2401    2403
    2408    2402    2401    2403    2406    2402    2401    2404
    2407    2402    2401    2404    2408    2402    2401    2404
    2406    2402    2401    2405    2407    2402    2401    2405
    2408    2402    2401    2405    2414    2410    2409    2411
    2415    2410    2409    2411    2416    2410    2409    2411
    2414    2410    2409    2412    2415    2410    2409    2412
    2416    2410    2409    2412    2414    2410    2409    2413
    2415    2410    2409    2413    2416    2410    2409    2413
    2422    2418    2417    2419    2423    2418    2417    2419
    2424    2418    2417    2419    2422    2418    2417    2420
    2423    2418    2417    2420    2424    2418    2417    2420
    2422    2418    2417    2421    2423    2418    2417    2421
    2424    2418    2417    2421    2430    2426    2425    2427
    2431    2426    2425    2427    2432    2426    2425    2427
    2430    2426    2425    2428    2431    2426    2425    2428
    2432    2426    2425    2428    2430    2426    2425    2429
    2431    2426    2425    2429    2432    2426    2425    2429
    2438    2434    2433    2435    2439    2434    2433    2435
    2440    2434    2433    2435    2438    2434    2433    2436
    2439    2434    2433    2436    2440    2434    2433    2436
    2438    2434    2433    2437    2439    2434    2433    2437
    2440    2434    2433    2437    2446    2442    2441    2443
    2447    2442    2441    2443    2448    2442    2441    2443
    2446    2442    2441    2444    2447    2442    2441    2444
    2448    2442    2441    2444    2446    2442    2441    2445
    2447    2442    2441    2445    2448    2442    2441    2445
    2454    2450    2449    2451    2455    2450    2449    2451
    2456    2450    2449    2451    2454    2450    2449    2452
    2455    2450    2449    2452    2456    2450    2449    2452
    2454    2450    2449    2453    2455    2450    2449    2453
    2456    2450    2449    2453    2462    2458    2457    2459
    2463    2458    2457    2459    2464    2458    2457    2459
    2462    2458    2457    2460    2463    2458    2457    2460
    2464    2458    2457    2460    2462    2458    2457    2461
    2463    2458    2457    2461    2464    2458    2457    2461
    2470    2466    2465    2467    2471    2466    2465    2467
    2472    2466    2465    2467    2470    2466    2465    2468
    2471    2466    2465    2468    2472    2466    2465    2468
    2470    2466    2465    2469    2471    2466    2465    2469
    2472    2466    2465    2469    2478    2474    2473    2475
    2479    2474    2473    2475    2480    2474    2473    2475
    2478    2474    2473    2476    2479    2474    2473    2476
    2480    2474    2473    2476    2478    2474    2473    2477
    2479    2474    2473    2477    2480    2474    2473    2477
    2486    2482    2481    2483    2487    2482    2481    2483
    2488    2482    2481    2483    2486    2482    2481    2484
    2487    2482    2481    2484    2488    2482    2481    2484
    2486    2482    2481    2485    2487    2482    2481    2485
    2488    2482    2481    2485    2494    2490    2489    2491
    2495    2490    2489    2491    2496    2490    2489    2491
    2494    2490    2489    2492    2495    2490    2489    2492
    2496    2490    2489    2492    2494    2490    2489    2493
    2495    2490    2489    2493    2496    2490    2489    2493
    2502    2498    2497    2499    2503    2498    2497    2499
    2504    2498    2497    2499    2502    2498    2497    2500
    2503    2498    2497    2500    2504    2498    2497    2500
    2502    2498    2497    2501    2503    2498    2497    2501
    2504    2498    2497    2501    2510    2506    2505    2507
    2511    2506    2505    2507    2512    2506    2505    2507
    2510    2506    2505    2508    2511    2506    2505    2508
    2512    2506    2505    2508    2510    2506    2505    2509
    2511    2506    2505    2509    2512    2506    2505    2509
    2518    2514    2513    2515    2519    2514    2513    2515
    2520    2514    2513    2515    2518    2514    2513    2516
    2519    2514    2513    2516    2520    2514    2513    2516
    2518    2514    2513    2517    2519    2514    2513    2517
    2520    2514    2513    2517    2526    2522    2521    2523
    2527    2522    2521    2523    2528    2522    2521    2523
    2526    2522    2521    2524    2527    2522    2521    2524
    2528    2522    2521    2524    2526    2522    2521    2525
    2527    2522    2521    2525    2528    2522    2521    2525
    2534    2530    2529    2531    2535    2530    2529    2531
    2536    2530    2529    2531    2534    2530    2529    2532
    2535    2530    2529    2532    2536    2530    2529    2532
    2534    2530    2529    2533    2535    2530    2529    2533
    2536    2530    2529    2533    2542    2538    2537    2539
    2543    2538    2537    2539    2544    2538    2537    2539
    2542    2538    2537    2540    2543    2538    2537    2540
    2544    2538    2537    2540    2542    2538    2537    2541
    2543    2538    2537    2541    2544    2538    2537    2541
    2550    2546    2545    2547    2551    2546    2545    2547
    2552    2546    2545    2547    2550    2546    2545    2548
    2551    2546    2545    2548    2552    2546    2545    2548
    2550    2546    2545    2549    2551    2546    2545    2549
    2552    2546    2545    2549    2558    2554    2553    2555
    2559    2554    2553    2555    2560    2554    2553    2555
    2558    2554    2553    2556    2559    2554    2553    2556
    2560    2554    2553    2556    2558    2554    2553    2557
    2559    2554    2553    2557    2560    2554    2553    2557
    2566    2562    2561    2563    2567    2562    2561    2563
    2568    2562    2561    2563    2566    2562    2561    2564
    2567    2562    2561    2564    2568    2562    2561    2564
    2566    2562    2561    2565    2567    2562    2561    2565
    2568    2562    2561    2565    2574    2570    2569    2571
    2575    2570    2569    2571    2576    2570    2569    2571
    2574    2570    2569    2572    2575    2570    2569    2572
    2576    2570    2569    2572    2574    2570    2569    2573
    2575    2570    2569    2573    2576    2570    2569    2573
    2582    2578    2577    2579    2583    2578    2577    2579
    2584    2578    2577    2579    2582    2578    2577    2580
    2583    2578    2577    2580    2584    2578    2577    2580
    2582    2578    2577    2581    2583    2578    2577    2581
    2584    2578    2577    2581    2590    2586    2585    2587
    2591    2586    2585    2587    2592    2586    2585    2587
    2590    2586    2585    2588    2591    2586    2585    2588
    2592    2586    2585    2588    2590    2586    2585    2589
    2591    2586    2585    2589    2592    2586    2585    2589
    2598    2594    2593    2595    2599    2594    2593    2595
    2600    2594    2593    2595    2598    2594    2593    2596
    2599    2594    2593    2596    2600    2594    2593    2596
    2598    2594    2593    2597    2599    2594    2593    2597
    2600    2594    2593    2597    2606    2602    2601    2603
    2607    2602    2601    2603    2608    2602    2601    2603
    2606    2602    2601    2604    2607    2602    2601    2604
    2608    2602    2601    2604    2606    2602    2601    2605
    2607    2602    2601    2605    2608    2602    2601    2605
    2614    2610    2609    2611    2615    2610    2609    2611
    2616    2610    2609    2611    2614    2610    2609    2612
    2615    2610    2609    2612    2616    2610    2609    2612
    2614    2610    2609    2613    2615    2610    2609    2613
    2616    2610    2609    2613    2622    2618    2617    2619
    2623    2618    2617    2619    2624    2618    2617    2619
    2622    2618    2617    2620    2623    2618    2617    2620
    2624    2618    2617    2620    2622    2618    2617    2621
    2623    2618    2617    2621    2624    2618    2617    2621
    2630    2626    2625    2627    2631    2626    2625    2627
    2632    2626    2625    2627    2630    2626    2625    2628
    2631    2626    2625    2628    2632    2626    2625    2628
    2630    2626    2625    2629    2631    2626    2625    2629
    2632    2626    2625    2629    2638    2634    2633    2635
    2639    2634    2633    2635    2640    2634    2633    2635
    2638    2634    2633    2636    2639    2634    2633    2636
    2640    2634    2633    2636    2638    2634    2633    2637
    2639    2634    2633    2637    2640    2634    2633    2637
    2646    2642    2641    2643    2647    2642    2641    2643
    2648    2642    2641    2643    2646    2642    2641    2644
    2647    2642    2641    2644    2648    2642    2641    2644
    2646    2642    2641    2645    2647    2642    2641    2645
    2648    2642    2641    2645    2654    2650    2649    2651
    2655    2650    2649    2651    2656    2650    2649    2651
    2654    2650    2649    2652    2655    2650    2649    2652
    2656    2650    2649    2652    2654    2650    2649    2653
    2655    2650    2649    2653    2656    2650    2649    2653
    2662    2658    2657    2659    2663    2658    2657    2659
    2664    2658    2657    2659    2662    2658    2657    2660
    2663    2658    2657    2660    2664    2658    2657    2660
    2662    2658    2657    2661    2663    2658    2657    2661
    2664    2658    2657    2661    2670    2666    2665    2667
    2671    2666    2665    2667    2672    2666    2665    2667
    2670    2666    2665    2668    2671    2666    2665    2668
    2672    2666    2665    2668    2670    2666    2665    2669
    2671    2666    2665    2669    2672    2666    2665    2669
    2678    2674    2673    2675    2679    2674    2673    2675
    2680    2674    2673    2675    2678    2674    2673    2676
    2679    2674    2673    2676    2680    2674    2673    2676
    2678    2674    2673    2677    2679    2674    2673    2677
    2680    2674    2673    2677    2686    2682    2681    2683
    2687    2682    2681    2683    2688    2682    2681    2683
    2686    2682    2681    2684    2687    2682    2681    2684
    2688    2682    2681    2684    2686    2682    2681    2685
    2687    2682    2681    2685    2688    2682    2681    2685
    2694    2690    2689    2691    2695    2690    2689    2691
    2696    2690    2689    2691    2694    2690    2689    2692
    2695    2690    2689    2692    2696    2690    2689    2692
    2694    2690    2689    2693    2695    2690    2689    2693
    2696    2690    2689    2693    2702    2698    2697    2699
    2703    2698    2697    2699    2704    2698    2697    2699
    2702    2698    2697    2700    2703    2698    2697    2700
    2704    2698    2697    2700    2702    2698    2697    2701
    2703    2698    2697    2701    2704    2698    2697    2701
    2710    2706    2705    2707    2711    2706    2705    2707
    2712    2706    2705    2707    2710    2706    2705    2708
    2711    2706    2705    2708    2712    2706    2705    2708
    2710    2706    2705    2709    2711    2706    2705    2709
    2712    2706    2705    2709    2718    2714    2713    2715
    2719    2714    2713    2715    2720    2714    2713    2715
    2718    2714    2713    2716    2719    2714    2713    2716
    2720    2714    2713    2716    2718    2714    2713    2717
    2719    2714    2713    2717    2720    2714    2713    2717
    2726    2722    2721    2723    2727    2722    2721    2723
    2728    2722    2721    2723    2726    2722    2721    2724
    2727    2722    2721    2724    2728    2722    2721    2724
    2726    2722    2721    2725    2727    2722    2721    2725
    2728    2722    2721    2725    2734    2730    2729    2731
    2735    2730    2729    2731    2736    2730    2729    2731
    2734    2730    2729    2732    2735    2730    2729    2732
    2736    2730    2729    2732    2734    2730    2729    2733
    2735    2730    2729    2733    2736    2730    2729    2733
    2742    2738    2737    2739    2743    2738    2737    2739
    2744    2738    2737    2739    2742    2738    2737    2740
    2743    2738    2737    2740    2744    2738    2737    2740
    2742    2738    2737    2741    2743    2738    2737    2741
    2744    2738    2737    2741    2750    2746    2745    2747
    2751    2746    2745    2747    2752    2746    2745    2747
    2750    2746    2745    2748    2751    2746    2745    2748
    2752    2746    2745    2748    2750    2746    2745    2749
    2751    2746    2745    2749    2752    2746    2745    2749
    2758    2754    2753    2755    2759    2754    2753    2755
    2760    2754    2753    2755    2758    2754    2753    2756
    2759    2754    2753    2756    2760    2754    2753    2756
    2758    2754    2753    2757    2759    2754    2753    2757
    2760    2754    2753    2757    2766    2762    2761    2763
    2767    2762    2761    2763    2768    2762    2761    2763
    2766    2762    2761    2764    2767    2762    2761    2764
    2768    2762    2761    2764    2766    2762    2761    2765
    2767    2762    2761    2765    2768    2762    2761    2765
    2774    2770    2769    2771    2775    2770    2769    2771
    2776    2770    2769    2771    2774    2770    2769    2772
    2775    2770    2769    2772    2776    2770    2769    2772
    2774    2770    2769    2773    2775    2770    2769    2773
    2776    2770    2769    2773    2782    2778    2777    2779
    2783    2778    2777    2779    2784    2778    2777    2779
    2782    2778    2777    2780    2783    2778    2777    2780
    2784    2778    2777    2780    2782    2778    2777    2781
    2783    2778    2777    2781    2784    2778    2777    2781
    2790    2786    2785    2787    2791    2786    2785    2787
    2792    2786    2785    2787    2790    2786    2785    2788
    2791    2786    2785    2788    2792    2786    2785    2788
    2790    2786    2785    2789    2791    2786    2785    2789
    2792    2786    2785    2789    2798    2794    2793    2795
    2799    2794    2793    2795    2800    2794    2793    2795
    2798    2794    2793    2796    2799    2794    2793    2796
    2800    2794    2793    2796    2798    2794    2793    2797
    2799    2794    2793    2797    2800    2794    2793    2797
    2806    2802    2801    2803    2807    2802    2801    2803
    2808    2802    2801    2803    2806    2802    2801    2804
    2807    2802    2801    2804    2808    2802    2801    2804
    2806    2802    2801    2805    2807    2802    2801    2805
    2808    2802    2801    2805    2814    2810    2809    2811
    2815    2810    2809    2811    2816    2810    2809    2811
    2814    2810    2809    2812    2815    2810    2809    2812
    2816    2810    2809    2812    2814    2810    2809    2813
    2815    2810    2809    2813    2816    2810    2809    2813
    2822    2818    2817    2819    2823    2818    2817    2819
    2824    2818    2817    2819    2822    2818    2817    2820
    2823    2818    2817    2820    2824    2818    2817    2820
    2822    2818    2817    2821    2823    2818    2817    2821
    2824    2818    2817    2821    2830    2826    2825    2827
    2831    2826    2825    2827    2832    2826    2825    2827
    2830    2826    2825    2828    2831    2826    2825    2828
    2832    2826    2825    2828    2830    2826    2825    2829
    2831    2826    2825    2829    2832    2826    2825    2829
    2838    2834    2833    2835    2839    2834    2833    2835
    2840    2834    2833    2835    2838    2834    2833    2836
    2839    2834    2833    2836    2840    2834    2833    2836
    2838    2834    2833    2837    2839    2834    2833    2837
    2840    2834    2833    2837    2846    2842    2841    2843
    2847    2842    2841    2843    2848    2842    2841    2843
    2846    2842    2841    2844    2847    2842    2841    2844
    2848    2842    2841    2844    2846    2842    2841    2845
    2847    2842    2841    2845    2848    2842    2841    2845
    2854    2850    2849    2851    2855    2850    2849    2851
    2856    2850    2849    2851    2854    2850    2849    2852
    2855    2850    2849    2852    2856    2850    2849    2852
    2854    2850    2849    2853    2855    2850    2849    2853
    2856    2850    2849    2853    2862    2858    2857    2859
    2863    2858    2857    2859    2864    2858    2857    2859
    2862    2858    2857    2860    2863    2858    2857    2860
    2864    2858    2857    2860    2862    2858    2857    2861
    2863    2858    2857    2861    2864    2858    2857    2861
    2870    2866    2865    2867    2871    2866    2865    2867
    2872    2866    2865    2867    2870    2866    2865    2868
    2871    2866    2865    2868    2872    2866    2865    2868
    2870    2866    2865    2869    2871    2866    2865    2869
    2872    2866    2865    2869    2878    2874    2873    2875
    2879    2874    2873    2875    2880    2874    2873    2875
    2878    2874    2873    2876    2879    2874    2873    2876
    2880    2874    2873    2876    2878    2874    2873    2877
    2879    2874    2873    2877    2880    2874    2873    2877
    2886    2882    2881    2883    2887    2882    2881    2883
    2888    2882    2881    2883    2886    2882    2881    2884
    2887    2882    2881    2884    2888    2882    2881    2884
    2886    2882    2881    2885    2887    2882    2881    2885
    2888    2882    2881    2885    2894    2890    2889    2891
    2895    2890    2889    2891    2896    2890    2889    2891
    2894    2890    2889    2892    2895    2890    2889    2892
    2896    2890    2889    2892    2894    2890    2889    2893
    2895    2890    2889    2893    2896    2890    2889    2893
    2902    2898    2897    2899    2903    2898    2897    2899
    2904    2898    2897    2899    2902    2898    2897    2900
    2903    2898    2897    2900    2904    2898    2897    2900
    2902    2898    2897    2901    2903    2898    2897    2901
    2904    2898    2897    2901    2910    2906    2905    2907
    2911    2906    2905    2907    2912    2906    2905    2907
    2910    2906    2905    2908    2911    2906    2905    2908
    2912    2906    2905    2908    2910    2906    2905    2909
    2911    2906    2905    2909    2912    2906    2905    2909
    2918    2914    2913    2915    2919    2914    2913    2915
    2920    2914    2913    2915    2918    2914    2913    2916
    2919    2914    2913    2916    2920    2914    2913    2916
    2918    2914    2913    2917    2919    2914    2913    2917
    2920    2914    2913    2917    2926    2922    2921    2923
    2927    2922    2921    2923    2928    2922    2921    2923
    2926    2922    2921    2924    2927    2922    2921    2924
    2928    2922    2921    2924    2926    2922    2921    2925
    2927    2922    2921    2925    2928    2922    2921    2925
    2934    2930    2929    2931    2935    2930    2929    2931
    2936    2930    2929    2931    2934    2930    2929    2932
    2935    2930    2929    2932    2936    2930    2929    2932
    2934    2930    2929    2933    2935    2930    2929    2933
    2936    2930    2929    2933    2942    2938    2937    2939
    2943    2938    2937    2939    2944    2938    2937    2939
    2942    2938    2937    2940    2943    2938    2937    2940
    2944    2938    2937    2940    2942    2938    2937    2941
    2943    2938    2937    2941    2944    2938    2937    2941
    2950    2946    2945    2947    2951    2946    2945    2947
    2952    2946    2945    2947    2950    2946    2945    2948
    2951    2946    2945    2948    2952    2946    2945    2948
    2950    2946    2945    2949    2951    2946    2945    2949
    2952    2946    2945    2949    2958    2954    2953    2955
    2959    2954    2953    2955    2960    2954    2953    2955
    2958    2954    2953    2956    2959    2954    2953    2956
    2960    2954    2953    2956    2958    2954    2953    2957
    2959    2954    2953    2957    2960    2954    2953    2957
    2966    2962    2961    2963    2967    2962    2961    2963
    2968    2962    2961    2963    2966    2962    2961    2964
    2967    2962    2961    2964    2968    2962    2961    2964
    2966    2962    2961    2965    2967    2962    2961    2965
    2968    2962    2961    2965    2974    2970    2969    2971
    2975    2970    2969    2971    2976    2970    2969    2971
    2974    2970    2969    2972    2975    2970    2969    2972
    2976    2970    2969    2972    2974    2970    2969    2973
    2975    2970    2969    2973    2976    2970    2969    2973
    2982    2978    2977    2979    2983    2978    2977    2979
    2984    2978    2977    2979    2982    2978    2977    2980
    2983    2978    2977    2980    2984    2978    2977    2980
    2982    2978    2977    2981    2983    2978    2977    2981
    2984    2978    2977    2981    2990    2986    2985    2987
    2991    2986    2985    2987    2992    2986    2985    2987
    2990    2986    2985    2988    2991    2986    2985    2988
    2992    2986    2985    2988    2990    2986    2985    2989
    2991    2986    2985    2989    2992    2986    2985    2989
    2998    2994    2993    2995    2999    2994    2993    2995
    3000    2994    2993    2995    2998    2994    2993    2996
    2999    2994    2993    2996    3000    2994    2993    2996
    2998    2994    2993    2997    2999    2994    2993    2997
    3000    2994    2993    2997    3006    3002    3001    3003
    3007    3002    3001    3003    3008    3002    3001    3003
    3006    3002    3001    3004    3007    3002    3001    3004
    3008    3002    3001    3004    3006    3002    3001    3005
    3007    3002    3001    3005    3008    3002    3001    3005
    3014    3010    3009    3011    3015    3010    3009    3011
    3016    3010    3009    3011    3014    3010    3009    3012
    3015    3010    3009    3012    3016    3010    3009    3012
    3014    3010    3009    3013    3015    3010    3009    3013
    3016    3010    3009    3013    3022    3018    3017    3019
    3023    3018    3017    3019    3024    3018    3017    3019
    3022    3018    3017    3020    3023    3018    3017    3020
    3024    3018    3017    3020    3022    3018    3017    3021
    3023    3018    3017    3021    3024    3018    3017    3021
    3030    3026    3025    3027    3031    3026    3025    3027
    3032    3026    3025    3027    3030    3026    3025    3028
    3031    3026    3025    3028    3032    3026    3025    3028
    3030    3026    3025    3029    3031    3026    3025    3029
    3032    3026    3025    3029    3038    3034    3033    3035
    3039    3034    3033    3035    3040    3034    3033    3035
    3038    3034    3033    3036    3039    3034    3033    3036
    3040    3034    3033    3036    3038    3034    3033    3037
    3039    3034    3033    3037    3040    3034    3033    3037
    3046    3042    3041    3043    3047    3042    3041    3043
    3048    3042    3041    3043    3046    3042    3041    3044
    3047    3042    3041    3044    3048    3042    3041    3044
    3046    3042    3041    3045    3047    3042    3041    3045
    3048    3042    3041    3045    3054    3050    3049    3051
    3055    3050    3049    3051    3056    3050    3049    3051
    3054    3050    3049    3052    3055    3050    3049    3052
    3056    3050    3049    3052    3054    3050    3049    3053
    3055    3050    3049    3053    3056    3050    3049    3053
    3062    3058    3057    3059    3063    3058    3057    3059
    3064    3058    3057    3059    3062    3058    3057    3060
    3063    3058    3057    3060    3064    3058    3057    3060
    3062    3058    3057    3061    3063    3058    3057    3061
    3064    3058    3057    3061    3070    3066    3065    3067
    3071    3066    3065    3067    3072    3066    3065    3067
    3070    3066    3065    3068    3071    3066    3065    3068
    3072    3066    3065    3068    3070    3066    3065    3069
    3071    3066    3065    3069    3072    3066    3065    3069
    3078    3074    3073    3075    3079    3074    3073    3075
    3080    3074    3073    3075    3078    3074    3073    3076
    3079    3074    3073    3076    3080    3074    3073    3076
    3078    3074    3073    3077    3079    3074    3073    3077
    3080    3074    3073    3077    3086    3082    3081    3083
    3087    3082    3081    3083    3088    3082    3081    3083
    3086    3082    3081    3084    3087    3082    3081    3084
    3088    3082    3081    3084    3086    3082    3081    3085
    3087    3082    3081    3085    3088    3082    3081    3085
    3094    3090    3089    3091    3095    3090    3089    3091
    3096    3090    3089    3091    3094    3090    3089    3092
    3095    3090    3089    3092    3096    3090    3089    3092
    3094    3090    3089    3093    3095    3090    3089    3093
    3096    3090    3089    3093    3102    3098    3097    3099
    3103    3098    3097    3099    3104    3098    3097    3099
    3102    3098    3097    3100    3103    3098    3097    3100
    3104    3098    3097    3100    3102    3098    3097    3101
    3103    3098    3097    3101    3104    3098    3097    3101
    3110    3106    3105    3107    3111    3106    3105    3107
    3112    3106    3105    3107    3110    3106    3105    3108
    3111    3106    3105    3108    3112    3106    3105    3108
    3110    3106    3105    3109    3111    3106    3105    3109
    3112    3106    3105    3109    3118    3114    3113    3115
    3119    3114    3113    3115    3120    3114    3113    3115
    3118    3114    3113    3116    3119    3114    3113    3116
    3120    3114    3113    3116    3118    3114    3113    3117
    3119    3114    3113    3117    3120    3114    3113    3117
    3126    3122    3121    3123    3127    3122    3121    3123
    3128    3122    3121    3123    3126    3122    3121    3124
    3127    3122    3121    3124    3128    3122    3121    3124
    3126    3122    3121    3125    3127    3122    3121    3125
    3128    3122    3121    3125    3134    3130    3129    3131
    3135    3130    3129    3131    3136    3130    3129    3131
    3134    3130    3129    3132    3135    3130    3129    3132
    3136    3130    3129    3132    3134    3130    3129    3133
    3135    3130    3129    3133    3136    3130    3129    3133
    3142    3138    3137    3139    3143    3138    3137    3139
    3144    3138    3137    3139    3142    3138    3137    3140
    3143    3138    3137    3140    3144    3138    3137    3140
    3142    3138    3137    3141    3143    3138    3137    3141
    3144    3138    3137    3141    3150    3146    3145    3147
    3151    3146    3145    3147    3152    3146    3145    3147
    3150    3146    3145    3148    3151    3146    3145    3148
    3152    3146    3145    3148    3150    3146    3145    3149
    3151    3146    3145    3149    3152    3146    3145    3149
    3158    3154    3153    3155    3159    3154    3153    3155
    3160    3154    3153    3155    3158    3154    3153    3156
    3159    3154    3153    3156    3160    3154    3153    3156
    3158    3154    3153    3157    3159    3154    3153    3157
    3160    3154    3153    3157    3166    3162    3161    3163
    3167    3162    3161    3163    3168    3162    3161    3163
    3166    3162    3161    3164    3167    3162    3161    3164
    3168    3162    3161    3164    3166    3162    3161    3165
    3167    3162    3161    3165    3168    3162    3161    3165
    3174    3170    3169    3171    3175    3170    3169    3171
    3176    3170    3169    3171    3174    3170    3169    3172
    3175    3170    3169    3172    3176    3170    3169    3172
    3174    3170    3169    3173    3175    3170    3169    3173
    3176    3170    3169    3173    3182    3178    3177    3179
    3183    3178    3177    3179    3184    3178    3177    3179
    3182    3178    3177    3180    3183    3178    3177    3180
    3184    3178    3177    3180    3182    3178    3177    3181
    3183    3178    3177    3181    3184    3178    3177    3181
    3190    3186    3185    3187    3191    3186    3185    3187
    3192    3186    3185    3187    3190    3186    3185    3188
    3191    3186    3185    3188    3192    3186    3185    3188
    3190    3186    3185    3189    3191    3186    3185    3189
    3192    3186    3185    3189    3198    3194    3193    3195
    3199    3194    3193    3195    3200    3194    3193    3195
    3198    3194    3193    3196    3199    3194    3193    3196
    3200    3194    3193    3196    3198    3194    3193    3197
    3199    3194    3193    3197    3200    3194    3193    3197
    3206    3202    3201    3203    3207    3202    3201    3203
    3208    3202    3201    3203    3206    3202    3201    3204
    3207    3202    3201    3204    3208    3202    3201    3204
    3206    3202    3201    3205    3207    3202    3201    3205
    3208    3202    3201    3205    3214    3210    3209    3211
    3215    3210    3209    3211    3216    3210    3209    3211
    3214    3210    3209    3212    3215    3210    3209    3212
    3216    3210    3209    3212    3214    3210    3209    3213
    3215    3210    3209    3213    3216    3210    3209    3213
    3222    3218    3217    3219    3223    3218    3217    3219
    3224    3218    3217    3219    3222    3218    3217    3220
    3223    3218    3217    3220    3224    3218    3217    3220
    3222    3218    3217    3221    3223    3218    3217    3221
    3224    3218    3217    3221    3230    3226    3225    3227
    3231    3226    3225    3227    3232    3226    3225    3227
    3230    3226    3225    3228    3231    3226    3225    3228
    3232    3226    3225    3228    3230    3226    3225    3229
    3231    3226    3225    3229    3232    3226    3225    3229
    3238    3234    3233    3235    3239    3234    3233    3235
    3240    3234    3233    3235    3238    3234    3233    3236
    3239    3234    3233    3236    3240    3234    3233    3236
    3238    3234    3233    3237    3239    3234    3233    3237
    3240    3234    3233    3237    3246    3242    3241    3243
    3247    3242    3241    3243    3248    3242    3241    3243
    3246    3242    3241    3244    3247    3242    3241    3244
    3248    3242    3241    3244    3246    3242    3241    3245
    3247    3242    3241    3245    3248    3242    3241    3245
    3254    3250    3249    3251    3255    3250    3249    3251
    3256    3250    3249    3251    3254    3250    3249    3252
    3255    3250    3249    3252    3256    3250    3249    3252
    3254    3250    3249    3253    3255    3250    3249    3253
    3256    3250    3249    3253    3262    3258    3257    3259
    3263    3258    3257    3259    3264    3258    3257    3259
    3262    3258    3257    3260    3263    3258    3257    3260
    3264    3258    3257    3260    3262    3258    3257    3261
    3263    3258    3257    3261    3264    3258    3257    3261
    3270    3266    3265    3267    3271    3266    3265    3267
    3272    3266    3265    3267    3270    3266    3265    3268
    3271    3266    3265    3268    3272    3266    3265    3268
    3270    3266    3265    3269    3271    3266    3265    3269
    3272    3266    3265    3269    3278    3274    3273    3275
    3279    3274    3273    3275    3280    3274    3273    3275
    3278    3274    3273    3276    3279    3274    3273    3276
    3280    3274    3273    3276    3278    3274    3273    3277
    3279    3274    3273    3277    3280    3274    3273    3277
    3286    3282    3281    3283    3287    3282    3281    3283
    3288    3282    3281    3283    3286    3282    3281    3284
    3287    3282    3281    3284    3288    3282    3281    3284
    3286    3282    3281    3285    3287    3282    3281    3285
    3288    3282    3281    3285    3294    3290    3289    3291
    3295    3290    3289    3291    3296    3290    3289    3291
    3294    3290    3289    3292    3295    3290    3289    3292
    3296    3290    3289    3292    3294    3290    3289    3293
    3295    3290    3289    3293    3296    3290    3289    3293
    3302    3298    3297    3299    3303    3298    3297    3299
    3304    3298    3297    3299    3302    3298    3297    3300
    3303    3298    3297    3300    3304    3298    3297    3300
    3302    3298    3297    3301    3303    3298    3297    3301
    3304    3298    3297    3301    3310    3306    3305    3307
    3311    3306    3305    3307    3312    3306    3305    3307
    3310    3306    3305    3308    3311    3306    3305    3308
    3312    3306    3305    3308    3310    3306    3305    3309
    3311    3306    3305    3309    3312    3306    3305    3309
    3318    3314    3313    3315    3319    3314    3313    3315
    3320    3314    3313    3315    3318    3314    3313    3316
    3319    3314    3313    3316    3320    3314    3313    3316
    3318    3314    3313    3317    3319    3314    3313    3317
    3320    3314    3313    3317    3326    3322    3321    3323
    3327    3322    3321    3323    3328    3322    3321    3323
    3326    3322    3321    3324    3327    3322    3321    3324
    3328    3322    3321    3324    3326    3322    3321    3325
    3327    3322    3321    3325    3328    3322    3321    3325
    3334    3330    3329    3331    3335    3330    3329    3331
    3336    3330    3329    3331    3334    3330    3329    3332
    3335    3330    3329    3332    3336    3330    3329    3332
    3334    3330    3329    3333    3335    3330    3329    3333
    3336    3330    3329    3333    3342    3338    3337    3339
    3343    3338    3337    3339    3344    3338    3337    3339
    3342    3338    3337    3340    3343    3338    3337    3340
    3344    3338    3337    3340    3342    3338    3337    3341
    3343    3338    3337    3341    3344    3338    3337    3341
    3350    3346    3345    3347    3351    3346    3345    3347
    3352    3346    3345    3347    3350    3346    3345    3348
    3351    3346    3345    3348    3352    3346    3345    3348
    3350    3346    3345    3349    3351    3346    3345    3349
    3352    3346    3345    3349    3358    3354    3353    3355
    3359    3354    3353    3355    3360    3354    3353    3355
    3358    3354    3353    3356    3359    3354    3353    3356
    3360    3354    3353    3356    3358    3354    3353    3357
    3359    3354    3353    3357    3360    3354    3353    3357
    3366    3362    3361    3363    3367    3362    3361    3363
    3368    3362    3361    3363    3366    3362    3361    3364
    3367    3362    3361    3364    3368    3362    3361    3364
    3366    3362    3361    3365    3367    3362    3361    3365
    3368    3362    3361    3365    3374    3370    3369    3371
    3375    3370    3369    3371    3376    3370    3369    3371
    3374    3370    3369    3372    3375    3370    3369    3372
    3376    3370    3369    3372    3374    3370    3369    3373
    3375    3370    3369    3373    3376    3370    3369    3373
    3382    3378    3377    3379    3383    3378    3377    3379
    3384    3378    3377    3379    3382    3378    3377    3380
    3383    3378    3377    3380    3384    3378    3377    3380
    3382    3378    3377    3381    3383    3378    3377    3381
    3384    3378    3377    3381    3390    3386    3385    3387
    3391    3386    3385    3387    3392    3386    3385    3387
    3390    3386    3385    3388    3391    3386    3385    3388
    3392    3386    3385    3388    3390    3386    3385    3389
    3391    3386    3385    3389    3392    3386    3385    3389
    3398    3394    3393    3395    3399    3394    3393    3395
    3400    3394    3393    3395    3398    3394    3393    3396
    3399    3394    3393    3396    3400    3394    3393    3396
    3398    3394    3393    3397    3399    3394    3393    3397
    3400    3394    3393    3397    3406    3402    3401    3403
    3407    3402    3401    3403    3408    3402    3401    3403
    3406    3402    3401    3404    3407    3402    3401    3404
    3408    3402    3401    3404    3406    3402    3401    3405
    3407    3402    3401    3405    3408    3402    3401    3405
    3414    3410    3409    3411    3415    3410    3409    3411
    3416    3410    3409    3411    3414    3410    3409    3412
    3415    3410    3409    3412    3416    3410    3409    3412
    3414    3410    3409    3413    3415    3410    3409    3413
    3416    3410    3409    3413    3422    3418    3417    3419
    3423    3418    3417    3419    3424    3418    3417    3419
    3422    3418    3417    3420    3423    3418    3417    3420
    3424    3418    3417    3420    3422    3418    3417    3421
    3423    3418    3417    3421    3424    3418    3417    3421
    3430    3426    3425    3427    3431    3426    3425    3427
    3432    3426    3425    3427    3430    3426    3425    3428
    3431    3426    3425    3428    3432    3426    3425    3428
    3430    3426    3425    3429    3431    3426    3425    3429
    3432    3426    3425    3429    3438    3434    3433    3435
    3439    3434    3433    3435    3440    3434    3433    3435
    3438    3434    3433    3436    3439    3434    3433    3436
    3440    3434    3433    3436    3438    3434    3433    3437
    3439    3434    3433    3437    3440    3434    3433    3437
    3446    3442    3441    3443    3447    3442    3441    3443
    3448    3442    3441    3443    3446    3442    3441    3444
    3447    3442    3441    3444    3448    3442    3441    3444
    3446    3442    3441    3445    3447    3442    3441    3445
    3448    3442    3441    3445    3454    3450    3449    3451
    3455    3450    3449    3451    3456    3450    3449    3451
    3454    3450    3449    3452    3455    3450    3449    3452
    3456    3450    3449    3452    3454    3450    3449    3453
    3455    3450    3449    3453    3456    3450    3449    3453
    3462    3458    3457    3459    3463    3458    3457    3459
    3464    3458    3457    3459    3462    3458    3457    3460
    3463    3458    3457    3460    3464    3458    3457    3460
    3462    3458    3457    3461    3463    3458    3457    3461
    3464    3458    3457    3461    3470    3466    3465    3467
    3471    3466    3465    3467    3472    3466    3465    3467
    3470    3466    3465    3468    3471    3466    3465    3468
    3472    3466    3465    3468    3470    3466    3465    3469
    3471    3466    3465    3469    3472    3466    3465    3469
    3478    3474    3473    3475    3479    3474    3473    3475
    3480    3474    3473    3475    3478    3474    3473    3476
    3479    3474    3473    3476    3480    3474    3473    3476
    3478    3474    3473    3477    3479    3474    3473    3477
    3480    3474    3473    3477    3486    3482    3481    3483
    3487    3482    3481    3483    3488    3482    3481    3483
    3486    3482    3481    3484    3487    3482    3481    3484
    3488    3482    3481    3484    3486    3482    3481    3485
    3487    3482    3481    3485    3488    3482    3481    3485
    3494    3490    3489    3491    3495    3490    3489    3491
    3496    3490    3489    3491    3494    3490    3489    3492
    3495    3490    3489    3492    3496    3490    3489    3492
    3494    3490    3489    3493    3495    3490    3489    3493
    3496    3490    3489    3493    3502    3498    3497    3499
    3503    3498    3497    3499    3504    3498    3497    3499
    3502    3498    3497    3500    3503    3498    3497    3500
    3504    3498    3497    3500    3502    3498    3497    3501
    3503    3498    3497    3501    3504    3498    3497    3501
    3510    3506    3505    3507    3511    3506    3505    3507
    3512    3506    3505    3507    3510    3506    3505    3508
    3511    3506    3505    3508    3512    3506    3505    3508
    3510    3506    3505    3509    3511    3506    3505    3509
    3512    3506    3505    3509    3518    3514    3513    3515
    3519    3514    3513    3515    3520    3514    3513    3515
    3518    3514    3513    3516    3519    3514    3513    3516
    3520    3514    3513    3516    3518    3514    3513    3517
    3519    3514    3513    3517    3520    3514    3513    3517
    3526    3522    3521    3523    3527    3522    3521    3523
    3528    3522    3521    3523    3526    3522    3521    3524
    3527    3522    3521    3524    3528    3522    3521    3524
    3526    3522    3521    3525    3527    3522    3521    3525
    3528    3522    3521    3525    3534    3530    3529    3531
    3535    3530    3529    3531    3536    3530    3529    3531
    3534    3530    3529    3532    3535    3530    3529    3532
    3536    3530    3529    3532    3534    3530    3529    3533
    3535    3530    3529    3533    3536    3530    3529    3533
    3542    3538    3537    3539    3543    3538    3537    3539
    3544    3538    3537    3539    3542    3538    3537    3540
    3543    3538    3537    3540    3544    3538    3537    3540
    3542    3538    3537    3541    3543    3538    3537    3541
    3544    3538    3537    3541    3550    3546    3545    3547
    3551    3546    3545    3547    3552    3546    3545    3547
    3550    3546    3545    3548    3551    3546    3545    3548
    3552    3546    3545    3548    3550    3546    3545    3549
    3551    3546    3545    3549    3552    3546    3545    3549
    3558    3554    3553    3555    3559    3554    3553    3555
    3560    3554    3553    3555    3558    3554    3553    3556
    3559    3554    3553    3556    3560    3554    3553    3556
    3558    3554    3553    3557    3559    3554    3553    3557
    3560    3554    3553    3557    3566    3562    3561    3563
    3567    3562    3561    3563    3568    3562    3561    3563
    3566    3562    3561    3564    3567    3562    3561    3564
    3568    3562    3561    3564    3566    3562    3561    3565
    3567    3562    3561    3565    3568    3562    3561    3565
    3574    3570    3569    3571    3575    3570    3569    3571
    3576    3570    3569    3571    3574    3570    3569    3572
    3575    3570    3569    3572    3576    3570    3569    3572
    3574    3570    3569    3573    3575    3570    3569    3573
    3576    3570    3569    3573    3582    3578    3577    3579
    3583    3578    3577    3579    3584    3578    3577    3579
    3582    3578    3577    3580    3583    3578    3577    3580
    3584    3578    3577    3580    3582    3578    3577    3581
    3583    3578    3577    3581    3584    3578    3577    3581
    3590    3586    3585    3587    3591    3586    3585    3587
    3592    3586    3585    3587    3590    3586    3585    3588
    3591    3586    3585    3588    3592    3586    3585    3588
    3590    3586    3585    3589    3591    3586    3585    3589
    3592    3586    3585    3589    3598    3594    3593    3595
    3599    3594    3593    3595    3600    3594    3593    3595
    3598    3594    3593    3596    3599    3594    3593    3596
    3600    3594    3593    3596    3598    3594    3593    3597
    3599    3594    3593    3597    3600    3594    3593    3597
    3606    3602    3601    3603    3607    3602    3601    3603
    3608    3602    3601    3603    3606    3602    3601    3604
    3607    3602    3601    3604    3608    3602    3601    3604
    3606    3602    3601    3605    3607    3602    3601    3605
    3608    3602    3601    3605    3614    3610    3609    3611
    3615    3610    3609    3611    3616    3610    3609    3611
    3614    3610    3609    3612    3615    3610    3609    3612
    3616    3610    3609    3612    3614    3610    3609    3613
    3615    3610    3609    3613    3616    3610    3609    3613
    3622    3618    3617    3619    3623    3618    3617    3619
    3624    3618    3617    3619    3622    3618    3617    3620
    3623    3618    3617    3620    3624    3618    3617    3620
    3622    3618    3617    3621    3623    3618    3617    3621
    3624    3618    3617    3621    3630    3626    3625    3627
    3631    3626    3625    3627    3632    3626    3625    3627
    3630    3626    3625    3628    3631    3626    3625    3628
    3632    3626    3625    3628    3630    3626    3625    3629
    3631    3626    3625    3629    3632    3626    3625    3629
    3638    3634    3633    3635    3639    3634    3633    3635
    3640    3634    3633    3635    3638    3634    3633    3636
    3639    3634    3633    3636    3640    3634    3633    3636
    3638    3634    3633    3637    3639    3634    3633    3637
    3640    3634    3633    3637    3646    3642    3641    3643
    3647    3642    3641    3643    3648    3642    3641    3643
    3646    3642    3641    3644    3647    3642    3641    3644
    3648    3642    3641    3644    3646    3642    3641    3645
    3647    3642    3641    3645    3648    3642    3641    3645
    3654    3650    3649    3651    3655    3650    3649    3651
    3656    3650    3649    3651    3654    3650    3649    3652
    3655    3650    3649    3652    3656    3650    3649    3652
    3654    3650    3649    3653    3655    3650    3649    3653
    3656    3650    3649    3653    3662    3658    3657    3659
    3663    3658    3657    3659    3664    3658    3657    3659
    3662    3658    3657    3660    3663    3658    3657    3660
    3664    3658    3657    3660    3662    3658    3657    3661
    3663    3658    3657    3661    3664    3658    3657    3661
    3670    3666    3665    3667    3671    3666    3665    3667
    3672    3666    3665    3667    3670    3666    3665    3668
    3671    3666    3665    3668    3672    3666    3665    3668
    3670    3666    3665    3669    3671    3666    3665    3669
    3672    3666    3665    3669    3678    3674    3673    3675
    3679    3674    3673    3675    3680    3674    3673    3675
    3678    3674    3673    3676    3679    3674    3673    3676
    3680    3674    3673    3676    3678    3674    3673    3677
    3679    3674    3673    3677    3680    3674    3673    3677
    3686    3682    3681    3683    3687    3682    3681    3683
    3688    3682    3681    3683    3686    3682    3681    3684
    3687    3682    3681    3684    3688    3682    3681    3684
    3686    3682    3681    3685    3687    3682    3681    3685
    3688    3682    3681    3685    3694    3690    3689    3691
    3695    3690    3689    3691    3696    3690    3689    3691
    3694    3690    3689    3692    3695    3690    3689    3692
    3696    3690    3689    3692    3694    3690    3689    3693
    3695    3690    3689    3693    3696    3690    3689    3693
    3702    3698    3697    3699    3703    3698    3697    3699
    3704    3698    3697    3699    3702    3698    3697    3700
    3703    3698    3697    3700    3704    3698    3697    3700
    3702    3698    3697    3701    3703    3698    3697    3701
    3704    3698    3697    3701    3710    3706    3705    3707
    3711    3706    3705    3707    3712    3706    3705    3707
    3710    3706    3705    3708    3711    3706    3705    3708
    3712    3706    3705    3708    3710    3706    3705    3709
    3711    3706    3705    3709    3712    3706    3705    3709
    3718    3714    3713    3715    3719    3714    3713    3715
    3720    3714    3713    3715    3718    3714    3713    3716
    3719    3714    3713    3716    3720    3714    3713    3716
    3718    3714    3713    3717    3719    3714    3713    3717
    3720    3714    3713    3717    3726    3722    3721    3723
    3727    3722    3721    3723    3728    3722    3721    3723
    3726    3722    3721    3724    3727    3722    3721    3724
    3728    3722    3721    3724    3726    3722    3721    3725
    3727    3722    3721    3725    3728    3722    3721    3725
    3734    3730    3729    3731    3735    3730    3729    3731
    3736    3730    3729    3731    3734    3730    3729    3732
    3735    3730    3729    3732    3736    3730    3729    3732
    3734    3730    3729    3733    3735    3730    3729    3733
    3736    3730    3729    3733    3742    3738    3737    3739
    3743    3738    3737    3739    3744    3738    3737    3739
    3742    3738    3737    3740    3743    3738    3737    3740
    3744    3738    3737    3740    3742    3738    3737    3741
    3743    3738    3737    3741    3744    3738    3737    3741
    3750    3746    3745    3747    3751    3746    3745    3747
    3752    3746    3745    3747    3750    3746    3745    3748
    3751    3746    3745    3748    3752    3746    3745    3748
    3750    3746    3745    3749    3751    3746    3745    3749
    3752    3746    3745    3749    3758    3754    3753    3755
    3759    3754    3753    3755    3760    3754    3753    3755
    3758    3754    3753    3756    3759    3754    3753    3756
    3760    3754    3753    3756    3758    3754    3753    3757
    3759    3754    3753    3757    3760    3754    3753    3757
    3766    3762    3761    3763    3767    3762    3761    3763
    3768    3762    3761    3763    3766    3762    3761    3764
    3767    3762    3761    3764    3768    3762    3761    3764
    3766    3762    3761    3765    3767    3762    3761    3765
    3768    3762    3761    3765    3774    3770    3769    3771
    3775    3770    3769    3771    3776    3770    3769    3771
    3774    3770    3769    3772    3775    3770    3769    3772
    3776    3770    3769    3772    3774    3770    3769    3773
    3775    3770    3769    3773    3776    3770    3769    3773
    3782    3778    3777    3779    3783    3778    3777    3779
    3784    3778    3777    3779    3782    3778    3777    3780
    3783    3778    3777    3780    3784    3778    3777    3780
    3782    3778    3777    3781    3783    3778    3777    3781
    3784    3778    3777    3781    3790    3786    3785    3787
    3791    3786    3785    3787    3792    3786    3785    3787
    3790    3786    3785    3788    3791    3786    3785    3788
    3792    3786    3785    3788    3790    3786    3785    3789
    3791    3786    3785    3789    3792    3786    3785    3789
    3798    3794    3793    3795    3799    3794    3793    3795
    3800    3794    3793    3795    3798    3794    3793    3796
    3799    3794    3793    3796    3800    3794    3793    3796
    3798    3794    3793    3797    3799    3794    3793    3797
    3800    3794    3793    3797    3806    3802    3801    3803
    3807    3802    3801    3803    3808    3802    3801    3803
    3806    3802    3801    3804    3807    3802    3801    3804
    3808    3802    3801    3804    3806    3802    3801    3805
    3807    3802    3801    3805    3808    3802    3801    3805
    3814    3810    3809    3811    3815    3810    3809    3811
    3816    3810    3809    3811    3814    3810    3809    3812
    3815    3810    3809    3812    3816    3810    3809    3812
    3814    3810    3809    3813    3815    3810    3809    3813
    3816    3810    3809    3813    3822    3818    3817    3819
    3823    3818    3817    3819    3824    3818    3817    3819
    3822    3818    3817    3820    3823    3818    3817    3820
    3824    3818    3817    3820    3822    3818    3817    3821
    3823    3818    3817    3821    3824    3818    3817    3821
    3830    3826    3825    3827    3831    3826    3825    3827
    3832    3826    3825    3827    3830    3826    3825    3828
    3831    3826    3825    3828    3832    3826    3825    3828
    3830    3826    3825    3829    3831    3826    3825    3829
    3832    3826    3825    3829    3838    3834    3833    3835
    3839    3834    3833    3835    3840    3834    3833    3835
    3838    3834    3833    3836    3839    3834    3833    3836
    3840    3834    3833    3836    3838    3834    3833    3837
    3839    3834    3833    3837    3840    3834    3833    3837
    3846    3842    3841    3843    3847    3842    3841    3843
    3848    3842    3841    3843    3846    3842    3841    3844
    3847    3842    3841    3844    3848    3842    3841    3844
    3846    3842    3841    3845    3847    3842    3841    3845
    3848    3842    3841    3845    3854    3850    3849    3851
    3855    3850    3849    3851    3856    3850    3849    3851
    3854    3850    3849    3852    3855    3850    3849    3852
    3856    3850    3849    3852    3854    3850    3849    3853
    3855    3850    3849    3853    3856    3850    3849    3853
    3862    3858    3857    3859    3863    3858    3857    3859
    3864    3858    3857    3859    3862    3858    3857    3860
    3863    3858    3857    3860    3864    3858    3857    3860
    3862    3858    3857    3861    3863    3858    3857    3861
    3864    3858    3857    3861    3870    3866    3865    3867
    3871    3866    3865    3867    3872    3866    3865    3867
    3870    3866    3865    3868    3871    3866    3865    3868
    3872    3866    3865    3868    3870    3866    3865    3869
    3871    3866    3865    3869    3872    3866    3865    3869
    3878    3874    3873    3875    3879    3874    3873    3875
    3880    3874    3873    3875    3878    3874    3873    3876
    3879    3874    3873    3876    3880    3874    3873    3876
    3878    3874    3873    3877    3879    3874    3873    3877
    3880    3874    3873    3877    3886    3882    3881    3883
    3887    3882    3881    3883    3888    3882    3881    3883
    3886    3882    3881    3884    3887    3882    3881    3884
    3888    3882    3881    3884    3886    3882    3881    3885
    3887    3882    3881    3885    3888    3882    3881    3885
    3894    3890    3889    3891    3895    3890    3889    3891
    3896    3890    3889    3891    3894    3890    3889    3892
    3895    3890    3889    3892    3896    3890    3889    3892
    3894    3890    3889    3893    3895    3890    3889    3893
    3896    3890    3889    3893    3902    3898    3897    3899
    3903    3898    3897    3899    3904    3898    3897    3899
    3902    3898    3897    3900    3903    3898    3897    3900
    3904    3898    3897    3900    3902    3898    3897    3901
    3903    3898    3897    3901    3904    3898    3897    3901
    3910    3906    3905    3907    3911    3906    3905    3907
    3912    3906    3905    3907    3910    3906    3905    3908
    3911    3906    3905    3908    3912    3906    3905    3908
    3910    3906    3905    3909    3911    3906    3905    3909
    3912    3906    3905    3909    3918    3914    3913    3915
    3919    3914    3913    3915    3920    3914    3913    3915
    3918    3914    3913    3916    3919    3914    3913    3916
    3920    3914    3913    3916    3918    3914    3913    3917
    3919    3914    3913    3917    3920    3914    3913    3917
    3926    3922    3921    3923    3927    3922    3921    3923
    3928    3922    3921    3923    3926    3922    3921    3924
    3927    3922    3921    3924    3928    3922    3921    3924
    3926    3922    3921    3925    3927    3922    3921    3925
    3928    3922    3921    3925    3934    3930    3929    3931
    3935    3930    3929    3931    3936    3930    3929    3931
    3934    3930    3929    3932    3935    3930    3929    3932
    3936    3930    3929    3932    3934    3930    3929    3933
    3935    3930    3929    3933    3936    3930    3929    3933
    3942    3938    3937    3939    3943    3938    3937    3939
    3944    3938    3937    3939    3942    3938    3937    3940
    3943    3938    3937    3940    3944    3938    3937    3940
    3942    3938    3937    3941    3943    3938    3937    3941
    3944    3938    3937    3941    3950    3946    3945    3947
    3951    3946    3945    3947    3952    3946    3945    3947
    3950    3946    3945    3948    3951    3946    3945    3948
    3952    3946    3945    3948    3950    3946    3945    3949
    3951    3946    3945    3949    3952    3946    3945    3949
    3958    3954    3953    3955    3959    3954    3953    3955
    3960    3954    3953    3955    3958    3954    3953    3956
    3959    3954    3953    3956    3960    3954    3953    3956
    3958    3954    3953    3957    3959    3954    3953    3957
    3960    3954    3953    3957    3966    3962    3961    3963
    3967    3962    3961    3963    3968    3962    3961    3963
    3966    3962    3961    3964    3967    3962    3961    3964
    3968    3962    3961    3964    3966    3962    3961    3965
    3967    3962    3961    3965    3968    3962    3961    3965
    3974    3970    3969    3971    3975    3970    3969    3971
    3976    3970    3969    3971    3974    3970    3969    3972
    3975    3970    3969    3972    3976    3970    3969    3972
    3974    3970    3969    3973    3975    3970    3969    3973
    3976    3970    3969    3973    3982    3978    3977    3979
    3983    3978    3977    3979    3984    3978    3977    3979
    3982    3978    3977    3980    3983    3978    3977    3980
    3984    3978    3977    3980    3982    3978    3977    3981
    3983    3978    3977    3981    3984    3978    3977    3981
    3990    3986    3985    3987    3991    3986    3985    3987
    3992    3986    3985    3987    3990    3986    3985    3988
    3991    3986    3985    3988    3992    3986    3985    3988
    3990    3986    3985    3989    3991    3986    3985    3989
    3992    3986    3985    3989    3998    3994    3993    3995
    3999    3994    3993    3995    4000    3994    3993    3995
    3998    3994    3993    3996    3999    3994    3993    3996
    4000    3994    3993    3996    3998    3994    3993    3997
    3999    3994    3993    3997    4000    3994    3993    3997
    4006    4002    4001    4003    4007    4002    4001    4003
    4008    4002    4001    4003    4006    4002    4001    4004
    4007    4002    4001    4004    4008    4002    4001    4004
    4006    4002    4001    4005    4007    4002    4001    4005
    4008    4002    4001    4005    4014    4010    4009    4011
    4015    4010    4009    4011    4016    4010    4009    4011
    4014    4010    4009    4012    4015    4010    4009    4012
    4016    4010    4009    4012    4014    4010    4009    4013
    4015    4010    4009    4013    4016    4010    4009    4013
    4022    4018    4017    4019    4023    4018    4017    4019
    4024    4018    4017    4019    4022    4018    4017    4020
    4023    4018    4017    4020    4024    4018    4017    4020
    4022    4018    4017    4021    4023    4018    4017    4021
    4024    4018    4017    4021    4030    4026    4025    4027
    4031    4026    4025    4027    4032    4026    4025    4027
    4030    4026    4025    4028    4031    4026    4025    4028
    4032    4026    4025    4028    4030    4026    4025    4029
    4031    4026    4025    4029    4032    4026    4025    4029
    4038    4034    4033    4035    4039    4034    4033    4035
    4040    4034    4033    4035    4038    4034    4033    4036
    4039    4034    4033    4036    4040    4034    4033    4036
    4038    4034    4033    4037    4039    4034    4033    4037
    4040    4034    4033    4037    4046    4042    4041    4043
    4047    4042    4041    4043    4048    4042    4041    4043
    4046    4042    4041    4044    4047    4042    4041    4044
    4048    4042    4041    4044    4046    4042    4041    4045
    4047    4042    4041    4045    4048    4042    4041    4045
    4054    4050    4049    4051    4055    4050    4049    4051
    4056    4050    4049    4051    4054    4050    4049    4052
    4055    4050    4049    4052    4056    4050    4049    4052
    4054    4050    4049    4053    4055    4050    4049    4053
    4056    4050    4049    4053    4062    4058    4057    4059
    4063    4058    4057    4059    4064    4058    4057    4059
    4062    4058    4057    4060    4063    4058    4057    4060
    4064    4058    4057    4060    4062    4058    4057    4061
    4063    4058    4057    4061    4064    4058    4057    4061
    4070    4066    4065    4067    4071    4066    4065    4067
    4072    4066    4065    4067    4070    4066    4065    4068
    4071    4066    4065    4068    4072    4066    4065    4068
    4070    4066    4065    4069    4071    4066    4065    4069
    4072    4066    4065    4069    4078    4074    4073    4075
    4079    4074    4073    4075    4080    4074    4073    4075
    4078    4074    4073    4076    4079    4074    4073    4076
    4080    4074    4073    4076    4078    4074    4073    4077
    4079    4074    4073    4077    4080    4074    4073    4077
    4086    4082    4081    4083    4087    4082    4081    4083
    4088    4082    4081    4083    4086    4082    4081    4084
    4087    4082    4081    4084    4088    4082    4081    4084
    4086    4082    4081    4085    4087    4082    4081    4085
    4088    4082    4081    4085    4094    4090    4089    4091
    4095    4090    4089    4091    4096    4090    4089    4091
    4094    4090    4089    4092    4095    4090    4089    4092
    4096    4090    4089    4092    4094    4090    4089    4093
    4095    4090    4089    4093    4096    4090    4089    4093
    4102    4098    4097    4099    4103    4098    4097    4099
    4104    4098    4097    4099    4102    4098    4097    4100
    4103    4098    4097    4100    4104    4098    4097    4100
    4102    4098    4097    4101    4103    4098    4097    4101
    4104    4098    4097    4101    4110    4106    4105    4107
    4111    4106    4105    4107    4112    4106    4105    4107
    4110    4106    4105    4108    4111    4106    4105    4108
    4112    4106    4105    4108    4110    4106    4105    4109
    4111    4106    4105    4109    4112    4106    4105    4109
    4118    4114    4113    4115    4119    4114    4113    4115
    4120    4114    4113    4115    4118    4114    4113    4116
    4119    4114    4113    4116    4120    4114    4113    4116
    4118    4114    4113    4117    4119    4114    4113    4117
    4120    4114    4113    4117    4126    4122    4121    4123
    4127    4122    4121    4123    4128    4122    4121    4123
    4126    4122    4121    4124    4127    4122    4121    4124
    4128    4122    4121    4124    4126    4122    4121    4125
    4127    4122    4121    4125    4128    4122    4121    4125
    4134    4130    4129    4131    4135    4130    4129    4131
    4136    4130    4129    4131    4134    4130    4129    4132
    4135    4130    4129    4132    4136    4130    4129    4132
    4134    4130    4129    4133    4135    4130    4129    4133
    4136    4130    4129    4133    4142    4138    4137    4139
    4143    4138    4137    4139    4144    4138    4137    4139
    4142    4138    4137    4140    4143    4138    4137    4140
    4144    4138    4137    4140    4142    4138    4137    4141
    4143    4138    4137    4141    4144    4138    4137    4141
    4150    4146    4145    4147    4151    4146    4145    4147
    4152    4146    4145    4147    4150    4146    4145    4148
    4151    4146    4145    4148    4152    4146    4145    4148
    4150    4146    4145    4149    4151    4146    4145    4149
    4152    4146    4145    4149    4158    4154    4153    4155
    4159    4154    4153    4155    4160    4154    4153    4155
    4158    4154    4153    4156    4159    4154    4153    4156
    4160    4154    4153    4156    4158    4154    4153    4157
    4159    4154    4153    4157    4160    4154    4153    4157
    4166    4162    4161    4163    4167    4162    4161    4163
    4168    4162    4161    4163    4166    4162    4161    4164
    4167    4162    4161    4164    4168    4162    4161    4164
    4166    4162    4161    4165    4167    4162    4161    4165
    4168    4162    4161    4165    4174    4170    4169    4171
    4175    4170    4169    4171    4176    4170    4169    4171
    4174    4170    4169    4172    4175    4170    4169    4172
    4176    4170    4169    4172    4174    4170    4169    4173
    4175    4170    4169    4173    4176    4170    4169    4173
    4182    4178    4177    4179    4183    4178    4177    4179
    4184    4178    4177    4179    4182    4178    4177    4180
    4183    4178    4177    4180    4184    4178    4177    4180
    4182    4178    4177    4181    4183    4178    4177    4181
    4184    4178    4177    4181    4190    4186    4185    4187
    4191    4186    4185    4187    4192    4186    4185    4187
    4190    4186    4185    4188    4191    4186    4185    4188
    4192    4186    4185    4188    4190    4186    4185    4189
    4191    4186    4185    4189    4192    4186    4185    4189
    4198    4194    4193    4195    4199    4194    4193    4195
    4200    4194    4193    4195    4198    4194    4193    4196
    4199    4194    4193    4196    4200    4194    4193    4196
    4198    4194    4193    4197    4199    4194    4193    4197
    4200    4194    4193    4197    4206    4202    4201    4203
    4207    4202    4201    4203    4208    4202    4201    4203
    4206    4202    4201    4204    4207    4202    4201    4204
    4208    4202    4201    4204    4206    4202    4201    4205
    4207    4202    4201    4205    4208    4202    4201    4205
    4214    4210    4209    4211    4215    4210    4209    4211
    4216    4210    4209    4211    4214    4210    4209    4212
    4215    4210    4209    4212    4216    4210    4209    4212
    4214    4210    4209    4213    4215    4210    4209    4213
    4216    4210    4209    4213    4222    4218    4217    4219
    4223    4218    4217    4219    4224    4218    4217    4219
    4222    4218    4217    4220    4223    4218    4217    4220
    4224    4218    4217    4220    4222    4218    4217    4221
    4223    4218    4217    4221    4224    4218    4217    4221
    4230    4226    4225    4227    4231    4226    4225    4227
    4232    4226    4225    4227    4230    4226    4225    4228
    4231    4226    4225    4228    4232    4226    4225    4228
    4230    4226    4225    4229    4231    4226    4225    4229
    4232    4226    4225    4229    4238    4234    4233    4235
    4239    4234    4233    4235    4240    4234    4233    4235
    4238    4234    4233    4236    4239    4234    4233    4236
    4240    4234    4233    4236    4238    4234    4233    4237
    4239    4234    4233    4237    4240    4234    4233    4237
    4246    4242    4241    4243    4247    4242    4241    4243
    4248    4242    4241    4243    4246    4242    4241    4244
    4247    4242    4241    4244    4248    4242    4241    4244
    4246    4242    4241    4245    4247    4242    4241    4245
    4248    4242    4241    4245    4254    4250    4249    4251
    4255    4250    4249    4251    4256    4250    4249    4251
    4254    4250    4249    4252    4255    4250    4249    4252
    4256    4250    4249    4252    4254    4250    4249    4253
    4255    4250    4249    4253    4256    4250    4249    4253
    4262    4258    4257    4259    4263    4258    4257    4259
    4264    4258    4257    4259    4262    4258    4257    4260
    4263    4258    4257    4260    4264    4258    4257    4260
    4262    4258    4257    4261    4263    4258    4257    4261
    4264    4258    4257    4261    4270    4266    4265    4267
    4271    4266    4265    4267    4272    4266    4265    4267
    4270    4266    4265    4268    4271    4266    4265    4268
    4272    4266    4265    4268    4270    4266    4265    4269
    4271    4266    4265    4269    4272    4266    4265    4269
    4278    4274    4273    4275    4279    4274    4273    4275
    4280    4274    4273    4275    4278    4274    4273    4276
    4279    4274    4273    4276    4280    4274    4273    4276
    4278    4274    4273    4277    4279    4274    4273    4277
    4280    4274    4273    4277    4286    4282    4281    4283
    4287    4282    4281    4283    4288    4282    4281    4283
    4286    4282    4281    4284    4287    4282    4281    4284
    4288    4282    4281    4284    4286    4282    4281    4285
    4287    4282    4281    4285    4288    4282    4281    4285
    4294    4290    4289    4291    4295    4290    4289    4291
    4296    4290    4289    4291    4294    4290    4289    4292
    4295    4290    4289    4292    4296    4290    4289    4292
    4294    4290    4289    4293    4295    4290    4289    4293
    4296    4290    4289    4293    4302    4298    4297    4299
    4303    4298    4297    4299    4304    4298    4297    4299
    4302    4298    4297    4300    4303    4298    4297    4300
    4304    4298    4297    4300    4302    4298    4297    4301
    4303    4298    4297    4301    4304    4298    4297    4301
    4310    4306    4305    4307    4311    4306    4305    4307
    4312    4306    4305    4307    4310    4306    4305    4308
    4311    4306    4305    4308    4312    4306    4305    4308
    4310    4306    4305    4309    4311    4306    4305    4309
    4312    4306    4305    4309    4318    4314    4313    4315
    4319    4314    4313    4315    4320    4314    4313    4315
    4318    4314    4313    4316    4319    4314    4313    4316
    4320    4314    4313    4316    4318    4314    4313    4317
    4319    4314    4313    4317    4320    4314    4313    4317
    4326    4322    4321    4323    4327    4322    4321    4323
    4328    4322    4321    4323    4326    4322    4321    4324
    4327    4322    4321    4324    4328    4322    4321    4324
    4326    4322    4321    4325    4327    4322    4321    4325
    4328    4322    4321    4325    4334    4330    4329    4331
    4335    4330    4329    4331    4336    4330    4329    4331
    4334    4330    4329    4332    4335    4330    4329    4332
    4336    4330    4329    4332    4334    4330    4329    4333
    4335    4330    4329    4333    4336    4330    4329    4333
    4342    4338    4337    4339    4343    4338    4337    4339
    4344    4338    4337    4339    4342    4338    4337    4340
    4343    4338    4337    4340    4344    4338    4337    4340
    4342    4338    4337    4341    4343    4338    4337    4341
    4344    4338    4337    4341    4350    4346    4345    4347
    4351    4346    4345    4347    4352    4346    4345    4347
    4350    4346    4345    4348    4351    4346    4345    4348
    4352    4346    4345    4348    4350    4346    4345    4349
    4351    4346    4345    4349    4352    4346    4345    4349
    4358    4354    4353    4355    4359    4354    4353    4355
    4360    4354    4353    4355    4358    4354    4353    4356
    4359    4354    4353    4356    4360    4354    4353    4356
    4358    4354    4353    4357    4359    4354    4353    4357
    4360    4354    4353    4357    4366    4362    4361    4363
    4367    4362    4361    4363    4368    4362    4361    4363
    4366    4362    4361    4364    4367    4362    4361    4364
    4368    4362    4361    4364    4366    4362    4361    4365
    4367    4362    4361    4365    4368    4362    4361    4365
    4374    4370    4369    4371    4375    4370    4369    4371
    4376    4370    4369    4371    4374    4370    4369    4372
    4375    4370    4369    4372    4376    4370    4369    4372
    4374    4370    4369    4373    4375    4370    4369    4373
    4376    4370    4369    4373    4382    4378    4377    4379
    4383    4378    4377    4379    4384    4378    4377    4379
    4382    4378    4377    4380    4383    4378    4377    4380
    4384    4378    4377    4380    4382    4378    4377    4381
    4383    4378    4377    4381    4384    4378    4377    4381
    4390    4386    4385    4387    4391    4386    4385    4387
    4392    4386    4385    4387    4390    4386    4385    4388
    4391    4386    4385    4388    4392    4386    4385    4388
    4390    4386    4385    4389    4391    4386    4385    4389
    4392    4386    4385    4389    4398    4394    4393    4395
    4399    4394    4393    4395    4400    4394    4393    4395
    4398    4394    4393    4396    4399    4394    4393    4396
    4400    4394    4393    4396    4398    4394    4393    4397
    4399    4394    4393    4397    4400    4394    4393    4397
    4406    4402    4401    4403    4407    4402    4401    4403
    4408    4402    4401    4403    4406    4402    4401    4404
    4407    4402    4401    4404    4408    4402    4401    4404
    4406    4402    4401    4405    4407    4402    4401    4405
    4408    4402    4401    4405    4414    4410    4409    4411
    4415    4410    4409    4411    4416    4410    4409    4411
    4414    4410    4409    4412    4415    4410    4409    4412
    4416    4410    4409    4412    4414    4410    4409    4413
    4415    4410    4409    4413    4416    4410    4409    4413
    4422    4418    4417    4419    4423    4418    4417    4419
    4424    4418    4417    4419    4422    4418    4417    4420
    4423    4418    4417    4420    4424    4418    4417    4420
    4422    4418    4417    4421    4423    4418    4417    4421
    4424    4418    4417    4421    4430    4426    4425    4427
    4431    4426    4425    4427    4432    4426    4425    4427
    4430    4426    4425    4428    4431    4426    4425    4428
    4432    4426    4425    4428    4430    4426    4425    4429
    4431    4426    4425    4429    4432    4426    4425    4429
    4438    4434    4433    4435    4439    4434    4433    4435
    4440    4434    4433    4435    4438    4434    4433    4436
    4439    4434    4433    4436    4440    4434    4433    4436
    4438    4434    4433    4437    4439    4434    4433    4437
    4440    4434    4433    4437    4446    4442    4441    4443
    4447    4442    4441    4443    4448    4442    4441    4443
    4446    4442    4441    4444    4447    4442    4441    4444
    4448    4442    4441    4444    4446    4442    4441    4445
    4447    4442    4441    4445    4448    4442    4441    4445
    4454    4450    4449    4451    4455    4450    4449    4451
    4456    4450    4449    4451    4454    4450    4449    4452
    4455    4450    4449    4452    4456    4450    4449    4452
    4454    4450    4449    4453    4455    4450    4449    4453
    4456    4450    4449    4453    4462    4458    4457    4459
    4463    4458    4457    4459    4464    4458    4457    4459
    4462    4458    4457    4460    4463    4458    4457    4460
    4464    4458    4457    4460    4462    4458    4457    4461
    4463    4458    4457    4461    4464    4458    4457    4461
    4470    4466    4465    4467    4471    4466    4465    4467
    4472    4466    4465    4467    4470    4466    4465    4468
    4471    4466    4465    4468    4472    4466    4465    4468
    4470    4466    4465    4469    4471    4466    4465    4469
    4472    4466    4465    4469    4478    4474    4473    4475
    4479    4474    4473    4475    4480    4474    4473    4475
    4478    4474    4473    4476    4479    4474    4473    4476
    4480    4474    4473    4476    4478    4474    4473    4477
    4479    4474    4473    4477    4480    4474    4473    4477
    4486    4482    4481    4483    4487    4482    4481    4483
    4488    4482    4481    4483    4486    4482    4481    4484
    4487    4482    4481    4484    4488    4482    4481    4484
    4486    4482    4481    4485    4487    4482    4481    4485
    4488    4482    4481    4485    4494    4490    4489    4491
    4495    4490    4489    4491    4496    4490    4489    4491
    4494    4490    4489    4492    4495    4490    4489    4492
    4496    4490    4489    4492    4494    4490    4489    4493
    4495    4490    4489    4493    4496    4490    4489    4493
    4502    4498    4497    4499    4503    4498    4497    4499
    4504    4498    4497    4499    4502    4498    4497    4500
    4503    4498    4497    4500    4504    4498    4497    4500
    4502    4498    4497    4501    4503    4498    4497    4501
    4504    4498    4497    4501    4510    4506    4505    4507
    4511    4506    4505    4507    4512    4506    4505    4507
    4510    4506    4505    4508    4511    4506    4505    4508
    4512    4506    4505    4508    4510    4506    4505    4509
    4511    4506    4505    4509    4512    4506    4505    4509
    4518    4514    4513    4515    4519    4514    4513    4515
    4520    4514    4513    4515    4518    4514    4513    4516
    4519    4514    4513    4516    4520    4514    4513    4516
    4518    4514    4513    4517    4519    4514    4513    4517
    4520    4514    4513    4517    4526    4522    4521    4523
    4527    4522    4521    4523    4528    4522    4521    4523
    4526    4522    4521    4524    4527    4522    4521    4524
    4528    4522    4521    4524    4526    4522    4521    4525
    4527    4522    4521    4525    4528    4522    4521    4525
    4534    4530    4529    4531    4535    4530    4529    4531
    4536    4530    4529    4531    4534    4530    4529    4532
    4535    4530    4529    4532    4536    4530    4529    4532
    4534    4530    4529    4533    4535    4530    4529    4533
    4536    4530    4529    4533    4542    4538    4537    4539
    4543    4538    4537    4539    4544    4538    4537    4539
    4542    4538    4537    4540    4543    4538    4537    4540
    4544    4538    4537    4540    4542    4538    4537    4541
    4543    4538    4537    4541    4544    4538    4537    4541
    4550    4546    4545    4547    4551    4546    4545    4547
    4552    4546    4545    4547    4550    4546    4545    4548
    4551    4546    4545    4548    4552    4546    4545    4548
    4550    4546    4545    4549    4551    4546    4545    4549
    4552    4546    4545    4549    4558    4554    4553    4555
    4559    4554    4553    4555    4560    4554    4553    4555
    4558    4554    4553    4556    4559    4554    4553    4556
    4560    4554    4553    4556    4558    4554    4553    4557
    4559    4554    4553    4557    4560    4554    4553    4557
    4566    4562    4561    4563    4567    4562    4561    4563
    4568    4562    4561    4563    4566    4562    4561    4564
    4567    4562    4561    4564    4568    4562    4561    4564
    4566    4562    4561    4565    4567    4562    4561    4565
    4568    4562    4561    4565    4574    4570    4569    4571
    4575    4570    4569    4571    4576    4570    4569    4571
    4574    4570    4569    4572    4575    4570    4569    4572
    4576    4570    4569    4572    4574    4570    4569    4573
    4575    4570    4569    4573    4576    4570    4569    4573
    4582    4578    4577    4579    4583    4578    4577    4579
    4584    4578    4577    4579    4582    4578    4577    4580
    4583    4578    4577    4580    4584    4578    4577    4580
    4582    4578    4577    4581    4583    4578    4577    4581
    4584    4578    4577    4581    4590    4586    4585    4587
    4591    4586    4585    4587    4592    4586    4585    4587
    4590    4586    4585    4588    4591    4586    4585    4588
    4592    4586    4585    4588    4590    4586    4585    4589
    4591    4586    4585    4589    4592    4586    4585    4589
    4598    4594    4593    4595    4599    4594    4593    4595
    4600    4594    4593    4595    4598    4594    4593    4596
    4599    4594    4593    4596    4600    4594    4593    4596
    4598    4594    4593    4597    4599    4594    4593    4597
    4600    4594    4593    4597    4606    4602    4601    4603
    4607    4602    4601    4603    4608    4602    4601    4603
    4606    4602    4601    4604    4607    4602    4601    4604
    4608    4602    4601    4604    4606    4602    4601    4605
    4607    4602    4601    4605    4608    4602    4601    4605
    4614    4610    4609    4611    4615    4610    4609    4611
    4616    4610    4609    4611    4614    4610    4609    4612
    4615    4610    4609    4612    4616    4610    4609    4612
    4614    4610    4609    4613    4615    4610    4609    4613
    4616    4610    4609    4613    4622    4618    4617    4619
    4623    4618    4617    4619    4624    4618    4617    4619
    4622    4618    4617    4620    4623    4618    4617    4620
    4624    4618    4617    4620    4622    4618    4617    4621
    4623    4618    4617    4621    4624    4618    4617    4621
    4630    4626    4625    4627    4631    4626    4625    4627
    4632    4626    4625    4627    4630    4626    4625    4628
    4631    4626    4625    4628    4632    4626    4625    4628
    4630    4626    4625    4629    4631    4626    4625    4629
    4632    4626    4625    4629    4638    4634    4633    4635
    4639    4634    4633    4635    4640    4634    4633    4635
    4638    4634    4633    4636    4639    4634    4633    4636
    4640    4634    4633    4636    4638    4634    4633    4637
    4639    4634    4633    4637    4640    4634    4633    4637
    4646    4642    4641    4643    4647    4642    4641    4643
    4648    4642    4641    4643    4646    4642    4641    4644
    4647    4642    4641    4644    4648    4642    4641    4644
    4646    4642    4641    4645    4647    4642    4641    4645
    4648    4642    4641    4645    4654    4650    4649    4651
    4655    4650    4649    4651    4656    4650    4649    4651
    4654    4650    4649    4652    4655    4650    4649    4652
    4656    4650    4649    4652    4654    4650    4649    4653
    4655    4650    4649    4653    4656    4650    4649    4653
    4662    4658    4657    4659    4663    4658    4657    4659
    4664    4658    4657    4659    4662    4658    4657    4660
    4663    4658    4657    4660    4664    4658    4657    4660
    4662    4658    4657    4661    4663    4658    4657    4661
    4664    4658    4657    4661    4670    4666    4665    4667
    4671    4666    4665    4667    4672    4666    4665    4667
    4670    4666    4665    4668    4671    4666    4665    4668
    4672    4666    4665    4668    4670    4666    4665    4669
    4671    4666    4665    4669    4672    4666    4665    4669
    4678    4674    4673    4675    4679    4674    4673    4675
    4680    4674    4673    4675    4678    4674    4673    4676
    4679    4674    4673    4676    4680    4674    4673    4676
    4678    4674    4673    4677    4679    4674    4673    4677
    4680    4674    4673    4677    4686    4682    4681    4683
    4687    4682    4681    4683    4688    4682    4681    4683
    4686    4682    4681    4684    4687    4682    4681    4684
    4688    4682    4681    4684    4686    4682    4681    4685
    4687    4682    4681    4685    4688    4682    4681    4685
    4694    4690    4689    4691    4695    4690    4689    4691
    4696    4690    4689    4691    4694    4690    4689    4692
    4695    4690    4689    4692    4696    4690    4689    4692
    4694    4690    4689    4693    4695    4690    4689    4693
    4696    4690    4689    4693    4702    4698    4697    4699
    4703    4698    4697    4699    4704    4698    4697    4699
    4702    4698    4697    4700    4703    4698    4697    4700
    4704    4698    4697    4700    4702    4698    4697    4701
    4703    4698    4697    4701    4704    4698    4697    4701
    4710    4706    4705    4707    4711    4706    4705    4707
    4712    4706    4705    4707    4710    4706    4705    4708
    4711    4706    4705    4708    4712    4706    4705    4708
    4710    4706    4705    4709    4711    4706    4705    4709
    4712    4706    4705    4709    4718    4714    4713    4715
    4719    4714    4713    4715    4720    4714    4713    4715
    4718    4714    4713    4716    4719    4714    4713    4716
    4720    4714    4713    4716    4718    4714    4713    4717
    4719    4714    4713    4717    4720    4714    4713    4717
    4726    4722    4721    4723    4727    4722    4721    4723
    4728    4722    4721    4723    4726    4722    4721    4724
    4727    4722    4721    4724    4728    4722    4721    4724
    4726    4722    4721    4725    4727    4722    4721    4725
    4728    4722    4721    4725    4734    4730    4729    4731
    4735    4730    4729    4731    4736    4730    4729    4731
    4734    4730    4729    4732    4735    4730    4729    4732
    4736    4730    4729    4732    4734    4730    4729    4733
    4735    4730    4729    4733    4736    4730    4729    4733
    4742    4738    4737    4739    4743    4738    4737    4739
    4744    4738    4737    4739    4742    4738    4737    4740
    4743    4738    4737    4740    4744    4738    4737    4740
    4742    4738    4737    4741    4743    4738    4737    4741
    4744    4738    4737    4741    4750    4746    4745    4747
    4751    4746    4745    4747    4752    4746    4745    4747
    4750    4746    4745    4748    4751    4746    4745    4748
    4752    4746    4745    4748    4750    4746    4745    4749
    4751    4746    4745    4749    4752    4746    4745    4749
    4758    4754    4753    4755    4759    4754    4753    4755
    4760    4754    4753    4755    4758    4754    4753    4756
    4759    4754    4753    4756    4760    4754    4753    4756
    4758    4754    4753    4757    4759    4754    4753    4757
    4760    4754    4753    4757    4766    4762    4761    4763
    4767    4762    4761    4763    4768    4762    4761    4763
    4766    4762    4761    4764    4767    4762    4761    4764
    4768    4762    4761    4764    4766    4762    4761    4765
    4767    4762    4761    4765    4768    4762    4761    4765
    4774    4770    4769    4771    4775    4770    4769    4771
    4776    4770    4769    4771    4774    4770    4769    4772
    4775    4770    4769    4772    4776    4770    4769    4772
    4774    4770    4769    4773    4775    4770    4769    4773
    4776    4770    4769    4773    4782    4778    4777    4779
    4783    4778    4777    4779    4784    4778    4777    4779
    4782    4778    4777    4780    4783    4778    4777    4780
    4784    4778    4777    4780    4782    4778    4777    4781
    4783    4778    4777    4781    4784    4778    4777    4781
    4790    4786    4785    4787    4791    4786    4785    4787
    4792    4786    4785    4787    4790    4786    4785    4788
    4791    4786    4785    4788    4792    4786    4785    4788
    4790    4786    4785    4789    4791    4786    4785    4789
    4792    4786    4785    4789    4798    4794    4793    4795
    4799    4794    4793    4795    4800    4794    4793    4795
    4798    4794    4793    4796    4799    4794    4793    4796
    4800    4794    4793    4796    4798    4794    4793    4797
    4799    4794    4793    4797    4800    4794    4793    4797
    4806    4802    4801    4803    4807    4802    4801    4803
    4808    4802    4801    4803    4806    4802    4801    4804
    4807    4802    4801    4804    4808    4802    4801    4804
    4806    4802    4801    4805    4807    4802    4801    4805
    4808    4802    4801    4805    4814    4810    4809    4811
    4815    4810    4809    4811    4816    4810    4809    4811
    4814    4810    4809    4812    4815    4810    4809    4812
    4816    4810    4809    4812    4814    4810    4809    4813
    4815    4810    4809    4813    4816    4810    4809    4813
    4822    4818    4817    4819    4823    4818    4817    4819
    4824    4818    4817    4819    4822    4818    4817    4820
    4823    4818    4817    4820    4824    4818    4817    4820
    4822    4818    4817    4821    4823    4818    4817    4821
    4824    4818    4817    4821    4830    4826    4825    4827
    4831    4826    4825    4827    4832    4826    4825    4827
    4830    4826    4825    4828    4831    4826    4825    4828
    4832    4826    4825    4828    4830    4826    4825    4829
    4831    4826    4825    4829    4832    4826    4825    4829
    4838    4834    4833    4835    4839    4834    4833    4835
    4840    4834    4833    4835    4838    4834    4833    4836
    4839    4834    4833    4836    4840    4834    4833    4836
    4838    4834    4833    4837    4839    4834    4833    4837
    4840    4834    4833    4837    4846    4842    4841    4843
    4847    4842    4841    4843    4848    4842    4841    4843
    4846    4842    4841    4844    4847    4842    4841    4844
    4848    4842    4841    4844    4846    4842    4841    4845
    4847    4842    4841    4845    4848    4842    4841    4845
    4854    4850    4849    4851    4855    4850    4849    4851
    4856    4850    4849    4851    4854    4850    4849    4852
    4855    4850    4849    4852    4856    4850    4849    4852
    4854    4850    4849    4853    4855    4850    4849    4853
    4856    4850    4849    4853    4862    4858    4857    4859
    4863    4858    4857    4859    4864    4858    4857    4859
    4862    4858    4857    4860    4863    4858    4857    4860
    4864    4858    4857    4860    4862    4858    4857    4861
    4863    4858    4857    4861    4864    4858    4857    4861
    4870    4866    4865    4867    4871    4866    4865    4867
    4872    4866    4865    4867    4870    4866    4865    4868
    4871    4866    4865    4868    4872    4866    4865    4868
    4870    4866    4865    4869    4871    4866    4865    4869
    4872    4866    4865    4869    4878    4874    4873    4875
    4879    4874    4873    4875    4880    4874    4873    4875
    4878    4874    4873    4876    4879    4874    4873    4876
    4880    4874    4873    4876    4878    4874    4873    4877
    4879    4874    4873    4877    4880    4874    4873    4877
    4886    4882    4881    4883    4887    4882    4881    4883
    4888    4882    4881    4883    4886    4882    4881    4884
    4887    4882    4881    4884    4888    4882    4881    4884
    4886    4882    4881    4885    4887    4882    4881    4885
    4888    4882    4881    4885    4894    4890    4889    4891
    4895    4890    4889    4891    4896    4890    4889    4891
    4894    4890    4889    4892    4895    4890    4889    4892
    4896    4890    4889    4892    4894    4890    4889    4893
    4895    4890    4889    4893    4896    4890    4889    4893
    4902    4898    4897    4899    4903    4898    4897    4899
    4904    4898    4897    4899    4902    4898    4897    4900
    4903    4898    4897    4900    4904    4898    4897    4900
    4902    4898    4897    4901    4903    4898    4897    4901
    4904    4898    4897    4901    4910    4906    4905    4907
    4911    4906    4905    4907    4912    4906    4905    4907
    4910    4906    4905    4908    4911    4906    4905    4908
    4912    4906    4905    4908    4910    4906    4905    4909
    4911    4906    4905    4909    4912    4906    4905    4909
    4918    4914    4913    4915    4919    4914    4913    4915
    4920    4914    4913    4915    4918    4914    4913    4916
    4919    4914    4913    4916    4920    4914    4913    4916
    4918    4914    4913    4917    4919    4914    4913    4917
    4920    4914    4913    4917    4926    4922    4921    4923
    4927    4922    4921    4923    4928    4922    4921    4923
    4926    4922    4921    4924    4927    4922    4921    4924
    4928    4922    4921    4924    4926    4922    4921    4925
    4927    4922    4921    4925    4928    4922    4921    4925
    4934    4930    4929    4931    4935    4930    4929    4931
    4936    4930    4929    4931    4934    4930    4929    4932
    4935    4930    4929    4932    4936    4930    4929    4932
    4934    4930    4929    4933    4935    4930    4929    4933
    4936    4930    4929    4933    4942    4938    4937    4939
    4943    4938    4937    4939    4944    4938    4937    4939
    4942    4938    4937    4940    4943    4938    4937    4940
    4944    4938    4937    4940    4942    4938    4937    4941
    4943    4938    4937    4941    4944    4938    4937    4941
    4950    4946    4945    4947    4951    4946    4945    4947
    4952    4946    4945    4947    4950    4946    4945    4948
    4951    4946    4945    4948    4952    4946    4945    4948
    4950    4946    4945    4949    4951    4946    4945    4949
    4952    4946    4945    4949    4958    4954    4953    4955
    4959    4954    4953    4955    4960    4954    4953    4955
    4958    4954    4953    4956    4959    4954    4953    4956
    4960    4954    4953    4956    4958    4954    4953    4957
    4959    4954    4953    4957    4960    4954    4953    4957
    4966    4962    4961    4963    4967    4962    4961    4963
    4968    4962    4961    4963    4966    4962    4961    4964
    4967    4962    4961    4964    4968    4962    4961    4964
    4966    4962    4961    4965    4967    4962    4961    4965
    4968    4962    4961    4965    4974    4970    4969    4971
    4975    4970    4969    4971    4976    4970    4969    4971
    4974    4970    4969    4972    4975    4970    4969    4972
    4976    4970    4969    4972    4974    4970    4969    4973
    4975    4970    4969    4973    4976    4970    4969    4973
    4982    4978    4977    4979    4983    4978    4977    4979
    4984    4978    4977    4979    4982    4978    4977    4980
    4983    4978    4977    4980    4984    4978    4977    4980
    4982    4978    4977    4981    4983    4978    4977    4981
    4984    4978    4977    4981    4990    4986    4985    4987
    4991    4986    4985    4987    4992    4986    4985    4987
    4990    4986    4985    4988    4991    4986    4985    4988
    4992    4986    4985    4988    4990    4986    4985    4989
    4991    4986    4985    4989    4992    4986    4985    4989
    4998    4994    4993    4995    4999    4994    4993    4995
    5000    4994    4993    4995    4998    4994    4993    4996
    4999    4994    4993    4996    5000    4994    4993    4996
    4998    4994    4993    4997    4999    4994    4993    4997
    5000    4994    4993    4997    5006    5002    5001    5003
    5007    5002    5001    5003    5008    5002    5001    5003
    5006    5002    5001    5004    5007    5002    5001    5004
    5008    5002    5001    5004    5006    5002    5001    5005
    5007    5002    5001    5005    5008    5002    5001    5005
    5014    5010    5009    5011    5015    5010    5009    5011
    5016    5010    5009    5011    5014    5010    5009    5012
    5015    5010    5009    5012    5016    5010    5009    5012
    5014    5010    5009    5013    5015    5010    5009    5013
    5016    5010    5009    5013    5022    5018    5017    5019
    5023    5018    5017    5019    5024    5018    5017    5019
    5022    5018    5017    5020    5023    5018    5017    5020
    5024    5018    5017    5020    5022    5018    5017    5021
    5023    5018    5017    5021    5024    5018    5017    5021
    5030    5026    5025    5027    5031    5026    5025    5027
    5032    5026    5025    5027    5030    5026    5025    5028
    5031    5026    5025    5028    5032    5026    5025    5028
    5030    5026    5025    5029    5031    5026    5025    5029
    5032    5026    5025    5029    5038    5034    5033    5035
    5039    5034    5033    5035    5040    5034    5033    5035
    5038    5034    5033    5036    5039    5034    5033    5036
    5040    5034    5033    5036    5038    5034    5033    5037
    5039    5034    5033    5037    5040    5034    5033    5037
    5046    5042    5041    5043    5047    5042    5041    5043
    5048    5042    5041    5043    5046    5042    5041    5044
    5047    5042    5041    5044    5048    5042    5041    5044
    5046    5042    5041    5045    5047    5042    5041    5045
    5048    5042    5041    5045    5054    5050    5049    5051
    5055    5050    5049    5051    5056    5050    5049    5051
    5054    5050    5049    5052    5055    5050    5049    5052
    5056    5050    5049    5052    5054    5050    5049    5053
    5055    5050    5049    5053    5056    5050    5049    5053
    5062    5058    5057    5059    5063    5058    5057    5059
    5064    5058    5057    5059    5062    5058    5057    5060
    5063    5058    5057    5060    5064    5058    5057    5060
    5062    5058    5057    5061    5063    5058    5057    5061
    5064    5058    5057    5061    5070    5066    5065    5067
    5071    5066    5065    5067    5072    5066    5065    5067
    5070    5066    5065    5068    5071    5066    5065    5068
    5072    5066    5065    5068    5070    5066    5065    5069
    5071    5066    5065    5069    5072    5066    5065    5069
    5078    5074    5073    5075    5079    5074    5073    5075
    5080    5074    5073    5075    5078    5074    5073    5076
    5079    5074    5073    5076    5080    5074    5073    5076
    5078    5074    5073    5077    5079    5074    5073    5077
    5080    5074    5073    5077    5086    5082    5081    5083
    5087    5082    5081    5083    5088    5082    5081    5083
    5086    5082    5081    5084    5087    5082    5081    5084
    5088    5082    5081    5084    5086    5082    5081    5085
    5087    5082    5081    5085    5088    5082    5081    5085
    5094    5090    5089    5091    5095    5090    5089    5091
    5096    5090    5089    5091    5094    5090    5089    5092
    5095    5090    5089    5092    5096    5090    5089    5092
    5094    5090    5089    5093    5095    5090    5089    5093
    5096    5090    5089    5093    5102    5098    5097    5099
    5103    5098    5097    5099    5104    5098    5097    5099
    5102    5098    5097    5100    5103    5098    5097    5100
    5104    5098    5097    5100    5102    5098    5097    5101
    5103    5098    5097    5101    5104    5098    5097    5101
    5110    5106    5105    5107    5111    5106    5105    5107
    5112    5106    5105    5107    5110    5106    5105    5108
    5111    5106    5105    5108    5112    5106    5105    5108
    5110    5106    5105    5109    5111    5106    5105    5109
    5112    5106    5105    5109    5118    5114    5113    5115
    5119    5114    5113    5115    5120    5114    5113    5115
    5118    5114    5113    5116    5119    5114    5113    5116
    5120    5114    5113    5116    5118    5114    5113    5117
    5119    5114    5113    5117    5120    5114    5113    5117
    5126    5122    5121    5123    5127    5122    5121    5123
    5128    5122    5121    5123    5126    5122    5121    5124
    5127    5122    5121    5124    5128    5122    5121    5124
    5126    5122    5121    5125    5127    5122    5121    5125
    5128    5122    5121    5125    5134    5130    5129    5131
    5135    5130    5129    5131    5136    5130    5129    5131
    5134    5130    5129    5132    5135    5130    5129    5132
    5136    5130    5129    5132    5134    5130    5129    5133
    5135    5130    5129    5133    5136    5130    5129    5133
    5142    5138    5137    5139    5143    5138    5137    5139
    5144    5138    5137    5139    5142    5138    5137    5140
    5143    5138    5137    5140    5144    5138    5137    5140
    5142    5138    5137    5141    5143    5138    5137    5141
    5144    5138    5137    5141    5150    5146    5145    5147
    5151    5146    5145    5147    5152    5146    5145    5147
    5150    5146    5145    5148    5151    5146    5145    5148
    5152    5146    5145    5148    5150    5146    5145    5149
    5151    5146    5145    5149    5152    5146    5145    5149
    5158    5154    5153    5155    5159    5154    5153    5155
    5160    5154    5153    5155    5158    5154    5153    5156
    5159    5154    5153    5156    5160    5154    5153    5156
    5158    5154    5153    5157    5159    5154    5153    5157
    5160    5154    5153    5157    5166    5162    5161    5163
    5167    5162    5161    5163    5168    5162    5161    5163
    5166    5162    5161    5164    5167    5162    5161    5164
    5168    5162    5161    5164    5166    5162    5161    5165
    5167    5162    5161    5165    5168    5162    5161    5165
    5174    5170    5169    5171    5175    5170    5169    5171
    5176    5170    5169    5171    5174    5170    5169    5172
    5175    5170    5169    5172    5176    5170    5169    5172
    5174    5170    5169    5173    5175    5170    5169    5173
    5176    5170    5169    5173    5182    5178    5177    5179
    5183    5178    5177    5179    5184    5178    5177    5179
    5182    5178    5177    5180    5183    5178    5177    5180
    5184    5178    5177    5180    5182    5178    5177    5181
    5183    5178    5177    5181    5184    5178    5177    5181
    5190    5186    5185    5187    5191    5186    5185    5187
    5192    5186    5185    5187    5190    5186    5185    5188
    5191    5186    5185    5188    5192    5186    5185    5188
    5190    5186    5185    5189    5191    5186    5185    5189
    5192    5186    5185    5189    5198    5194    5193    5195
    5199    5194    5193    5195    5200    5194    5193    5195
    5198    5194    5193    5196    5199    5194    5193    5196
    5200    5194    5193    5196    5198    5194    5193    5197
    5199    5194    5193    5197    5200    5194    5193    5197
    5206    5202    5201    5203    5207    5202    5201    5203
    5208    5202    5201    5203    5206    5202    5201    5204
    5207    5202    5201    5204    5208    5202    5201    5204
    5206    5202    5201    5205    5207    5202    5201    5205
    5208    5202    5201    5205    5214    5210    5209    5211
    5215    5210    5209    5211    5216    5210    5209    5211
    5214    5210    5209    5212    5215    5210    5209    5212
    5216    5210    5209    5212    5214    5210    5209    5213
    5215    5210    5209    5213    5216    5210    5209    5213
    5222    5218    5217    5219    5223    5218    5217    5219
    5224    5218    5217    5219    5222    5218    5217    5220
    5223    5218    5217    5220    5224    5218    5217    5220
    5222    5218    5217    5221    5223    5218    5217    5221
    5224    5218    5217    5221    5230    5226    5225    5227
    5231    5226    5225    5227    5232    5226    5225    5227
    5230    5226    5225    5228    5231    5226    5225    5228
    5232    5226    5225    5228    5230    5226    5225    5229
    5231    5226    5225    5229    5232    5226    5225    5229
    5238    5234    5233    5235    5239    5234    5233    5235
    5240    5234    5233    5235    5238    5234    5233    5236
    5239    5234    5233    5236    5240    5234    5233    5236
    5238    5234    5233    5237    5239    5234    5233    5237
    5240    5234    5233    5237    5246    5242    5241    5243
    5247    5242    5241    5243    5248    5242    5241    5243
    5246    5242    5241    5244    5247    5242    5241    5244
    5248    5242    5241    5244    5246    5242    5241    5245
    5247    5242    5241    5245    5248    5242    5241    5245
    5254    5250    5249    5251    5255    5250    5249    5251
    5256    5250    5249    5251    5254    5250    5249    5252
    5255    5250    5249    5252    5256    5250    5249    5252
    5254    5250    5249    5253    5255    5250    5249    5253
    5256    5250    5249    5253    5262    5258    5257    5259
    5263    5258    5257    5259    5264    5258    5257    5259
    5262    5258    5257    5260    5263    5258    5257    5260
    5264    5258    5257    5260    5262    5258    5257    5261
    5263    5258    5257    5261    5264    5258    5257    5261
    5270    5266    5265    5267    5271    5266    5265    5267
    5272    5266    5265    5267    5270    5266    5265    5268
    5271    5266    5265    5268    5272    5266    5265    5268
    5270    5266    5265    5269    5271    5266    5265    5269
    5272    5266    5265    5269    5278    5274    5273    5275
    5279    5274    5273    5275    5280    5274    5273    5275
    5278    5274    5273    5276    5279    5274    5273    5276
    5280    5274    5273    5276    5278    5274    5273    5277
    5279    5274    5273    5277    5280    5274    5273    5277
    5286    5282    5281    5283    5287    5282    5281    5283
    5288    5282    5281    5283    5286    5282    5281    5284
    5287    5282    5281    5284    5288    5282    5281    5284
    5286    5282    5281    5285    5287    5282    5281    5285
    5288    5282    5281    5285    5294    5290    5289    5291
    5295    5290    5289    5291    5296    5290    5289    5291
    5294    5290    5289    5292    5295    5290    5289    5292
    5296    5290    5289    5292    5294    5290    5289    5293
    5295    5290    5289    5293    5296    5290    5289    5293
    5302    5298    5297    5299    5303    5298    5297    5299
    5304    5298    5297    5299    5302    5298    5297    5300
    5303    5298    5297    5300    5304    5298    5297    5300
    5302    5298    5297    5301    5303    5298    5297    5301
    5304    5298    5297    5301    5310    5306    5305    5307
    5311    5306    5305    5307    5312    5306    5305    5307
    5310    5306    5305    5308    5311    5306    5305    5308
    5312    5306    5305    5308    5310    5306    5305    5309
    5311    5306    5305    5309    5312    5306    5305    5309
    5318    5314    5313    5315    5319    5314    5313    5315
    5320    5314    5313    5315    5318    5314    5313    5316
    5319    5314    5313    5316    5320    5314    5313    5316
    5318    5314    5313    5317    5319    5314    5313    5317
    5320    5314    5313    5317    5326    5322    5321    5323
    5327    5322    5321    5323    5328    5322    5321    5323
    5326    5322    5321    5324    5327    5322    5321    5324
    5328    5322    5321    5324    5326    5322    5321    5325
    5327    5322    5321    5325    5328    5322    5321    5325
    5334    5330    5329    5331    5335    5330    5329    5331
    5336    5330    5329    5331    5334    5330    5329    5332
    5335    5330    5329    5332    5336    5330    5329    5332
    5334    5330    5329    5333    5335    5330    5329    5333
    5336    5330    5329    5333    5342    5338    5337    5339
    5343    5338    5337    5339    5344    5338    5337    5339
    5342    5338    5337    5340    5343    5338    5337    5340
    5344    5338    5337    5340    5342    5338    5337    5341
    5343    5338    5337    5341    5344    5338    5337    5341
    5350    5346    5345    5347    5351    5346    5345    5347
    5352    5346    5345    5347    5350    5346    5345    5348
    5351    5346    5345    5348    5352    5346    5345    5348
    5350    5346    5345    5349    5351    5346    5345    5349
    5352    5346    5345    5349    5358    5354    5353    5355
    5359    5354    5353    5355    5360    5354    5353    5355
    5358    5354    5353    5356    5359    5354    5353    5356
    5360    5354    5353    5356    5358    5354    5353    5357
    5359    5354    5353    5357    5360    5354    5353    5357
    5366    5362    5361    5363    5367    5362    5361    5363
    5368    5362    5361    5363    5366    5362    5361    5364
    5367    5362    5361    5364    5368    5362    5361    5364
    5366    5362    5361    5365    5367    5362    5361    5365
    5368    5362    5361    5365    5374    5370    5369    5371
    5375    5370    5369    5371    5376    5370    5369    5371
    5374    5370    5369    5372    5375    5370    5369    5372
    5376    5370    5369    5372    5374    5370    5369    5373
    5375    5370    5369    5373    5376    5370    5369    5373
    5382    5378    5377    5379    5383    5378    5377    5379
    5384    5378    5377    5379    5382    5378    5377    5380
    5383    5378    5377    5380    5384    5378    5377    5380
    5382    5378    5377    5381    5383    5378    5377    5381
    5384    5378    5377    5381    5390    5386    5385    5387
    5391    5386    5385    5387    5392    5386    5385    5387
    5390    5386    5385    5388    5391    5386    5385    5388
    5392    5386    5385    5388    5390    5386    5385    5389
    5391    5386    5385    5389    5392    5386    5385    5389
    5398    5394    5393    5395    5399    5394    5393    5395
    5400    5394    5393    5395    5398    5394    5393    5396
    5399    5394    5393    5396    5400    5394    5393    5396
    5398    5394    5393    5397    5399    5394    5393    5397
    5400    5394    5393    5397    5406    5402    5401    5403
    5407    5402    5401    5403    5408    5402    5401    5403
    5406    5402    5401    5404    5407    5402    5401    5404
    5408    5402    5401    5404    5406    5402    5401    5405
    5407    5402    5401    5405    5408    5402    5401    5405
    5414    5410    5409    5411    5415    5410    5409    5411
    5416    5410    5409    5411    5414    5410    5409    5412
    5415    5410    5409    5412    5416    5410    5409    5412
    5414    5410    5409    5413    5415    5410    5409    5413
    5416    5410    5409    5413    5422    5418    5417    5419
    5423    5418    5417    5419    5424    5418    5417    5419
    5422    5418    5417    5420    5423    5418    5417    5420
    5424    5418    5417    5420    5422    5418    5417    5421
    5423    5418    5417    5421    5424    5418    5417    5421
    5430    5426    5425    5427    5431    5426    5425    5427
    5432    5426    5425    5427    5430    5426    5425    5428
    5431    5426    5425    5428    5432    5426    5425    5428
    5430    5426    5425    5429    5431    5426    5425    5429
    5432    5426    5425    5429    5438    5434    5433    5435
    5439    5434    5433    5435    5440    5434    5433    5435
    5438    5434    5433    5436    5439    5434    5433    5436
    5440    5434    5433    5436    5438    5434    5433    5437
    5439    5434    5433    5437    5440    5434    5433    5437
    5446    5442    5441    5443    5447    5442    5441    5443
    5448    5442    5441    5443    5446    5442    5441    5444
    5447    5442    5441    5444    5448    5442    5441    5444
    5446    5442    5441    5445    5447    5442    5441    5445
    5448    5442    5441    5445    5454    5450    5449    5451
    5455    5450    5449    5451    5456    5450    5449    5451
    5454    5450    5449    5452    5455    5450    5449    5452
    5456    5450    5449    5452    5454    5450    5449    5453
    5455    5450    5449    5453    5456    5450    5449    5453
    5462    5458    5457    5459    5463    5458    5457    5459
    5464    5458    5457    5459    5462    5458    5457    5460
    5463    5458    5457    5460    5464    5458    5457    5460
    5462    5458    5457    5461    5463    5458    5457    5461
    5464    5458    5457    5461    5470    5466    5465    5467
    5471    5466    5465    5467    5472    5466    5465    5467
    5470    5466    5465    5468    5471    5466    5465    5468
    5472    5466    5465    5468    5470    5466    5465    5469
    5471    5466    5465    5469    5472    5466    5465    5469
    5478    5474    5473    5475    5479    5474    5473    5475
    5480    5474    5473    5475    5478    5474    5473    5476
    5479    5474    5473    5476    5480    5474    5473    5476
    5478    5474    5473    5477    5479    5474    5473    5477
    5480    5474    5473    5477    5486    5482    5481    5483
    5487    5482    5481    5483    5488    5482    5481    5483
    5486    5482    5481    5484    5487    5482    5481    5484
    5488    5482    5481    5484    5486    5482    5481    5485
    5487    5482    5481    5485    5488    5482    5481    5485
    5494    5490    5489    5491    5495    5490    5489    5491
    5496    5490    5489    5491    5494    5490    5489    5492
    5495    5490    5489    5492    5496    5490    5489    5492
    5494    5490    5489    5493    5495    5490    5489    5493
    5496    5490    5489    5493    5502    5498    5497    5499
    5503    5498    5497    5499    5504    5498    5497    5499
    5502    5498    5497    5500    5503    5498    5497    5500
    5504    5498    5497    5500    5502    5498    5497    5501
    5503    5498    5497    5501    5504    5498    5497    5501
    5510    5506    5505    5507    5511    5506    5505    5507
    5512    5506    5505    5507    5510    5506    5505    5508
    5511    5506    5505    5508    5512    5506    5505    5508
    5510    5506    5505    5509    5511    5506    5505    5509
    5512    5506    5505    5509    5518    5514    5513    5515
    5519    5514    5513    5515    5520    5514    5513    5515
    5518    5514    5513    5516    5519    5514    5513    5516
    5520    5514    5513    5516    5518    5514    5513    5517
    5519    5514    5513    5517    5520    5514    5513    5517
    5526    5522    5521    5523    5527    5522    5521    5523
    5528    5522    5521    5523    5526    5522    5521    5524
    5527    5522    5521    5524    5528    5522    5521    5524
    5526    5522    5521    5525    5527    5522    5521    5525
    5528    5522    5521    5525    5534    5530    5529    5531
    5535    5530    5529    5531    5536    5530    5529    5531
    5534    5530    5529    5532    5535    5530    5529    5532
    5536    5530    5529    5532    5534    5530    5529    5533
    5535    5530    5529    5533    5536    5530    5529    5533
    5542    5538    5537    5539    5543    5538    5537    5539
    5544    5538    5537    5539    5542    5538    5537    5540
    5543    5538    5537    5540    5544    5538    5537    5540
    5542    5538    5537    5541    5543    5538    5537    5541
    5544    5538    5537    5541    5550    5546    5545    5547
    5551    5546    5545    5547    5552    5546    5545    5547
    5550    5546    5545    5548    5551    5546    5545    5548
    5552    5546    5545    5548    5550    5546    5545    5549
    5551    5546    5545    5549    5552    5546    5545    5549
    5558    5554    5553    5555    5559    5554    5553    5555
    5560    5554    5553    5555    5558    5554    5553    5556
    5559    5554    5553    5556    5560    5554    5553    5556
    5558    5554    5553    5557    5559    5554    5553    5557
    5560    5554    5553    5557    5566    5562    5561    5563
    5567    5562    5561    5563    5568    5562    5561    5563
    5566    5562    5561    5564    5567    5562    5561    5564
    5568    5562    5561    5564    5566    5562    5561    5565
    5567    5562    5561    5565    5568    5562    5561    5565
    5574    5570    5569    5571    5575    5570    5569    5571
    5576    5570    5569    5571    5574    5570    5569    5572
    5575    5570    5569    5572    5576    5570    5569    5572
    5574    5570    5569    5573    5575    5570    5569    5573
    5576    5570    5569    5573    5582    5578    5577    5579
    5583    5578    5577    5579    5584    5578    5577    5579
    5582    5578    5577    5580    5583    5578    5577    5580
    5584    5578    5577    5580    5582    5578    5577    5581
    5583    5578    5577    5581    5584    5578    5577    5581
    5590    5586    5585    5587    5591    5586    5585    5587
    5592    5586    5585    5587    5590    5586    5585    5588
    5591    5586    5585    5588    5592    5586    5585    5588
    5590    5586    5585    5589    5591    5586    5585    5589
    5592    5586    5585    5589    5598    5594    5593    5595
    5599    5594    5593    5595    5600    5594    5593    5595
    5598    5594    5593    5596    5599    5594    5593    5596
    5600    5594    5593    5596    5598    5594    5593    5597
    5599    5594    5593    5597    5600    5594    5593    5597
    5606    5602    5601    5603    5607    5602    5601    5603
    5608    5602    5601    5603    5606    5602    5601    5604
    5607    5602    5601    5604    5608    5602    5601    5604
    5606    5602    5601    5605    5607    5602    5601    5605
    5608    5602    5601    5605    5614    5610    5609    5611
    5615    5610    5609    5611    5616    5610    5609    5611
    5614    5610    5609    5612    5615    5610    5609    5612
    5616    5610    5609    5612    5614    5610    5609    5613
    5615    5610    5609    5613    5616    5610    5609    5613
    5622    5618    5617    5619    5623    5618    5617    5619
    5624    5618    5617    5619    5622    5618    5617    5620
    5623    5618    5617    5620    5624    5618    5617    5620
    5622    5618    5617    5621    5623    5618    5617    5621
    5624    5618    5617    5621    5630    5626    5625    5627
    5631    5626    5625    5627    5632    5626    5625    5627
    5630    5626    5625    5628    5631    5626    5625    5628
    5632    5626    5625    5628    5630    5626    5625    5629
    5631    5626    5625    5629    5632    5626    5625    5629
    5638    5634    5633    5635    5639    5634    5633    5635
    5640    5634    5633    5635    5638    5634    5633    5636
    5639    5634    5633    5636    5640    5634    5633    5636
    5638    5634    5633    5637    5639    5634    5633    5637
    5640    5634    5633    5637    5646    5642    5641    5643
    5647    5642    5641    5643    5648    5642    5641    5643
    5646    5642    5641    5644    5647    5642    5641    5644
    5648    5642    5641    5644    5646    5642    5641    5645
    5647    5642    5641    5645    5648    5642    5641    5645
    5654    5650    5649    5651    5655    5650    5649    5651
    5656    5650    5649    5651    5654    5650    5649    5652
    5655    5650    5649    5652    5656    5650    5649    5652
    5654    5650    5649    5653    5655    5650    5649    5653
    5656    5650    5649    5653

       0 !NIMPHI: impropers 


       0 !NDON: donors 


       0 !NACC: acceptors 


       0 !NNB 


       0 !NGRP 
