PSF 

       3 !NTITLE
 REMARKS this file butane_GEMC_N1000_box1 - created by using MoSDeF-GOMC. 
 REMARKS parameters from the {'BUT': '/home/ia5498/opc_water/gmx-units-trappe-mie.xml'} force field via MoSDef
 REMARKS created on 2026-08-06 15:36:04.785387


     800 !NATOM
       1 A    1    BUT  BD1  CH30     0.000000       15.0344           
       2 A    1    BUT  BD2  CH20     0.000000       14.0266           
       3 A    1    BUT  BD3  CH20     0.000000       14.0266           
       4 A    1    BUT  BD4  CH30     0.000000       15.0344           
       5 A    2    BUT  BD1  CH30     0.000000       15.0344           
       6 A    2    BUT  BD2  CH20     0.000000       14.0266           
       7 A    2    BUT  BD3  CH20     0.000000       14.0266           
       8 A    2    BUT  BD4  CH30     0.000000       15.0344           
       9 A    3    BUT  BD1  CH30     0.000000       15.0344           
      10 A    3    BUT  BD2  CH20     0.000000       14.0266           
      11 A    3    BUT  BD3  CH20     0.000000       14.0266           
      12 A    3    BUT  BD4  CH30     0.000000       15.0344           
      13 A    4    BUT  BD1  CH30     0.000000       15.0344           
      14 A    4    BUT  BD2  CH20     0.000000       14.0266           
      15 A    4    BUT  BD3  CH20     0.000000       14.0266           
      16 A    4    BUT  BD4  CH30     0.000000       15.0344           
      17 A    5    BUT  BD1  CH30     0.000000       15.0344           
      18 A    5    BUT  BD2  CH20     0.000000       14.0266           
      19 A    5    BUT  BD3  CH20     0.000000       14.0266           
      20 A    5    BUT  BD4  CH30     0.000000       15.0344           
      21 A    6    BUT  BD1  CH30     0.000000       15.0344           
      22 A    6    BUT  BD2  CH20     0.000000       14.0266           
      23 A    6    BUT  BD3  CH20     0.000000       14.0266           
      24 A    6    BUT  BD4  CH30     0.000000       15.0344           
      25 A    7    BUT  BD1  CH30     0.000000       15.0344           
      26 A    7    BUT  BD2  CH20     0.000000       14.0266           
      27 A    7    BUT  BD3  CH20     0.000000       14.0266           
      28 A    7    BUT  BD4  CH30     0.000000       15.0344           
      29 A    8    BUT  BD1  CH30     0.000000       15.0344           
      30 A    8    BUT  BD2  CH20     0.000000       14.0266           
      31 A    8    BUT  BD3  CH20     0.000000       14.0266           
      32 A    8    BUT  BD4  CH30     0.000000       15.0344           
      33 A    9    BUT  BD1  CH30     0.000000       15.0344           
      34 A    9    BUT  BD2  CH20     0.000000       14.0266           
      35 A    9    BUT  BD3  CH20     0.000000       14.0266           
      36 A    9    BUT  BD4  CH30     0.000000       15.0344           
      37 A    10   BUT  BD1  CH30     0.000000       15.0344           
      38 A    10   BUT  BD2  CH20     0.000000       14.0266           
      39 A    10   BUT  BD3  CH20     0.000000       14.0266           
      40 A    10   BUT  BD4  CH30     0.000000       15.0344           
      41 A    11   BUT  BD1  CH30     0.000000       15.0344           
      42 A    11   BUT  BD2  CH20     0.000000       14.0266           
      43 A    11   BUT  BD3  CH20     0.000000       14.0266           
      44 A    11   BUT  BD4  CH30     0.000000       15.0344           
      45 A    12   BUT  BD1  CH30     0.000000       15.0344           
      46 A    12   BUT  BD2  CH20     0.000000       14.0266           
      47 A    12   BUT  BD3  CH20     0.000000       14.0266           
      48 A    12   BUT  BD4  CH30     0.000000       15.0344           
      49 A    13   BUT  BD1  CH30     0.000000       15.0344           
      50 A    13   BUT  BD2  CH20     0.000000       14.0266           
      51 A    13   BUT  BD3  CH20     0.000000       14.0266           
      52 A    13   BUT  BD4  CH30     0.000000       15.0344           
      53 A    14   BUT  BD1  CH30     0.000000       15.0344           
      54 A    14   BUT  BD2  CH20     0.000000       14.0266           
      55 A    14   BUT  BD3  CH20     0.000000       14.0266           
      56 A    14   BUT  BD4  CH30     0.000000       15.0344           
      57 A    15   BUT  BD1  CH30     0.000000       15.0344           
      58 A    15   BUT  BD2  CH20     0.000000       14.0266           
      59 A    15   BUT  BD3  CH20     0.000000       14.0266           
      60 A    15   BUT  BD4  CH30     0.000000       15.0344           
      61 A    16   BUT  BD1  CH30     0.000000       15.0344           
      62 A    16   BUT  BD2  CH20     0.000000       14.0266           
      63 A    16   BUT  BD3  CH20     0.000000       14.0266           
      64 A    16   BUT  BD4  CH30     0.000000       15.0344           
      65 A    17   BUT  BD1  CH30     0.000000       15.0344           
      66 A    17   BUT  BD2  CH20     0.000000       14.0266           
      67 A    17   BUT  BD3  CH20     0.000000       14.0266           
      68 A    17   BUT  BD4  CH30     0.000000       15.0344           
      69 A    18   BUT  BD1  CH30     0.000000       15.0344           
      70 A    18   BUT  BD2  CH20     0.000000       14.0266           
      71 A    18   BUT  BD3  CH20     0.000000       14.0266           
      72 A    18   BUT  BD4  CH30     0.000000       15.0344           
      73 A    19   BUT  BD1  CH30     0.000000       15.0344           
      74 A    19   BUT  BD2  CH20     0.000000       14.0266           
      75 A    19   BUT  BD3  CH20     0.000000       14.0266           
      76 A    19   BUT  BD4  CH30     0.000000       15.0344           
      77 A    20   BUT  BD1  CH30     0.000000       15.0344           
      78 A    20   BUT  BD2  CH20     0.000000       14.0266           
      79 A    20   BUT  BD3  CH20     0.000000       14.0266           
      80 A    20   BUT  BD4  CH30     0.000000       15.0344           
      81 A    21   BUT  BD1  CH30     0.000000       15.0344           
      82 A    21   BUT  BD2  CH20     0.000000       14.0266           
      83 A    21   BUT  BD3  CH20     0.000000       14.0266           
      84 A    21   BUT  BD4  CH30     0.000000       15.0344           
      85 A    22   BUT  BD1  CH30     0.000000       15.0344           
      86 A    22   BUT  BD2  CH20     0.000000       14.0266           
      87 A    22   BUT  BD3  CH20     0.000000       14.0266           
      88 A    22   BUT  BD4  CH30     0.000000       15.0344           
      89 A    23   BUT  BD1  CH30     0.000000       15.0344           
      90 A    23   BUT  BD2  CH20     0.000000       14.0266           
      91 A    23   BUT  BD3  CH20     0.000000       14.0266           
      92 A    23   BUT  BD4  CH30     0.000000       15.0344           
      93 A    24   BUT  BD1  CH30     0.000000       15.0344           
      94 A    24   BUT  BD2  CH20     0.000000       14.0266           
      95 A    24   BUT  BD3  CH20     0.000000       14.0266           
      96 A    24   BUT  BD4  CH30     0.000000       15.0344           
      97 A    25   BUT  BD1  CH30     0.000000       15.0344           
      98 A    25   BUT  BD2  CH20     0.000000       14.0266           
      99 A    25   BUT  BD3  CH20     0.000000       14.0266           
     100 A    25   BUT  BD4  CH30     0.000000       15.0344           
     101 A    26   BUT  BD1  CH30     0.000000       15.0344           
     102 A    26   BUT  BD2  CH20     0.000000       14.0266           
     103 A    26   BUT  BD3  CH20     0.000000       14.0266           
     104 A    26   BUT  BD4  CH30     0.000000       15.0344           
     105 A    27   BUT  BD1  CH30     0.000000       15.0344           
     106 A    27   BUT  BD2  CH20     0.000000       14.0266           
     107 A    27   BUT  BD3  CH20     0.000000       14.0266           
     108 A    27   BUT  BD4  CH30     0.000000       15.0344           
     109 A    28   BUT  BD1  CH30     0.000000       15.0344           
     110 A    28   BUT  BD2  CH20     0.000000       14.0266           
     111 A    28   BUT  BD3  CH20     0.000000       14.0266           
     112 A    28   BUT  BD4  CH30     0.000000       15.0344           
     113 A    29   BUT  BD1  CH30     0.000000       15.0344           
     114 A    29   BUT  BD2  CH20     0.000000       14.0266           
     115 A    29   BUT  BD3  CH20     0.000000       14.0266           
     116 A    29   BUT  BD4  CH30     0.000000       15.0344           
     117 A    30   BUT  BD1  CH30     0.000000       15.0344           
     118 A    30   BUT  BD2  CH20     0.000000       14.0266           
     119 A    30   BUT  BD3  CH20     0.000000       14.0266           
     120 A    30   BUT  BD4  CH30     0.000000       15.0344           
     121 A    31   BUT  BD1  CH30     0.000000       15.0344           
     122 A    31   BUT  BD2  CH20     0.000000       14.0266           
     123 A    31   BUT  BD3  CH20     0.000000       14.0266           
     124 A    31   BUT  BD4  CH30     0.000000       15.0344           
     125 A    32   BUT  BD1  CH30     0.000000       15.0344           
     126 A    32   BUT  BD2  CH20     0.000000       14.0266           
     127 A    32   BUT  BD3  CH20     0.000000       14.0266           
     128 A    32   BUT  BD4  CH30     0.000000       15.0344           
     129 A    33   BUT  BD1  CH30     0.000000       15.0344           
     130 A    33   BUT  BD2  CH20     0.000000       14.0266           
     131 A    33   BUT  BD3  CH20     0.000000       14.0266           
     132 A    33   BUT  BD4  CH30     0.000000       15.0344           
     133 A    34   BUT  BD1  CH30     0.000000       15.0344           
     134 A    34   BUT  BD2  CH20     0.000000       14.0266           
     135 A    34   BUT  BD3  CH20     0.000000       14.0266           
     136 A    34   BUT  BD4  CH30     0.000000       15.0344           
     137 A    35   BUT  BD1  CH30     0.000000       15.0344           
     138 A    35   BUT  BD2  CH20     0.000000       14.0266           
     139 A    35   BUT  BD3  CH20     0.000000       14.0266           
     140 A    35   BUT  BD4  CH30     0.000000       15.0344           
     141 A    36   BUT  BD1  CH30     0.000000       15.0344           
     142 A    36   BUT  BD2  CH20     0.000000       14.0266           
     143 A    36   BUT  BD3  CH20     0.000000       14.0266           
     144 A    36   BUT  BD4  CH30     0.000000       15.0344           
     145 A    37   BUT  BD1  CH30     0.000000       15.0344           
     146 A    37   BUT  BD2  CH20     0.000000       14.0266           
     147 A    37   BUT  BD3  CH20     0.000000       14.0266           
     148 A    37   BUT  BD4  CH30     0.000000       15.0344           
     149 A    38   BUT  BD1  CH30     0.000000       15.0344           
     150 A    38   BUT  BD2  CH20     0.000000       14.0266           
     151 A    38   BUT  BD3  CH20     0.000000       14.0266           
     152 A    38   BUT  BD4  CH30     0.000000       15.0344           
     153 A    39   BUT  BD1  CH30     0.000000       15.0344           
     154 A    39   BUT  BD2  CH20     0.000000       14.0266           
     155 A    39   BUT  BD3  CH20     0.000000       14.0266           
     156 A    39   BUT  BD4  CH30     0.000000       15.0344           
     157 A    40   BUT  BD1  CH30     0.000000       15.0344           
     158 A    40   BUT  BD2  CH20     0.000000       14.0266           
     159 A    40   BUT  BD3  CH20     0.000000       14.0266           
     160 A    40   BUT  BD4  CH30     0.000000       15.0344           
     161 A    41   BUT  BD1  CH30     0.000000       15.0344           
     162 A    41   BUT  BD2  CH20     0.000000       14.0266           
     163 A    41   BUT  BD3  CH20     0.000000       14.0266           
     164 A    41   BUT  BD4  CH30     0.000000       15.0344           
     165 A    42   BUT  BD1  CH30     0.000000       15.0344           
     166 A    42   BUT  BD2  CH20     0.000000       14.0266           
     167 A    42   BUT  BD3  CH20     0.000000       14.0266           
     168 A    42   BUT  BD4  CH30     0.000000       15.0344           
     169 A    43   BUT  BD1  CH30     0.000000       15.0344           
     170 A    43   BUT  BD2  CH20     0.000000       14.0266           
     171 A    43   BUT  BD3  CH20     0.000000       14.0266           
     172 A    43   BUT  BD4  CH30     0.000000       15.0344           
     173 A    44   BUT  BD1  CH30     0.000000       15.0344           
     174 A    44   BUT  BD2  CH20     0.000000       14.0266           
     175 A    44   BUT  BD3  CH20     0.000000       14.0266           
     176 A    44   BUT  BD4  CH30     0.000000       15.0344           
     177 A    45   BUT  BD1  CH30     0.000000       15.0344           
     178 A    45   BUT  BD2  CH20     0.000000       14.0266           
     179 A    45   BUT  BD3  CH20     0.000000       14.0266           
     180 A    45   BUT  BD4  CH30     0.000000       15.0344           
     181 A    46   BUT  BD1  CH30     0.000000       15.0344           
     182 A    46   BUT  BD2  CH20     0.000000       14.0266           
     183 A    46   BUT  BD3  CH20     0.000000       14.0266           
     184 A    46   BUT  BD4  CH30     0.000000       15.0344           
     185 A    47   BUT  BD1  CH30     0.000000       15.0344           
     186 A    47   BUT  BD2  CH20     0.000000       14.0266           
     187 A    47   BUT  BD3  CH20     0.000000       14.0266           
     188 A    47   BUT  BD4  CH30     0.000000       15.0344           
     189 A    48   BUT  BD1  CH30     0.000000       15.0344           
     190 A    48   BUT  BD2  CH20     0.000000       14.0266           
     191 A    48   BUT  BD3  CH20     0.000000       14.0266           
     192 A    48   BUT  BD4  CH30     0.000000       15.0344           
     193 A    49   BUT  BD1  CH30     0.000000       15.0344           
     194 A    49   BUT  BD2  CH20     0.000000       14.0266           
     195 A    49   BUT  BD3  CH20     0.000000       14.0266           
     196 A    49   BUT  BD4  CH30     0.000000       15.0344           
     197 A    50   BUT  BD1  CH30     0.000000       15.0344           
     198 A    50   BUT  BD2  CH20     0.000000       14.0266           
     199 A    50   BUT  BD3  CH20     0.000000       14.0266           
     200 A    50   BUT  BD4  CH30     0.000000       15.0344           
     201 A    51   BUT  BD1  CH30     0.000000       15.0344           
     202 A    51   BUT  BD2  CH20     0.000000       14.0266           
     203 A    51   BUT  BD3  CH20     0.000000       14.0266           
     204 A    51   BUT  BD4  CH30     0.000000       15.0344           
     205 A    52   BUT  BD1  CH30     0.000000       15.0344           
     206 A    52   BUT  BD2  CH20     0.000000       14.0266           
     207 A    52   BUT  BD3  CH20     0.000000       14.0266           
     208 A    52   BUT  BD4  CH30     0.000000       15.0344           
     209 A    53   BUT  BD1  CH30     0.000000       15.0344           
     210 A    53   BUT  BD2  CH20     0.000000       14.0266           
     211 A    53   BUT  BD3  CH20     0.000000       14.0266           
     212 A    53   BUT  BD4  CH30     0.000000       15.0344           
     213 A    54   BUT  BD1  CH30     0.000000       15.0344           
     214 A    54   BUT  BD2  CH20     0.000000       14.0266           
     215 A    54   BUT  BD3  CH20     0.000000       14.0266           
     216 A    54   BUT  BD4  CH30     0.000000       15.0344           
     217 A    55   BUT  BD1  CH30     0.000000       15.0344           
     218 A    55   BUT  BD2  CH20     0.000000       14.0266           
     219 A    55   BUT  BD3  CH20     0.000000       14.0266           
     220 A    55   BUT  BD4  CH30     0.000000       15.0344           
     221 A    56   BUT  BD1  CH30     0.000000       15.0344           
     222 A    56   BUT  BD2  CH20     0.000000       14.0266           
     223 A    56   BUT  BD3  CH20     0.000000       14.0266           
     224 A    56   BUT  BD4  CH30     0.000000       15.0344           
     225 A    57   BUT  BD1  CH30     0.000000       15.0344           
     226 A    57   BUT  BD2  CH20     0.000000       14.0266           
     227 A    57   BUT  BD3  CH20     0.000000       14.0266           
     228 A    57   BUT  BD4  CH30     0.000000       15.0344           
     229 A    58   BUT  BD1  CH30     0.000000       15.0344           
     230 A    58   BUT  BD2  CH20     0.000000       14.0266           
     231 A    58   BUT  BD3  CH20     0.000000       14.0266           
     232 A    58   BUT  BD4  CH30     0.000000       15.0344           
     233 A    59   BUT  BD1  CH30     0.000000       15.0344           
     234 A    59   BUT  BD2  CH20     0.000000       14.0266           
     235 A    59   BUT  BD3  CH20     0.000000       14.0266           
     236 A    59   BUT  BD4  CH30     0.000000       15.0344           
     237 A    60   BUT  BD1  CH30     0.000000       15.0344           
     238 A    60   BUT  BD2  CH20     0.000000       14.0266           
     239 A    60   BUT  BD3  CH20     0.000000       14.0266           
     240 A    60   BUT  BD4  CH30     0.000000       15.0344           
     241 A    61   BUT  BD1  CH30     0.000000       15.0344           
     242 A    61   BUT  BD2  CH20     0.000000       14.0266           
     243 A    61   BUT  BD3  CH20     0.000000       14.0266           
     244 A    61   BUT  BD4  CH30     0.000000       15.0344           
     245 A    62   BUT  BD1  CH30     0.000000       15.0344           
     246 A    62   BUT  BD2  CH20     0.000000       14.0266           
     247 A    62   BUT  BD3  CH20     0.000000       14.0266           
     248 A    62   BUT  BD4  CH30     0.000000       15.0344           
     249 A    63   BUT  BD1  CH30     0.000000       15.0344           
     250 A    63   BUT  BD2  CH20     0.000000       14.0266           
     251 A    63   BUT  BD3  CH20     0.000000       14.0266           
     252 A    63   BUT  BD4  CH30     0.000000       15.0344           
     253 A    64   BUT  BD1  CH30     0.000000       15.0344           
     254 A    64   BUT  BD2  CH20     0.000000       14.0266           
     255 A    64   BUT  BD3  CH20     0.000000       14.0266           
     256 A    64   BUT  BD4  CH30     0.000000       15.0344           
     257 A    65   BUT  BD1  CH30     0.000000       15.0344           
     258 A    65   BUT  BD2  CH20     0.000000       14.0266           
     259 A    65   BUT  BD3  CH20     0.000000       14.0266           
     260 A    65   BUT  BD4  CH30     0.000000       15.0344           
     261 A    66   BUT  BD1  CH30     0.000000       15.0344           
     262 A    66   BUT  BD2  CH20     0.000000       14.0266           
     263 A    66   BUT  BD3  CH20     0.000000       14.0266           
     264 A    66   BUT  BD4  CH30     0.000000       15.0344           
     265 A    67   BUT  BD1  CH30     0.000000       15.0344           
     266 A    67   BUT  BD2  CH20     0.000000       14.0266           
     267 A    67   BUT  BD3  CH20     0.000000       14.0266           
     268 A    67   BUT  BD4  CH30     0.000000       15.0344           
     269 A    68   BUT  BD1  CH30     0.000000       15.0344           
     270 A    68   BUT  BD2  CH20     0.000000       14.0266           
     271 A    68   BUT  BD3  CH20     0.000000       14.0266           
     272 A    68   BUT  BD4  CH30     0.000000       15.0344           
     273 A    69   BUT  BD1  CH30     0.000000       15.0344           
     274 A    69   BUT  BD2  CH20     0.000000       14.0266           
     275 A    69   BUT  BD3  CH20     0.000000       14.0266           
     276 A    69   BUT  BD4  CH30     0.000000       15.0344           
     277 A    70   BUT  BD1  CH30     0.000000       15.0344           
     278 A    70   BUT  BD2  CH20     0.000000       14.0266           
     279 A    70   BUT  BD3  CH20     0.000000       14.0266           
     280 A    70   BUT  BD4  CH30     0.000000       15.0344           
     281 A    71   BUT  BD1  CH30     0.000000       15.0344           
     282 A    71   BUT  BD2  CH20     0.000000       14.0266           
     283 A    71   BUT  BD3  CH20     0.000000       14.0266           
     284 A    71   BUT  BD4  CH30     0.000000       15.0344           
     285 A    72   BUT  BD1  CH30     0.000000       15.0344           
     286 A    72   BUT  BD2  CH20     0.000000       14.0266           
     287 A    72   BUT  BD3  CH20     0.000000       14.0266           
     288 A    72   BUT  BD4  CH30     0.000000       15.0344           
     289 A    73   BUT  BD1  CH30     0.000000       15.0344           
     290 A    73   BUT  BD2  CH20     0.000000       14.0266           
     291 A    73   BUT  BD3  CH20     0.000000       14.0266           
     292 A    73   BUT  BD4  CH30     0.000000       15.0344           
     293 A    74   BUT  BD1  CH30     0.000000       15.0344           
     294 A    74   BUT  BD2  CH20     0.000000       14.0266           
     295 A    74   BUT  BD3  CH20     0.000000       14.0266           
     296 A    74   BUT  BD4  CH30     0.000000       15.0344           
     297 A    75   BUT  BD1  CH30     0.000000       15.0344           
     298 A    75   BUT  BD2  CH20     0.000000       14.0266           
     299 A    75   BUT  BD3  CH20     0.000000       14.0266           
     300 A    75   BUT  BD4  CH30     0.000000       15.0344           
     301 A    76   BUT  BD1  CH30     0.000000       15.0344           
     302 A    76   BUT  BD2  CH20     0.000000       14.0266           
     303 A    76   BUT  BD3  CH20     0.000000       14.0266           
     304 A    76   BUT  BD4  CH30     0.000000       15.0344           
     305 A    77   BUT  BD1  CH30     0.000000       15.0344           
     306 A    77   BUT  BD2  CH20     0.000000       14.0266           
     307 A    77   BUT  BD3  CH20     0.000000       14.0266           
     308 A    77   BUT  BD4  CH30     0.000000       15.0344           
     309 A    78   BUT  BD1  CH30     0.000000       15.0344           
     310 A    78   BUT  BD2  CH20     0.000000       14.0266           
     311 A    78   BUT  BD3  CH20     0.000000       14.0266           
     312 A    78   BUT  BD4  CH30     0.000000       15.0344           
     313 A    79   BUT  BD1  CH30     0.000000       15.0344           
     314 A    79   BUT  BD2  CH20     0.000000       14.0266           
     315 A    79   BUT  BD3  CH20     0.000000       14.0266           
     316 A    79   BUT  BD4  CH30     0.000000       15.0344           
     317 A    80   BUT  BD1  CH30     0.000000       15.0344           
     318 A    80   BUT  BD2  CH20     0.000000       14.0266           
     319 A    80   BUT  BD3  CH20     0.000000       14.0266           
     320 A    80   BUT  BD4  CH30     0.000000       15.0344           
     321 A    81   BUT  BD1  CH30     0.000000       15.0344           
     322 A    81   BUT  BD2  CH20     0.000000       14.0266           
     323 A    81   BUT  BD3  CH20     0.000000       14.0266           
     324 A    81   BUT  BD4  CH30     0.000000       15.0344           
     325 A    82   BUT  BD1  CH30     0.000000       15.0344           
     326 A    82   BUT  BD2  CH20     0.000000       14.0266           
     327 A    82   BUT  BD3  CH20     0.000000       14.0266           
     328 A    82   BUT  BD4  CH30     0.000000       15.0344           
     329 A    83   BUT  BD1  CH30     0.000000       15.0344           
     330 A    83   BUT  BD2  CH20     0.000000       14.0266           
     331 A    83   BUT  BD3  CH20     0.000000       14.0266           
     332 A    83   BUT  BD4  CH30     0.000000       15.0344           
     333 A    84   BUT  BD1  CH30     0.000000       15.0344           
     334 A    84   BUT  BD2  CH20     0.000000       14.0266           
     335 A    84   BUT  BD3  CH20     0.000000       14.0266           
     336 A    84   BUT  BD4  CH30     0.000000       15.0344           
     337 A    85   BUT  BD1  CH30     0.000000       15.0344           
     338 A    85   BUT  BD2  CH20     0.000000       14.0266           
     339 A    85   BUT  BD3  CH20     0.000000       14.0266           
     340 A    85   BUT  BD4  CH30     0.000000       15.0344           
     341 A    86   BUT  BD1  CH30     0.000000       15.0344           
     342 A    86   BUT  BD2  CH20     0.000000       14.0266           
     343 A    86   BUT  BD3  CH20     0.000000       14.0266           
     344 A    86   BUT  BD4  CH30     0.000000       15.0344           
     345 A    87   BUT  BD1  CH30     0.000000       15.0344           
     346 A    87   BUT  BD2  CH20     0.000000       14.0266           
     347 A    87   BUT  BD3  CH20     0.000000       14.0266           
     348 A    87   BUT  BD4  CH30     0.000000       15.0344           
     349 A    88   BUT  BD1  CH30     0.000000       15.0344           
     350 A    88   BUT  BD2  CH20     0.000000       14.0266           
     351 A    88   BUT  BD3  CH20     0.000000       14.0266           
     352 A    88   BUT  BD4  CH30     0.000000       15.0344           
     353 A    89   BUT  BD1  CH30     0.000000       15.0344           
     354 A    89   BUT  BD2  CH20     0.000000       14.0266           
     355 A    89   BUT  BD3  CH20     0.000000       14.0266           
     356 A    89   BUT  BD4  CH30     0.000000       15.0344           
     357 A    90   BUT  BD1  CH30     0.000000       15.0344           
     358 A    90   BUT  BD2  CH20     0.000000       14.0266           
     359 A    90   BUT  BD3  CH20     0.000000       14.0266           
     360 A    90   BUT  BD4  CH30     0.000000       15.0344           
     361 A    91   BUT  BD1  CH30     0.000000       15.0344           
     362 A    91   BUT  BD2  CH20     0.000000       14.0266           
     363 A    91   BUT  BD3  CH20     0.000000       14.0266           
     364 A    91   BUT  BD4  CH30     0.000000       15.0344           
     365 A    92   BUT  BD1  CH30     0.000000       15.0344           
     366 A    92   BUT  BD2  CH20     0.000000       14.0266           
     367 A    92   BUT  BD3  CH20     0.000000       14.0266           
     368 A    92   BUT  BD4  CH30     0.000000       15.0344           
     369 A    93   BUT  BD1  CH30     0.000000       15.0344           
     370 A    93   BUT  BD2  CH20     0.000000       14.0266           
     371 A    93   BUT  BD3  CH20     0.000000       14.0266           
     372 A    93   BUT  BD4  CH30     0.000000       15.0344           
     373 A    94   BUT  BD1  CH30     0.000000       15.0344           
     374 A    94   BUT  BD2  CH20     0.000000       14.0266           
     375 A    94   BUT  BD3  CH20     0.000000       14.0266           
     376 A    94   BUT  BD4  CH30     0.000000       15.0344           
     377 A    95   BUT  BD1  CH30     0.000000       15.0344           
     378 A    95   BUT  BD2  CH20     0.000000       14.0266           
     379 A    95   BUT  BD3  CH20     0.000000       14.0266           
     380 A    95   BUT  BD4  CH30     0.000000       15.0344           
     381 A    96   BUT  BD1  CH30     0.000000       15.0344           
     382 A    96   BUT  BD2  CH20     0.000000       14.0266           
     383 A    96   BUT  BD3  CH20     0.000000       14.0266           
     384 A    96   BUT  BD4  CH30     0.000000       15.0344           
     385 A    97   BUT  BD1  CH30     0.000000       15.0344           
     386 A    97   BUT  BD2  CH20     0.000000       14.0266           
     387 A    97   BUT  BD3  CH20     0.000000       14.0266           
     388 A    97   BUT  BD4  CH30     0.000000       15.0344           
     389 A    98   BUT  BD1  CH30     0.000000       15.0344           
     390 A    98   BUT  BD2  CH20     0.000000       14.0266           
     391 A    98   BUT  BD3  CH20     0.000000       14.0266           
     392 A    98   BUT  BD4  CH30     0.000000       15.0344           
     393 A    99   BUT  BD1  CH30     0.000000       15.0344           
     394 A    99   BUT  BD2  CH20     0.000000       14.0266           
     395 A    99   BUT  BD3  CH20     0.000000       14.0266           
     396 A    99   BUT  BD4  CH30     0.000000       15.0344           
     397 A    100  BUT  BD1  CH30     0.000000       15.0344           
     398 A    100  BUT  BD2  CH20     0.000000       14.0266           
     399 A    100  BUT  BD3  CH20     0.000000       14.0266           
     400 A    100  BUT  BD4  CH30     0.000000       15.0344           
     401 A    101  BUT  BD1  CH30     0.000000       15.0344           
     402 A    101  BUT  BD2  CH20     0.000000       14.0266           
     403 A    101  BUT  BD3  CH20     0.000000       14.0266           
     404 A    101  BUT  BD4  CH30     0.000000       15.0344           
     405 A    102  BUT  BD1  CH30     0.000000       15.0344           
     406 A    102  BUT  BD2  CH20     0.000000       14.0266           
     407 A    102  BUT  BD3  CH20     0.000000       14.0266           
     408 A    102  BUT  BD4  CH30     0.000000       15.0344           
     409 A    103  BUT  BD1  CH30     0.000000       15.0344           
     410 A    103  BUT  BD2  CH20     0.000000       14.0266           
     411 A    103  BUT  BD3  CH20     0.000000       14.0266           
     412 A    103  BUT  BD4  CH30     0.000000       15.0344           
     413 A    104  BUT  BD1  CH30     0.000000       15.0344           
     414 A    104  BUT  BD2  CH20     0.000000       14.0266           
     415 A    104  BUT  BD3  CH20     0.000000       14.0266           
     416 A    104  BUT  BD4  CH30     0.000000       15.0344           
     417 A    105  BUT  BD1  CH30     0.000000       15.0344           
     418 A    105  BUT  BD2  CH20     0.000000       14.0266           
     419 A    105  BUT  BD3  CH20     0.000000       14.0266           
     420 A    105  BUT  BD4  CH30     0.000000       15.0344           
     421 A    106  BUT  BD1  CH30     0.000000       15.0344           
     422 A    106  BUT  BD2  CH20     0.000000       14.0266           
     423 A    106  BUT  BD3  CH20     0.000000       14.0266           
     424 A    106  BUT  BD4  CH30     0.000000       15.0344           
     425 A    107  BUT  BD1  CH30     0.000000       15.0344           
     426 A    107  BUT  BD2  CH20     0.000000       14.0266           
     427 A    107  BUT  BD3  CH20     0.000000       14.0266           
     428 A    107  BUT  BD4  CH30     0.000000       15.0344           
     429 A    108  BUT  BD1  CH30     0.000000       15.0344           
     430 A    108  BUT  BD2  CH20     0.000000       14.0266           
     431 A    108  BUT  BD3  CH20     0.000000       14.0266           
     432 A    108  BUT  BD4  CH30     0.000000       15.0344           
     433 A    109  BUT  BD1  CH30     0.000000       15.0344           
     434 A    109  BUT  BD2  CH20     0.000000       14.0266           
     435 A    109  BUT  BD3  CH20     0.000000       14.0266           
     436 A    109  BUT  BD4  CH30     0.000000       15.0344           
     437 A    110  BUT  BD1  CH30     0.000000       15.0344           
     438 A    110  BUT  BD2  CH20     0.000000       14.0266           
     439 A    110  BUT  BD3  CH20     0.000000       14.0266           
     440 A    110  BUT  BD4  CH30     0.000000       15.0344           
     441 A    111  BUT  BD1  CH30     0.000000       15.0344           
     442 A    111  BUT  BD2  CH20     0.000000       14.0266           
     443 A    111  BUT  BD3  CH20     0.000000       14.0266           
     444 A    111  BUT  BD4  CH30     0.000000       15.0344           
     445 A    112  BUT  BD1  CH30     0.000000       15.0344           
     446 A    112  BUT  BD2  CH20     0.000000       14.0266           
     447 A    112  BUT  BD3  CH20     0.000000       14.0266           
     448 A    112  BUT  BD4  CH30     0.000000       15.0344           
     449 A    113  BUT  BD1  CH30     0.000000       15.0344           
     450 A    113  BUT  BD2  CH20     0.000000       14.0266           
     451 A    113  BUT  BD3  CH20     0.000000       14.0266           
     452 A    113  BUT  BD4  CH30     0.000000       15.0344           
     453 A    114  BUT  BD1  CH30     0.000000       15.0344           
     454 A    114  BUT  BD2  CH20     0.000000       14.0266           
     455 A    114  BUT  BD3  CH20     0.000000       14.0266           
     456 A    114  BUT  BD4  CH30     0.000000       15.0344           
     457 A    115  BUT  BD1  CH30     0.000000       15.0344           
     458 A    115  BUT  BD2  CH20     0.000000       14.0266           
     459 A    115  BUT  BD3  CH20     0.000000       14.0266           
     460 A    115  BUT  BD4  CH30     0.000000       15.0344           
     461 A    116  BUT  BD1  CH30     0.000000       15.0344           
     462 A    116  BUT  BD2  CH20     0.000000       14.0266           
     463 A    116  BUT  BD3  CH20     0.000000       14.0266           
     464 A    116  BUT  BD4  CH30     0.000000       15.0344           
     465 A    117  BUT  BD1  CH30     0.000000       15.0344           
     466 A    117  BUT  BD2  CH20     0.000000       14.0266           
     467 A    117  BUT  BD3  CH20     0.000000       14.0266           
     468 A    117  BUT  BD4  CH30     0.000000       15.0344           
     469 A    118  BUT  BD1  CH30     0.000000       15.0344           
     470 A    118  BUT  BD2  CH20     0.000000       14.0266           
     471 A    118  BUT  BD3  CH20     0.000000       14.0266           
     472 A    118  BUT  BD4  CH30     0.000000       15.0344           
     473 A    119  BUT  BD1  CH30     0.000000       15.0344           
     474 A    119  BUT  BD2  CH20     0.000000       14.0266           
     475 A    119  BUT  BD3  CH20     0.000000       14.0266           
     476 A    119  BUT  BD4  CH30     0.000000       15.0344           
     477 A    120  BUT  BD1  CH30     0.000000       15.0344           
     478 A    120  BUT  BD2  CH20     0.000000       14.0266           
     479 A    120  BUT  BD3  CH20     0.000000       14.0266           
     480 A    120  BUT  BD4  CH30     0.000000       15.0344           
     481 A    121  BUT  BD1  CH30     0.000000       15.0344           
     482 A    121  BUT  BD2  CH20     0.000000       14.0266           
     483 A    121  BUT  BD3  CH20     0.000000       14.0266           
     484 A    121  BUT  BD4  CH30     0.000000       15.0344           
     485 A    122  BUT  BD1  CH30     0.000000       15.0344           
     486 A    122  BUT  BD2  CH20     0.000000       14.0266           
     487 A    122  BUT  BD3  CH20     0.000000       14.0266           
     488 A    122  BUT  BD4  CH30     0.000000       15.0344           
     489 A    123  BUT  BD1  CH30     0.000000       15.0344           
     490 A    123  BUT  BD2  CH20     0.000000       14.0266           
     491 A    123  BUT  BD3  CH20     0.000000       14.0266           
     492 A    123  BUT  BD4  CH30     0.000000       15.0344           
     493 A    124  BUT  BD1  CH30     0.000000       15.0344           
     494 A    124  BUT  BD2  CH20     0.000000       14.0266           
     495 A    124  BUT  BD3  CH20     0.000000       14.0266           
     496 A    124  BUT  BD4  CH30     0.000000       15.0344           
     497 A    125  BUT  BD1  CH30     0.000000       15.0344           
     498 A    125  BUT  BD2  CH20     0.000000       14.0266           
     499 A    125  BUT  BD3  CH20     0.000000       14.0266           
     500 A    125  BUT  BD4  CH30     0.000000       15.0344           
     501 A    126  BUT  BD1  CH30     0.000000       15.0344           
     502 A    126  BUT  BD2  CH20     0.000000       14.0266           
     503 A    126  BUT  BD3  CH20     0.000000       14.0266           
     504 A    126  BUT  BD4  CH30     0.000000       15.0344           
     505 A    127  BUT  BD1  CH30     0.000000       15.0344           
     506 A    127  BUT  BD2  CH20     0.000000       14.0266           
     507 A    127  BUT  BD3  CH20     0.000000       14.0266           
     508 A    127  BUT  BD4  CH30     0.000000       15.0344           
     509 A    128  BUT  BD1  CH30     0.000000       15.0344           
     510 A    128  BUT  BD2  CH20     0.000000       14.0266           
     511 A    128  BUT  BD3  CH20     0.000000       14.0266           
     512 A    128  BUT  BD4  CH30     0.000000       15.0344           
     513 A    129  BUT  BD1  CH30     0.000000       15.0344           
     514 A    129  BUT  BD2  CH20     0.000000       14.0266           
     515 A    129  BUT  BD3  CH20     0.000000       14.0266           
     516 A    129  BUT  BD4  CH30     0.000000       15.0344           
     517 A    130  BUT  BD1  CH30     0.000000       15.0344           
     518 A    130  BUT  BD2  CH20     0.000000       14.0266           
     519 A    130  BUT  BD3  CH20     0.000000       14.0266           
     520 A    130  BUT  BD4  CH30     0.000000       15.0344           
     521 A    131  BUT  BD1  CH30     0.000000       15.0344           
     522 A    131  BUT  BD2  CH20     0.000000       14.0266           
     523 A    131  BUT  BD3  CH20     0.000000       14.0266           
     524 A    131  BUT  BD4  CH30     0.000000       15.0344           
     525 A    132  BUT  BD1  CH30     0.000000       15.0344           
     526 A    132  BUT  BD2  CH20     0.000000       14.0266           
     527 A    132  BUT  BD3  CH20     0.000000       14.0266           
     528 A    132  BUT  BD4  CH30     0.000000       15.0344           
     529 A    133  BUT  BD1  CH30     0.000000       15.0344           
     530 A    133  BUT  BD2  CH20     0.000000       14.0266           
     531 A    133  BUT  BD3  CH20     0.000000       14.0266           
     532 A    133  BUT  BD4  CH30     0.000000       15.0344           
     533 A    134  BUT  BD1  CH30     0.000000       15.0344           
     534 A    134  BUT  BD2  CH20     0.000000       14.0266           
     535 A    134  BUT  BD3  CH20     0.000000       14.0266           
     536 A    134  BUT  BD4  CH30     0.000000       15.0344           
     537 A    135  BUT  BD1  CH30     0.000000       15.0344           
     538 A    135  BUT  BD2  CH20     0.000000       14.0266           
     539 A    135  BUT  BD3  CH20     0.000000       14.0266           
     540 A    135  BUT  BD4  CH30     0.000000       15.0344           
     541 A    136  BUT  BD1  CH30     0.000000       15.0344           
     542 A    136  BUT  BD2  CH20     0.000000       14.0266           
     543 A    136  BUT  BD3  CH20     0.000000       14.0266           
     544 A    136  BUT  BD4  CH30     0.000000       15.0344           
     545 A    137  BUT  BD1  CH30     0.000000       15.0344           
     546 A    137  BUT  BD2  CH20     0.000000       14.0266           
     547 A    137  BUT  BD3  CH20     0.000000       14.0266           
     548 A    137  BUT  BD4  CH30     0.000000       15.0344           
     549 A    138  BUT  BD1  CH30     0.000000       15.0344           
     550 A    138  BUT  BD2  CH20     0.000000       14.0266           
     551 A    138  BUT  BD3  CH20     0.000000       14.0266           
     552 A    138  BUT  BD4  CH30     0.000000       15.0344           
     553 A    139  BUT  BD1  CH30     0.000000       15.0344           
     554 A    139  BUT  BD2  CH20     0.000000       14.0266           
     555 A    139  BUT  BD3  CH20     0.000000       14.0266           
     556 A    139  BUT  BD4  CH30     0.000000       15.0344           
     557 A    140  BUT  BD1  CH30     0.000000       15.0344           
     558 A    140  BUT  BD2  CH20     0.000000       14.0266           
     559 A    140  BUT  BD3  CH20     0.000000       14.0266           
     560 A    140  BUT  BD4  CH30     0.000000       15.0344           
     561 A    141  BUT  BD1  CH30     0.000000       15.0344           
     562 A    141  BUT  BD2  CH20     0.000000       14.0266           
     563 A    141  BUT  BD3  CH20     0.000000       14.0266           
     564 A    141  BUT  BD4  CH30     0.000000       15.0344           
     565 A    142  BUT  BD1  CH30     0.000000       15.0344           
     566 A    142  BUT  BD2  CH20     0.000000       14.0266           
     567 A    142  BUT  BD3  CH20     0.000000       14.0266           
     568 A    142  BUT  BD4  CH30     0.000000       15.0344           
     569 A    143  BUT  BD1  CH30     0.000000       15.0344           
     570 A    143  BUT  BD2  CH20     0.000000       14.0266           
     571 A    143  BUT  BD3  CH20     0.000000       14.0266           
     572 A    143  BUT  BD4  CH30     0.000000       15.0344           
     573 A    144  BUT  BD1  CH30     0.000000       15.0344           
     574 A    144  BUT  BD2  CH20     0.000000       14.0266           
     575 A    144  BUT  BD3  CH20     0.000000       14.0266           
     576 A    144  BUT  BD4  CH30     0.000000       15.0344           
     577 A    145  BUT  BD1  CH30     0.000000       15.0344           
     578 A    145  BUT  BD2  CH20     0.000000       14.0266           
     579 A    145  BUT  BD3  CH20     0.000000       14.0266           
     580 A    145  BUT  BD4  CH30     0.000000       15.0344           
     581 A    146  BUT  BD1  CH30     0.000000       15.0344           
     582 A    146  BUT  BD2  CH20     0.000000       14.0266           
     583 A    146  BUT  BD3  CH20     0.000000       14.0266           
     584 A    146  BUT  BD4  CH30     0.000000       15.0344           
     585 A    147  BUT  BD1  CH30     0.000000       15.0344           
     586 A    147  BUT  BD2  CH20     0.000000       14.0266           
     587 A    147  BUT  BD3  CH20     0.000000       14.0266           
     588 A    147  BUT  BD4  CH30     0.000000       15.0344           
     589 A    148  BUT  BD1  CH30     0.000000       15.0344           
     590 A    148  BUT  BD2  CH20     0.000000       14.0266           
     591 A    148  BUT  BD3  CH20     0.000000       14.0266           
     592 A    148  BUT  BD4  CH30     0.000000       15.0344           
     593 A    149  BUT  BD1  CH30     0.000000       15.0344           
     594 A    149  BUT  BD2  CH20     0.000000       14.0266           
     595 A    149  BUT  BD3  CH20     0.000000       14.0266           
     596 A    149  BUT  BD4  CH30     0.000000       15.0344           
     597 A    150  BUT  BD1  CH30     0.000000       15.0344           
     598 A    150  BUT  BD2  CH20     0.000000       14.0266           
     599 A    150  BUT  BD3  CH20     0.000000       14.0266           
     600 A    150  BUT  BD4  CH30     0.000000       15.0344           
     601 A    151  BUT  BD1  CH30     0.000000       15.0344           
     602 A    151  BUT  BD2  CH20     0.000000       14.0266           
     603 A    151  BUT  BD3  CH20     0.000000       14.0266           
     604 A    151  BUT  BD4  CH30     0.000000       15.0344           
     605 A    152  BUT  BD1  CH30     0.000000       15.0344           
     606 A    152  BUT  BD2  CH20     0.000000       14.0266           
     607 A    152  BUT  BD3  CH20     0.000000       14.0266           
     608 A    152  BUT  BD4  CH30     0.000000       15.0344           
     609 A    153  BUT  BD1  CH30     0.000000       15.0344           
     610 A    153  BUT  BD2  CH20     0.000000       14.0266           
     611 A    153  BUT  BD3  CH20     0.000000       14.0266           
     612 A    153  BUT  BD4  CH30     0.000000       15.0344           
     613 A    154  BUT  BD1  CH30     0.000000       15.0344           
     614 A    154  BUT  BD2  CH20     0.000000       14.0266           
     615 A    154  BUT  BD3  CH20     0.000000       14.0266           
     616 A    154  BUT  BD4  CH30     0.000000       15.0344           
     617 A    155  BUT  BD1  CH30     0.000000       15.0344           
     618 A    155  BUT  BD2  CH20     0.000000       14.0266           
     619 A    155  BUT  BD3  CH20     0.000000       14.0266           
     620 A    155  BUT  BD4  CH30     0.000000       15.0344           
     621 A    156  BUT  BD1  CH30     0.000000       15.0344           
     622 A    156  BUT  BD2  CH20     0.000000       14.0266           
     623 A    156  BUT  BD3  CH20     0.000000       14.0266           
     624 A    156  BUT  BD4  CH30     0.000000       15.0344           
     625 A    157  BUT  BD1  CH30     0.000000       15.0344           
     626 A    157  BUT  BD2  CH20     0.000000       14.0266           
     627 A    157  BUT  BD3  CH20     0.000000       14.0266           
     628 A    157  BUT  BD4  CH30     0.000000       15.0344           
     629 A    158  BUT  BD1  CH30     0.000000       15.0344           
     630 A    158  BUT  BD2  CH20     0.000000       14.0266           
     631 A    158  BUT  BD3  CH20     0.000000       14.0266           
     632 A    158  BUT  BD4  CH30     0.000000       15.0344           
     633 A    159  BUT  BD1  CH30     0.000000       15.0344           
     634 A    159  BUT  BD2  CH20     0.000000       14.0266           
     635 A    159  BUT  BD3  CH20     0.000000       14.0266           
     636 A    159  BUT  BD4  CH30     0.000000       15.0344           
     637 A    160  BUT  BD1  CH30     0.000000       15.0344           
     638 A    160  BUT  BD2  CH20     0.000000       14.0266           
     639 A    160  BUT  BD3  CH20     0.000000       14.0266           
     640 A    160  BUT  BD4  CH30     0.000000       15.0344           
     641 A    161  BUT  BD1  CH30     0.000000       15.0344           
     642 A    161  BUT  BD2  CH20     0.000000       14.0266           
     643 A    161  BUT  BD3  CH20     0.000000       14.0266           
     644 A    161  BUT  BD4  CH30     0.000000       15.0344           
     645 A    162  BUT  BD1  CH30     0.000000       15.0344           
     646 A    162  BUT  BD2  CH20     0.000000       14.0266           
     647 A    162  BUT  BD3  CH20     0.000000       14.0266           
     648 A    162  BUT  BD4  CH30     0.000000       15.0344           
     649 A    163  BUT  BD1  CH30     0.000000       15.0344           
     650 A    163  BUT  BD2  CH20     0.000000       14.0266           
     651 A    163  BUT  BD3  CH20     0.000000       14.0266           
     652 A    163  BUT  BD4  CH30     0.000000       15.0344           
     653 A    164  BUT  BD1  CH30     0.000000       15.0344           
     654 A    164  BUT  BD2  CH20     0.000000       14.0266           
     655 A    164  BUT  BD3  CH20     0.000000       14.0266           
     656 A    164  BUT  BD4  CH30     0.000000       15.0344           
     657 A    165  BUT  BD1  CH30     0.000000       15.0344           
     658 A    165  BUT  BD2  CH20     0.000000       14.0266           
     659 A    165  BUT  BD3  CH20     0.000000       14.0266           
     660 A    165  BUT  BD4  CH30     0.000000       15.0344           
     661 A    166  BUT  BD1  CH30     0.000000       15.0344           
     662 A    166  BUT  BD2  CH20     0.000000       14.0266           
     663 A    166  BUT  BD3  CH20     0.000000       14.0266           
     664 A    166  BUT  BD4  CH30     0.000000       15.0344           
     665 A    167  BUT  BD1  CH30     0.000000       15.0344           
     666 A    167  BUT  BD2  CH20     0.000000       14.0266           
     667 A    167  BUT  BD3  CH20     0.000000       14.0266           
     668 A    167  BUT  BD4  CH30     0.000000       15.0344           
     669 A    168  BUT  BD1  CH30     0.000000       15.0344           
     670 A    168  BUT  BD2  CH20     0.000000       14.0266           
     671 A    168  BUT  BD3  CH20     0.000000       14.0266           
     672 A    168  BUT  BD4  CH30     0.000000       15.0344           
     673 A    169  BUT  BD1  CH30     0.000000       15.0344           
     674 A    169  BUT  BD2  CH20     0.000000       14.0266           
     675 A    169  BUT  BD3  CH20     0.000000       14.0266           
     676 A    169  BUT  BD4  CH30     0.000000       15.0344           
     677 A    170  BUT  BD1  CH30     0.000000       15.0344           
     678 A    170  BUT  BD2  CH20     0.000000       14.0266           
     679 A    170  BUT  BD3  CH20     0.000000       14.0266           
     680 A    170  BUT  BD4  CH30     0.000000       15.0344           
     681 A    171  BUT  BD1  CH30     0.000000       15.0344           
     682 A    171  BUT  BD2  CH20     0.000000       14.0266           
     683 A    171  BUT  BD3  CH20     0.000000       14.0266           
     684 A    171  BUT  BD4  CH30     0.000000       15.0344           
     685 A    172  BUT  BD1  CH30     0.000000       15.0344           
     686 A    172  BUT  BD2  CH20     0.000000       14.0266           
     687 A    172  BUT  BD3  CH20     0.000000       14.0266           
     688 A    172  BUT  BD4  CH30     0.000000       15.0344           
     689 A    173  BUT  BD1  CH30     0.000000       15.0344           
     690 A    173  BUT  BD2  CH20     0.000000       14.0266           
     691 A    173  BUT  BD3  CH20     0.000000       14.0266           
     692 A    173  BUT  BD4  CH30     0.000000       15.0344           
     693 A    174  BUT  BD1  CH30     0.000000       15.0344           
     694 A    174  BUT  BD2  CH20     0.000000       14.0266           
     695 A    174  BUT  BD3  CH20     0.000000       14.0266           
     696 A    174  BUT  BD4  CH30     0.000000       15.0344           
     697 A    175  BUT  BD1  CH30     0.000000       15.0344           
     698 A    175  BUT  BD2  CH20     0.000000       14.0266           
     699 A    175  BUT  BD3  CH20     0.000000       14.0266           
     700 A    175  BUT  BD4  CH30     0.000000       15.0344           
     701 A    176  BUT  BD1  CH30     0.000000       15.0344           
     702 A    176  BUT  BD2  CH20     0.000000       14.0266           
     703 A    176  BUT  BD3  CH20     0.000000       14.0266           
     704 A    176  BUT  BD4  CH30     0.000000       15.0344           
     705 A    177  BUT  BD1  CH30     0.000000       15.0344           
     706 A    177  BUT  BD2  CH20     0.000000       14.0266           
     707 A    177  BUT  BD3  CH20     0.000000       14.0266           
     708 A    177  BUT  BD4  CH30     0.000000       15.0344           
     709 A    178  BUT  BD1  CH30     0.000000       15.0344           
     710 A    178  BUT  BD2  CH20     0.000000       14.0266           
     711 A    178  BUT  BD3  CH20     0.000000       14.0266           
     712 A    178  BUT  BD4  CH30     0.000000       15.0344           
     713 A    179  BUT  BD1  CH30     0.000000       15.0344           
     714 A    179  BUT  BD2  CH20     0.000000       14.0266           
     715 A    179  BUT  BD3  CH20     0.000000       14.0266           
     716 A    179  BUT  BD4  CH30     0.000000       15.0344           
     717 A    180  BUT  BD1  CH30     0.000000       15.0344           
     718 A    180  BUT  BD2  CH20     0.000000       14.0266           
     719 A    180  BUT  BD3  CH20     0.000000       14.0266           
     720 A    180  BUT  BD4  CH30     0.000000       15.0344           
     721 A    181  BUT  BD1  CH30     0.000000       15.0344           
     722 A    181  BUT  BD2  CH20     0.000000       14.0266           
     723 A    181  BUT  BD3  CH20     0.000000       14.0266           
     724 A    181  BUT  BD4  CH30     0.000000       15.0344           
     725 A    182  BUT  BD1  CH30     0.000000       15.0344           
     726 A    182  BUT  BD2  CH20     0.000000       14.0266           
     727 A    182  BUT  BD3  CH20     0.000000       14.0266           
     728 A    182  BUT  BD4  CH30     0.000000       15.0344           
     729 A    183  BUT  BD1  CH30     0.000000       15.0344           
     730 A    183  BUT  BD2  CH20     0.000000       14.0266           
     731 A    183  BUT  BD3  CH20     0.000000       14.0266           
     732 A    183  BUT  BD4  CH30     0.000000       15.0344           
     733 A    184  BUT  BD1  CH30     0.000000       15.0344           
     734 A    184  BUT  BD2  CH20     0.000000       14.0266           
     735 A    184  BUT  BD3  CH20     0.000000       14.0266           
     736 A    184  BUT  BD4  CH30     0.000000       15.0344           
     737 A    185  BUT  BD1  CH30     0.000000       15.0344           
     738 A    185  BUT  BD2  CH20     0.000000       14.0266           
     739 A    185  BUT  BD3  CH20     0.000000       14.0266           
     740 A    185  BUT  BD4  CH30     0.000000       15.0344           
     741 A    186  BUT  BD1  CH30     0.000000       15.0344           
     742 A    186  BUT  BD2  CH20     0.000000       14.0266           
     743 A    186  BUT  BD3  CH20     0.000000       14.0266           
     744 A    186  BUT  BD4  CH30     0.000000       15.0344           
     745 A    187  BUT  BD1  CH30     0.000000       15.0344           
     746 A    187  BUT  BD2  CH20     0.000000       14.0266           
     747 A    187  BUT  BD3  CH20     0.000000       14.0266           
     748 A    187  BUT  BD4  CH30     0.000000       15.0344           
     749 A    188  BUT  BD1  CH30     0.000000       15.0344           
     750 A    188  BUT  BD2  CH20     0.000000       14.0266           
     751 A    188  BUT  BD3  CH20     0.000000       14.0266           
     752 A    188  BUT  BD4  CH30     0.000000       15.0344           
     753 A    189  BUT  BD1  CH30     0.000000       15.0344           
     754 A    189  BUT  BD2  CH20     0.000000       14.0266           
     755 A    189  BUT  BD3  CH20     0.000000       14.0266           
     756 A    189  BUT  BD4  CH30     0.000000       15.0344           
     757 A    190  BUT  BD1  CH30     0.000000       15.0344           
     758 A    190  BUT  BD2  CH20     0.000000       14.0266           
     759 A    190  BUT  BD3  CH20     0.000000       14.0266           
     760 A    190  BUT  BD4  CH30     0.000000       15.0344           
     761 A    191  BUT  BD1  CH30     0.000000       15.0344           
     762 A    191  BUT  BD2  CH20     0.000000       14.0266           
     763 A    191  BUT  BD3  CH20     0.000000       14.0266           
     764 A    191  BUT  BD4  CH30     0.000000       15.0344           
     765 A    192  BUT  BD1  CH30     0.000000       15.0344           
     766 A    192  BUT  BD2  CH20     0.000000       14.0266           
     767 A    192  BUT  BD3  CH20     0.000000       14.0266           
     768 A    192  BUT  BD4  CH30     0.000000       15.0344           
     769 A    193  BUT  BD1  CH30     0.000000       15.0344           
     770 A    193  BUT  BD2  CH20     0.000000       14.0266           
     771 A    193  BUT  BD3  CH20     0.000000       14.0266           
     772 A    193  BUT  BD4  CH30     0.000000       15.0344           
     773 A    194  BUT  BD1  CH30     0.000000       15.0344           
     774 A    194  BUT  BD2  CH20     0.000000       14.0266           
     775 A    194  BUT  BD3  CH20     0.000000       14.0266           
     776 A    194  BUT  BD4  CH30     0.000000       15.0344           
     777 A    195  BUT  BD1  CH30     0.000000       15.0344           
     778 A    195  BUT  BD2  CH20     0.000000       14.0266           
     779 A    195  BUT  BD3  CH20     0.000000       14.0266           
     780 A    195  BUT  BD4  CH30     0.000000       15.0344           
     781 A    196  BUT  BD1  CH30     0.000000       15.0344           
     782 A    196  BUT  BD2  CH20     0.000000       14.0266           
     783 A    196  BUT  BD3  CH20     0.000000       14.0266           
     784 A    196  BUT  BD4  CH30     0.000000       15.0344           
     785 A    197  BUT  BD1  CH30     0.000000       15.0344           
     786 A    197  BUT  BD2  CH20     0.000000       14.0266           
     787 A    197  BUT  BD3  CH20     0.000000       14.0266           
     788 A    197  BUT  BD4  CH30     0.000000       15.0344           
     789 A    198  BUT  BD1  CH30     0.000000       15.0344           
     790 A    198  BUT  BD2  CH20     0.000000       14.0266           
     791 A    198  BUT  BD3  CH20     0.000000       14.0266           
     792 A    198  BUT  BD4  CH30     0.000000       15.0344           
     793 A    199  BUT  BD1  CH30     0.000000       15.0344           
     794 A    199  BUT  BD2  CH20     0.000000       14.0266           
     795 A    199  BUT  BD3  CH20     0.000000       14.0266           
     796 A    199  BUT  BD4  CH30     0.000000       15.0344           
     797 A    200  BUT  BD1  CH30     0.000000       15.0344           
     798 A    200  BUT  BD2  CH20     0.000000       14.0266           
     799 A    200  BUT  BD3  CH20     0.000000       14.0266           
     800 A    200  BUT  BD4  CH30     0.000000       15.0344           

     600 !NBOND: bonds
       1       2       3       2       4       3       5       6
       7       6       8       7       9      10      11      10
      12      11      13      14      15      14      16      15
      17      18      19      18      20      19      21      22
      23      22      24      23      25      26      27      26
      28      27      29      30      31      30      32      31
      33      34      35      34      36      35      37      38
      39      38      40      39      41      42      43      42
      44      43      45      46      47      46      48      47
      49      50      51      50      52      51      53      54
      55      54      56      55      57      58      59      58
      60      59      61      62      63      62      64      63
      65      66      67      66      68      67      69      70
      71      70      72      71      73      74      75      74
      76      75      77      78      79      78      80      79
      81      82      83      82      84      83      85      86
      87      86      88      87      89      90      91      90
      92      91      93      94      95      94      96      95
      97      98      99      98     100      99     101     102
     103     102     104     103     105     106     107     106
     108     107     109     110     111     110     112     111
     113     114     115     114     116     115     117     118
     119     118     120     119     121     122     123     122
     124     123     125     126     127     126     128     127
     129     130     131     130     132     131     133     134
     135     134     136     135     137     138     139     138
     140     139     141     142     143     142     144     143
     145     146     147     146     148     147     149     150
     151     150     152     151     153     154     155     154
     156     155     157     158     159     158     160     159
     161     162     163     162     164     163     165     166
     167     166     168     167     169     170     171     170
     172     171     173     174     175     174     176     175
     177     178     179     178     180     179     181     182
     183     182     184     183     185     186     187     186
     188     187     189     190     191     190     192     191
     193     194     195     194     196     195     197     198
     199     198     200     199     201     202     203     202
     204     203     205     206     207     206     208     207
     209     210     211     210     212     211     213     214
     215     214     216     215     217     218     219     218
     220     219     221     222     223     222     224     223
     225     226     227     226     228     227     229     230
     231     230     232     231     233     234     235     234
     236     235     237     238     239     238     240     239
     241     242     243     242     244     243     245     246
     247     246     248     247     249     250     251     250
     252     251     253     254     255     254     256     255
     257     258     259     258     260     259     261     262
     263     262     264     263     265     266     267     266
     268     267     269     270     271     270     272     271
     273     274     275     274     276     275     277     278
     279     278     280     279     281     282     283     282
     284     283     285     286     287     286     288     287
     289     290     291     290     292     291     293     294
     295     294     296     295     297     298     299     298
     300     299     301     302     303     302     304     303
     305     306     307     306     308     307     309     310
     311     310     312     311     313     314     315     314
     316     315     317     318     319     318     320     319
     321     322     323     322     324     323     325     326
     327     326     328     327     329     330     331     330
     332     331     333     334     335     334     336     335
     337     338     339     338     340     339     341     342
     343     342     344     343     345     346     347     346
     348     347     349     350     351     350     352     351
     353     354     355     354     356     355     357     358
     359     358     360     359     361     362     363     362
     364     363     365     366     367     366     368     367
     369     370     371     370     372     371     373     374
     375     374     376     375     377     378     379     378
     380     379     381     382     383     382     384     383
     385     386     387     386     388     387     389     390
     391     390     392     391     393     394     395     394
     396     395     397     398     399     398     400     399
     401     402     403     402     404     403     405     406
     407     406     408     407     409     410     411     410
     412     411     413     414     415     414     416     415
     417     418     419     418     420     419     421     422
     423     422     424     423     425     426     427     426
     428     427     429     430     431     430     432     431
     433     434     435     434     436     435     437     438
     439     438     440     439     441     442     443     442
     444     443     445     446     447     446     448     447
     449     450     451     450     452     451     453     454
     455     454     456     455     457     458     459     458
     460     459     461     462     463     462     464     463
     465     466     467     466     468     467     469     470
     471     470     472     471     473     474     475     474
     476     475     477     478     479     478     480     479
     481     482     483     482     484     483     485     486
     487     486     488     487     489     490     491     490
     492     491     493     494     495     494     496     495
     497     498     499     498     500     499     501     502
     503     502     504     503     505     506     507     506
     508     507     509     510     511     510     512     511
     513     514     515     514     516     515     517     518
     519     518     520     519     521     522     523     522
     524     523     525     526     527     526     528     527
     529     530     531     530     532     531     533     534
     535     534     536     535     537     538     539     538
     540     539     541     542     543     542     544     543
     545     546     547     546     548     547     549     550
     551     550     552     551     553     554     555     554
     556     555     557     558     559     558     560     559
     561     562     563     562     564     563     565     566
     567     566     568     567     569     570     571     570
     572     571     573     574     575     574     576     575
     577     578     579     578     580     579     581     582
     583     582     584     583     585     586     587     586
     588     587     589     590     591     590     592     591
     593     594     595     594     596     595     597     598
     599     598     600     599     601     602     603     602
     604     603     605     606     607     606     608     607
     609     610     611     610     612     611     613     614
     615     614     616     615     617     618     619     618
     620     619     621     622     623     622     624     623
     625     626     627     626     628     627     629     630
     631     630     632     631     633     634     635     634
     636     635     637     638     639     638     640     639
     641     642     643     642     644     643     645     646
     647     646     648     647     649     650     651     650
     652     651     653     654     655     654     656     655
     657     658     659     658     660     659     661     662
     663     662     664     663     665     666     667     666
     668     667     669     670     671     670     672     671
     673     674     675     674     676     675     677     678
     679     678     680     679     681     682     683     682
     684     683     685     686     687     686     688     687
     689     690     691     690     692     691     693     694
     695     694     696     695     697     698     699     698
     700     699     701     702     703     702     704     703
     705     706     707     706     708     707     709     710
     711     710     712     711     713     714     715     714
     716     715     717     718     719     718     720     719
     721     722     723     722     724     723     725     726
     727     726     728     727     729     730     731     730
     732     731     733     734     735     734     736     735
     737     738     739     738     740     739     741     742
     743     742     744     743     745     746     747     746
     748     747     749     750     751     750     752     751
     753     754     755     754     756     755     757     758
     759     758     760     759     761     762     763     762
     764     763     765     766     767     766     768     767
     769     770     771     770     772     771     773     774
     775     774     776     775     777     778     779     778
     780     779     781     782     783     782     784     783
     785     786     787     786     788     787     789     790
     791     790     792     791     793     794     795     794
     796     795     797     798     799     798     800     799

     400 !NTHETA: angles
       1       2       3       4       3       2       5       6       7
       8       7       6       9      10      11      12      11      10
      13      14      15      16      15      14      17      18      19
      20      19      18      21      22      23      24      23      22
      25      26      27      28      27      26      29      30      31
      32      31      30      33      34      35      36      35      34
      37      38      39      40      39      38      41      42      43
      44      43      42      45      46      47      48      47      46
      49      50      51      52      51      50      53      54      55
      56      55      54      57      58      59      60      59      58
      61      62      63      64      63      62      65      66      67
      68      67      66      69      70      71      72      71      70
      73      74      75      76      75      74      77      78      79
      80      79      78      81      82      83      84      83      82
      85      86      87      88      87      86      89      90      91
      92      91      90      93      94      95      96      95      94
      97      98      99     100      99      98     101     102     103
     104     103     102     105     106     107     108     107     106
     109     110     111     112     111     110     113     114     115
     116     115     114     117     118     119     120     119     118
     121     122     123     124     123     122     125     126     127
     128     127     126     129     130     131     132     131     130
     133     134     135     136     135     134     137     138     139
     140     139     138     141     142     143     144     143     142
     145     146     147     148     147     146     149     150     151
     152     151     150     153     154     155     156     155     154
     157     158     159     160     159     158     161     162     163
     164     163     162     165     166     167     168     167     166
     169     170     171     172     171     170     173     174     175
     176     175     174     177     178     179     180     179     178
     181     182     183     184     183     182     185     186     187
     188     187     186     189     190     191     192     191     190
     193     194     195     196     195     194     197     198     199
     200     199     198     201     202     203     204     203     202
     205     206     207     208     207     206     209     210     211
     212     211     210     213     214     215     216     215     214
     217     218     219     220     219     218     221     222     223
     224     223     222     225     226     227     228     227     226
     229     230     231     232     231     230     233     234     235
     236     235     234     237     238     239     240     239     238
     241     242     243     244     243     242     245     246     247
     248     247     246     249     250     251     252     251     250
     253     254     255     256     255     254     257     258     259
     260     259     258     261     262     263     264     263     262
     265     266     267     268     267     266     269     270     271
     272     271     270     273     274     275     276     275     274
     277     278     279     280     279     278     281     282     283
     284     283     282     285     286     287     288     287     286
     289     290     291     292     291     290     293     294     295
     296     295     294     297     298     299     300     299     298
     301     302     303     304     303     302     305     306     307
     308     307     306     309     310     311     312     311     310
     313     314     315     316     315     314     317     318     319
     320     319     318     321     322     323     324     323     322
     325     326     327     328     327     326     329     330     331
     332     331     330     333     334     335     336     335     334
     337     338     339     340     339     338     341     342     343
     344     343     342     345     346     347     348     347     346
     349     350     351     352     351     350     353     354     355
     356     355     354     357     358     359     360     359     358
     361     362     363     364     363     362     365     366     367
     368     367     366     369     370     371     372     371     370
     373     374     375     376     375     374     377     378     379
     380     379     378     381     382     383     384     383     382
     385     386     387     388     387     386     389     390     391
     392     391     390     393     394     395     396     395     394
     397     398     399     400     399     398     401     402     403
     404     403     402     405     406     407     408     407     406
     409     410     411     412     411     410     413     414     415
     416     415     414     417     418     419     420     419     418
     421     422     423     424     423     422     425     426     427
     428     427     426     429     430     431     432     431     430
     433     434     435     436     435     434     437     438     439
     440     439     438     441     442     443     444     443     442
     445     446     447     448     447     446     449     450     451
     452     451     450     453     454     455     456     455     454
     457     458     459     460     459     458     461     462     463
     464     463     462     465     466     467     468     467     466
     469     470     471     472     471     470     473     474     475
     476     475     474     477     478     479     480     479     478
     481     482     483     484     483     482     485     486     487
     488     487     486     489     490     491     492     491     490
     493     494     495     496     495     494     497     498     499
     500     499     498     501     502     503     504     503     502
     505     506     507     508     507     506     509     510     511
     512     511     510     513     514     515     516     515     514
     517     518     519     520     519     518     521     522     523
     524     523     522     525     526     527     528     527     526
     529     530     531     532     531     530     533     534     535
     536     535     534     537     538     539     540     539     538
     541     542     543     544     543     542     545     546     547
     548     547     546     549     550     551     552     551     550
     553     554     555     556     555     554     557     558     559
     560     559     558     561     562     563     564     563     562
     565     566     567     568     567     566     569     570     571
     572     571     570     573     574     575     576     575     574
     577     578     579     580     579     578     581     582     583
     584     583     582     585     586     587     588     587     586
     589     590     591     592     591     590     593     594     595
     596     595     594     597     598     599     600     599     598
     601     602     603     604     603     602     605     606     607
     608     607     606     609     610     611     612     611     610
     613     614     615     616     615     614     617     618     619
     620     619     618     621     622     623     624     623     622
     625     626     627     628     627     626     629     630     631
     632     631     630     633     634     635     636     635     634
     637     638     639     640     639     638     641     642     643
     644     643     642     645     646     647     648     647     646
     649     650     651     652     651     650     653     654     655
     656     655     654     657     658     659     660     659     658
     661     662     663     664     663     662     665     666     667
     668     667     666     669     670     671     672     671     670
     673     674     675     676     675     674     677     678     679
     680     679     678     681     682     683     684     683     682
     685     686     687     688     687     686     689     690     691
     692     691     690     693     694     695     696     695     694
     697     698     699     700     699     698     701     702     703
     704     703     702     705     706     707     708     707     706
     709     710     711     712     711     710     713     714     715
     716     715     714     717     718     719     720     719     718
     721     722     723     724     723     722     725     726     727
     728     727     726     729     730     731     732     731     730
     733     734     735     736     735     734     737     738     739
     740     739     738     741     742     743     744     743     742
     745     746     747     748     747     746     749     750     751
     752     751     750     753     754     755     756     755     754
     757     758     759     760     759     758     761     762     763
     764     763     762     765     766     767     768     767     766
     769     770     771     772     771     770     773     774     775
     776     775     774     777     778     779     780     779     778
     781     782     783     784     783     782     785     786     787
     788     787     786     789     790     791     792     791     790
     793     794     795     796     795     794     797     798     799
     800     799     798

     200 !NPHI: dihedrals
       4       3       2       1       8       7       6       5
      12      11      10       9      16      15      14      13
      20      19      18      17      24      23      22      21
      28      27      26      25      32      31      30      29
      36      35      34      33      40      39      38      37
      44      43      42      41      48      47      46      45
      52      51      50      49      56      55      54      53
      60      59      58      57      64      63      62      61
      68      67      66      65      72      71      70      69
      76      75      74      73      80      79      78      77
      84      83      82      81      88      87      86      85
      92      91      90      89      96      95      94      93
     100      99      98      97     104     103     102     101
     108     107     106     105     112     111     110     109
     116     115     114     113     120     119     118     117
     124     123     122     121     128     127     126     125
     132     131     130     129     136     135     134     133
     140     139     138     137     144     143     142     141
     148     147     146     145     152     151     150     149
     156     155     154     153     160     159     158     157
     164     163     162     161     168     167     166     165
     172     171     170     169     176     175     174     173
     180     179     178     177     184     183     182     181
     188     187     186     185     192     191     190     189
     196     195     194     193     200     199     198     197
     204     203     202     201     208     207     206     205
     212     211     210     209     216     215     214     213
     220     219     218     217     224     223     222     221
     228     227     226     225     232     231     230     229
     236     235     234     233     240     239     238     237
     244     243     242     241     248     247     246     245
     252     251     250     249     256     255     254     253
     260     259     258     257     264     263     262     261
     268     267     266     265     272     271     270     269
     276     275     274     273     280     279     278     277
     284     283     282     281     288     287     286     285
     292     291     290     289     296     295     294     293
     300     299     298     297     304     303     302     301
     308     307     306     305     312     311     310     309
     316     315     314     313     320     319     318     317
     324     323     322     321     328     327     326     325
     332     331     330     329     336     335     334     333
     340     339     338     337     344     343     342     341
     348     347     346     345     352     351     350     349
     356     355     354     353     360     359     358     357
     364     363     362     361     368     367     366     365
     372     371     370     369     376     375     374     373
     380     379     378     377     384     383     382     381
     388     387     386     385     392     391     390     389
     396     395     394     393     400     399     398     397
     404     403     402     401     408     407     406     405
     412     411     410     409     416     415     414     413
     420     419     418     417     424     423     422     421
     428     427     426     425     432     431     430     429
     436     435     434     433     440     439     438     437
     444     443     442     441     448     447     446     445
     452     451     450     449     456     455     454     453
     460     459     458     457     464     463     462     461
     468     467     466     465     472     471     470     469
     476     475     474     473     480     479     478     477
     484     483     482     481     488     487     486     485
     492     491     490     489     496     495     494     493
     500     499     498     497     504     503     502     501
     508     507     506     505     512     511     510     509
     516     515     514     513     520     519     518     517
     524     523     522     521     528     527     526     525
     532     531     530     529     536     535     534     533
     540     539     538     537     544     543     542     541
     548     547     546     545     552     551     550     549
     556     555     554     553     560     559     558     557
     564     563     562     561     568     567     566     565
     572     571     570     569     576     575     574     573
     580     579     578     577     584     583     582     581
     588     587     586     585     592     591     590     589
     596     595     594     593     600     599     598     597
     604     603     602     601     608     607     606     605
     612     611     610     609     616     615     614     613
     620     619     618     617     624     623     622     621
     628     627     626     625     632     631     630     629
     636     635     634     633     640     639     638     637
     644     643     642     641     648     647     646     645
     652     651     650     649     656     655     654     653
     660     659     658     657     664     663     662     661
     668     667     666     665     672     671     670     669
     676     675     674     673     680     679     678     677
     684     683     682     681     688     687     686     685
     692     691     690     689     696     695     694     693
     700     699     698     697     704     703     702     701
     708     707     706     705     712     711     710     709
     716     715     714     713     720     719     718     717
     724     723     722     721     728     727     726     725
     732     731     730     729     736     735     734     733
     740     739     738     737     744     743     742     741
     748     747     746     745     752     751     750     749
     756     755     754     753     760     759     758     757
     764     763     762     761     768     767     766     765
     772     771     770     769     776     775     774     773
     780     779     778     777     784     783     782     781
     788     787     786     785     792     791     790     789
     796     795     794     793     800     799     798     797

       0 !NIMPHI: impropers


       0 !NDON: donors

       0 !NACC: acceptors

       0 !NNB

       0 !NGRP 

