PSF 

       3 !NTITLE
 REMARKS this file NVT_ethane_vap - created by using MoSDeF-GOMC. 
 REMARKS parameters from the {'NDE': '/mnt/d/Tools/GOMC/new5/trappe-ua.xml'} force field via MoSDef
 REMARKS created on 2025-09-01 23:29:07.404521


     200 !NATOM
       1 A    1    NDE  BD1  CH30     0.000000       15.0350           
       2 A    1    NDE  BD2  CH30     0.000000       15.0350           
       3 A    2    NDE  BD1  CH30     0.000000       15.0350           
       4 A    2    NDE  BD2  CH30     0.000000       15.0350           
       5 A    3    NDE  BD1  CH30     0.000000       15.0350           
       6 A    3    NDE  BD2  CH30     0.000000       15.0350           
       7 A    4    NDE  BD1  CH30     0.000000       15.0350           
       8 A    4    NDE  BD2  CH30     0.000000       15.0350           
       9 A    5    NDE  BD1  CH30     0.000000       15.0350           
      10 A    5    NDE  BD2  CH30     0.000000       15.0350           
      11 A    6    NDE  BD1  CH30     0.000000       15.0350           
      12 A    6    NDE  BD2  CH30     0.000000       15.0350           
      13 A    7    NDE  BD1  CH30     0.000000       15.0350           
      14 A    7    NDE  BD2  CH30     0.000000       15.0350           
      15 A    8    NDE  BD1  CH30     0.000000       15.0350           
      16 A    8    NDE  BD2  CH30     0.000000       15.0350           
      17 A    9    NDE  BD1  CH30     0.000000       15.0350           
      18 A    9    NDE  BD2  CH30     0.000000       15.0350           
      19 A    10   NDE  BD1  CH30     0.000000       15.0350           
      20 A    10   NDE  BD2  CH30     0.000000       15.0350           
      21 A    11   NDE  BD1  CH30     0.000000       15.0350           
      22 A    11   NDE  BD2  CH30     0.000000       15.0350           
      23 A    12   NDE  BD1  CH30     0.000000       15.0350           
      24 A    12   NDE  BD2  CH30     0.000000       15.0350           
      25 A    13   NDE  BD1  CH30     0.000000       15.0350           
      26 A    13   NDE  BD2  CH30     0.000000       15.0350           
      27 A    14   NDE  BD1  CH30     0.000000       15.0350           
      28 A    14   NDE  BD2  CH30     0.000000       15.0350           
      29 A    15   NDE  BD1  CH30     0.000000       15.0350           
      30 A    15   NDE  BD2  CH30     0.000000       15.0350           
      31 A    16   NDE  BD1  CH30     0.000000       15.0350           
      32 A    16   NDE  BD2  CH30     0.000000       15.0350           
      33 A    17   NDE  BD1  CH30     0.000000       15.0350           
      34 A    17   NDE  BD2  CH30     0.000000       15.0350           
      35 A    18   NDE  BD1  CH30     0.000000       15.0350           
      36 A    18   NDE  BD2  CH30     0.000000       15.0350           
      37 A    19   NDE  BD1  CH30     0.000000       15.0350           
      38 A    19   NDE  BD2  CH30     0.000000       15.0350           
      39 A    20   NDE  BD1  CH30     0.000000       15.0350           
      40 A    20   NDE  BD2  CH30     0.000000       15.0350           
      41 A    21   NDE  BD1  CH30     0.000000       15.0350           
      42 A    21   NDE  BD2  CH30     0.000000       15.0350           
      43 A    22   NDE  BD1  CH30     0.000000       15.0350           
      44 A    22   NDE  BD2  CH30     0.000000       15.0350           
      45 A    23   NDE  BD1  CH30     0.000000       15.0350           
      46 A    23   NDE  BD2  CH30     0.000000       15.0350           
      47 A    24   NDE  BD1  CH30     0.000000       15.0350           
      48 A    24   NDE  BD2  CH30     0.000000       15.0350           
      49 A    25   NDE  BD1  CH30     0.000000       15.0350           
      50 A    25   NDE  BD2  CH30     0.000000       15.0350           
      51 A    26   NDE  BD1  CH30     0.000000       15.0350           
      52 A    26   NDE  BD2  CH30     0.000000       15.0350           
      53 A    27   NDE  BD1  CH30     0.000000       15.0350           
      54 A    27   NDE  BD2  CH30     0.000000       15.0350           
      55 A    28   NDE  BD1  CH30     0.000000       15.0350           
      56 A    28   NDE  BD2  CH30     0.000000       15.0350           
      57 A    29   NDE  BD1  CH30     0.000000       15.0350           
      58 A    29   NDE  BD2  CH30     0.000000       15.0350           
      59 A    30   NDE  BD1  CH30     0.000000       15.0350           
      60 A    30   NDE  BD2  CH30     0.000000       15.0350           
      61 A    31   NDE  BD1  CH30     0.000000       15.0350           
      62 A    31   NDE  BD2  CH30     0.000000       15.0350           
      63 A    32   NDE  BD1  CH30     0.000000       15.0350           
      64 A    32   NDE  BD2  CH30     0.000000       15.0350           
      65 A    33   NDE  BD1  CH30     0.000000       15.0350           
      66 A    33   NDE  BD2  CH30     0.000000       15.0350           
      67 A    34   NDE  BD1  CH30     0.000000       15.0350           
      68 A    34   NDE  BD2  CH30     0.000000       15.0350           
      69 A    35   NDE  BD1  CH30     0.000000       15.0350           
      70 A    35   NDE  BD2  CH30     0.000000       15.0350           
      71 A    36   NDE  BD1  CH30     0.000000       15.0350           
      72 A    36   NDE  BD2  CH30     0.000000       15.0350           
      73 A    37   NDE  BD1  CH30     0.000000       15.0350           
      74 A    37   NDE  BD2  CH30     0.000000       15.0350           
      75 A    38   NDE  BD1  CH30     0.000000       15.0350           
      76 A    38   NDE  BD2  CH30     0.000000       15.0350           
      77 A    39   NDE  BD1  CH30     0.000000       15.0350           
      78 A    39   NDE  BD2  CH30     0.000000       15.0350           
      79 A    40   NDE  BD1  CH30     0.000000       15.0350           
      80 A    40   NDE  BD2  CH30     0.000000       15.0350           
      81 A    41   NDE  BD1  CH30     0.000000       15.0350           
      82 A    41   NDE  BD2  CH30     0.000000       15.0350           
      83 A    42   NDE  BD1  CH30     0.000000       15.0350           
      84 A    42   NDE  BD2  CH30     0.000000       15.0350           
      85 A    43   NDE  BD1  CH30     0.000000       15.0350           
      86 A    43   NDE  BD2  CH30     0.000000       15.0350           
      87 A    44   NDE  BD1  CH30     0.000000       15.0350           
      88 A    44   NDE  BD2  CH30     0.000000       15.0350           
      89 A    45   NDE  BD1  CH30     0.000000       15.0350           
      90 A    45   NDE  BD2  CH30     0.000000       15.0350           
      91 A    46   NDE  BD1  CH30     0.000000       15.0350           
      92 A    46   NDE  BD2  CH30     0.000000       15.0350           
      93 A    47   NDE  BD1  CH30     0.000000       15.0350           
      94 A    47   NDE  BD2  CH30     0.000000       15.0350           
      95 A    48   NDE  BD1  CH30     0.000000       15.0350           
      96 A    48   NDE  BD2  CH30     0.000000       15.0350           
      97 A    49   NDE  BD1  CH30     0.000000       15.0350           
      98 A    49   NDE  BD2  CH30     0.000000       15.0350           
      99 A    50   NDE  BD1  CH30     0.000000       15.0350           
     100 A    50   NDE  BD2  CH30     0.000000       15.0350           
     101 A    51   NDE  BD1  CH30     0.000000       15.0350           
     102 A    51   NDE  BD2  CH30     0.000000       15.0350           
     103 A    52   NDE  BD1  CH30     0.000000       15.0350           
     104 A    52   NDE  BD2  CH30     0.000000       15.0350           
     105 A    53   NDE  BD1  CH30     0.000000       15.0350           
     106 A    53   NDE  BD2  CH30     0.000000       15.0350           
     107 A    54   NDE  BD1  CH30     0.000000       15.0350           
     108 A    54   NDE  BD2  CH30     0.000000       15.0350           
     109 A    55   NDE  BD1  CH30     0.000000       15.0350           
     110 A    55   NDE  BD2  CH30     0.000000       15.0350           
     111 A    56   NDE  BD1  CH30     0.000000       15.0350           
     112 A    56   NDE  BD2  CH30     0.000000       15.0350           
     113 A    57   NDE  BD1  CH30     0.000000       15.0350           
     114 A    57   NDE  BD2  CH30     0.000000       15.0350           
     115 A    58   NDE  BD1  CH30     0.000000       15.0350           
     116 A    58   NDE  BD2  CH30     0.000000       15.0350           
     117 A    59   NDE  BD1  CH30     0.000000       15.0350           
     118 A    59   NDE  BD2  CH30     0.000000       15.0350           
     119 A    60   NDE  BD1  CH30     0.000000       15.0350           
     120 A    60   NDE  BD2  CH30     0.000000       15.0350           
     121 A    61   NDE  BD1  CH30     0.000000       15.0350           
     122 A    61   NDE  BD2  CH30     0.000000       15.0350           
     123 A    62   NDE  BD1  CH30     0.000000       15.0350           
     124 A    62   NDE  BD2  CH30     0.000000       15.0350           
     125 A    63   NDE  BD1  CH30     0.000000       15.0350           
     126 A    63   NDE  BD2  CH30     0.000000       15.0350           
     127 A    64   NDE  BD1  CH30     0.000000       15.0350           
     128 A    64   NDE  BD2  CH30     0.000000       15.0350           
     129 A    65   NDE  BD1  CH30     0.000000       15.0350           
     130 A    65   NDE  BD2  CH30     0.000000       15.0350           
     131 A    66   NDE  BD1  CH30     0.000000       15.0350           
     132 A    66   NDE  BD2  CH30     0.000000       15.0350           
     133 A    67   NDE  BD1  CH30     0.000000       15.0350           
     134 A    67   NDE  BD2  CH30     0.000000       15.0350           
     135 A    68   NDE  BD1  CH30     0.000000       15.0350           
     136 A    68   NDE  BD2  CH30     0.000000       15.0350           
     137 A    69   NDE  BD1  CH30     0.000000       15.0350           
     138 A    69   NDE  BD2  CH30     0.000000       15.0350           
     139 A    70   NDE  BD1  CH30     0.000000       15.0350           
     140 A    70   NDE  BD2  CH30     0.000000       15.0350           
     141 A    71   NDE  BD1  CH30     0.000000       15.0350           
     142 A    71   NDE  BD2  CH30     0.000000       15.0350           
     143 A    72   NDE  BD1  CH30     0.000000       15.0350           
     144 A    72   NDE  BD2  CH30     0.000000       15.0350           
     145 A    73   NDE  BD1  CH30     0.000000       15.0350           
     146 A    73   NDE  BD2  CH30     0.000000       15.0350           
     147 A    74   NDE  BD1  CH30     0.000000       15.0350           
     148 A    74   NDE  BD2  CH30     0.000000       15.0350           
     149 A    75   NDE  BD1  CH30     0.000000       15.0350           
     150 A    75   NDE  BD2  CH30     0.000000       15.0350           
     151 A    76   NDE  BD1  CH30     0.000000       15.0350           
     152 A    76   NDE  BD2  CH30     0.000000       15.0350           
     153 A    77   NDE  BD1  CH30     0.000000       15.0350           
     154 A    77   NDE  BD2  CH30     0.000000       15.0350           
     155 A    78   NDE  BD1  CH30     0.000000       15.0350           
     156 A    78   NDE  BD2  CH30     0.000000       15.0350           
     157 A    79   NDE  BD1  CH30     0.000000       15.0350           
     158 A    79   NDE  BD2  CH30     0.000000       15.0350           
     159 A    80   NDE  BD1  CH30     0.000000       15.0350           
     160 A    80   NDE  BD2  CH30     0.000000       15.0350           
     161 A    81   NDE  BD1  CH30     0.000000       15.0350           
     162 A    81   NDE  BD2  CH30     0.000000       15.0350           
     163 A    82   NDE  BD1  CH30     0.000000       15.0350           
     164 A    82   NDE  BD2  CH30     0.000000       15.0350           
     165 A    83   NDE  BD1  CH30     0.000000       15.0350           
     166 A    83   NDE  BD2  CH30     0.000000       15.0350           
     167 A    84   NDE  BD1  CH30     0.000000       15.0350           
     168 A    84   NDE  BD2  CH30     0.000000       15.0350           
     169 A    85   NDE  BD1  CH30     0.000000       15.0350           
     170 A    85   NDE  BD2  CH30     0.000000       15.0350           
     171 A    86   NDE  BD1  CH30     0.000000       15.0350           
     172 A    86   NDE  BD2  CH30     0.000000       15.0350           
     173 A    87   NDE  BD1  CH30     0.000000       15.0350           
     174 A    87   NDE  BD2  CH30     0.000000       15.0350           
     175 A    88   NDE  BD1  CH30     0.000000       15.0350           
     176 A    88   NDE  BD2  CH30     0.000000       15.0350           
     177 A    89   NDE  BD1  CH30     0.000000       15.0350           
     178 A    89   NDE  BD2  CH30     0.000000       15.0350           
     179 A    90   NDE  BD1  CH30     0.000000       15.0350           
     180 A    90   NDE  BD2  CH30     0.000000       15.0350           
     181 A    91   NDE  BD1  CH30     0.000000       15.0350           
     182 A    91   NDE  BD2  CH30     0.000000       15.0350           
     183 A    92   NDE  BD1  CH30     0.000000       15.0350           
     184 A    92   NDE  BD2  CH30     0.000000       15.0350           
     185 A    93   NDE  BD1  CH30     0.000000       15.0350           
     186 A    93   NDE  BD2  CH30     0.000000       15.0350           
     187 A    94   NDE  BD1  CH30     0.000000       15.0350           
     188 A    94   NDE  BD2  CH30     0.000000       15.0350           
     189 A    95   NDE  BD1  CH30     0.000000       15.0350           
     190 A    95   NDE  BD2  CH30     0.000000       15.0350           
     191 A    96   NDE  BD1  CH30     0.000000       15.0350           
     192 A    96   NDE  BD2  CH30     0.000000       15.0350           
     193 A    97   NDE  BD1  CH30     0.000000       15.0350           
     194 A    97   NDE  BD2  CH30     0.000000       15.0350           
     195 A    98   NDE  BD1  CH30     0.000000       15.0350           
     196 A    98   NDE  BD2  CH30     0.000000       15.0350           
     197 A    99   NDE  BD1  CH30     0.000000       15.0350           
     198 A    99   NDE  BD2  CH30     0.000000       15.0350           
     199 A    100  NDE  BD1  CH30     0.000000       15.0350           
     200 A    100  NDE  BD2  CH30     0.000000       15.0350           

     100 !NBOND: bonds
       2       1       4       3       6       5       8       7
      10       9      12      11      14      13      16      15
      18      17      20      19      22      21      24      23
      26      25      28      27      30      29      32      31
      34      33      36      35      38      37      40      39
      42      41      44      43      46      45      48      47
      50      49      52      51      54      53      56      55
      58      57      60      59      62      61      64      63
      66      65      68      67      70      69      72      71
      74      73      76      75      78      77      80      79
      82      81      84      83      86      85      88      87
      90      89      92      91      94      93      96      95
      98      97     100      99     102     101     104     103
     106     105     108     107     110     109     112     111
     114     113     116     115     118     117     120     119
     122     121     124     123     126     125     128     127
     130     129     132     131     134     133     136     135
     138     137     140     139     142     141     144     143
     146     145     148     147     150     149     152     151
     154     153     156     155     158     157     160     159
     162     161     164     163     166     165     168     167
     170     169     172     171     174     173     176     175
     178     177     180     179     182     181     184     183
     186     185     188     187     190     189     192     191
     194     193     196     195     198     197     200     199

       0 !NTHETA: angles


       0 !NPHI: dihedrals


       0 !NIMPHI: impropers


       0 !NDON: donors

       0 !NACC: acceptors

       0 !NNB

       0 !NGRP 

